       N       E                     dE             d eps       ncg     rms          rms(c)
DAV:   1     0.194319180103E+05    0.19432E+05   -0.83729E+05  6352   0.108E+03
DAV:   2     0.178091019780E+03   -0.19254E+05   -0.18456E+05  8112   0.281E+02
DAV:   3    -0.315776346570E+04   -0.33359E+04   -0.33145E+04  7200   0.123E+02
DAV:   4    -0.325661837358E+04   -0.98855E+02   -0.98430E+02  7328   0.240E+01
DAV:   5    -0.325896366728E+04   -0.23453E+01   -0.23417E+01  7808   0.335E+00    0.204E+02
DAV:   6    -0.162851751814E+04    0.16304E+04   -0.31620E+03  6928   0.441E+01    0.920E+01
DAV:   7    -0.175906330181E+04   -0.13055E+03   -0.30219E+02  7456   0.148E+01    0.660E+01
DAV:   8    -0.176642584603E+04   -0.73625E+01   -0.40727E+01  7504   0.655E+00    0.473E+01
DAV:   9    -0.188965608954E+04   -0.12323E+03   -0.56882E+01  7488   0.657E+00    0.405E+01
DAV:  10    -0.202893331007E+04   -0.13928E+03   -0.42679E+01  7600   0.579E+00    0.340E+01
DAV:  11    -0.220576814222E+04   -0.17683E+03   -0.51145E+01  7456   0.566E+00    0.304E+01
DAV:  12    -0.236670708609E+04   -0.16094E+03   -0.45612E+01  7376   0.544E+00    0.258E+01
DAV:  13    -0.265398639840E+04   -0.28728E+03   -0.15656E+02  6960   0.888E+00    0.197E+01
DAV:  14    -0.290235272145E+04   -0.24837E+03   -0.19219E+02  7040   0.880E+00    0.155E+01
DAV:  15    -0.298403987689E+04   -0.81687E+02   -0.49492E+01  7376   0.460E+00    0.118E+01
DAV:  16    -0.302265363521E+04   -0.38614E+02   -0.16577E+01  7088   0.273E+00    0.964E+00
DAV:  17    -0.304237539594E+04   -0.19722E+02   -0.60073E+00  7152   0.172E+00    0.813E+00
DAV:  18    -0.305339293416E+04   -0.11018E+02   -0.24175E+00  7184   0.118E+00    0.674E+00
DAV:  19    -0.306133316626E+04   -0.79402E+01   -0.18366E+00  7072   0.104E+00    0.559E+00
DAV:  20    -0.306706082972E+04   -0.57277E+01   -0.14022E+00  7008   0.895E-01    0.467E+00
DAV:  21    -0.307057642298E+04   -0.35156E+01   -0.87344E-01  6944   0.722E-01    0.354E+00
DAV:  22    -0.307409413602E+04   -0.35177E+01   -0.80356E-01  6864   0.610E-01    0.244E+00
DAV:  23    -0.307594385533E+04   -0.18497E+01   -0.35627E-01  6800   0.436E-01    0.179E+00
DAV:  24    -0.307687626291E+04   -0.93241E+00   -0.10856E-01  6960   0.301E-01    0.115E+00
DAV:  25    -0.307849243231E+04   -0.16162E+01   -0.83676E-02  7040   0.251E-01    0.675E-01
DAV:  26    -0.308023671616E+04   -0.17443E+01   -0.47233E-02  7024   0.176E-01    0.457E-01
DAV:  27    -0.308124451969E+04   -0.10078E+01   -0.18347E-02  7296   0.117E-01    0.361E-01
DAV:  28    -0.308211569490E+04   -0.87118E+00   -0.15441E-02  7152   0.104E-01    0.223E-01
DAV:  29    -0.308256617112E+04   -0.45048E+00   -0.74749E-03  7456   0.754E-02    0.135E-01
DAV:  30    -0.308274244706E+04   -0.17628E+00   -0.27791E-03  7296   0.467E-02    0.979E-02
DAV:  31    -0.308280151269E+04   -0.59066E-01   -0.77024E-04  7424   0.249E-02    0.631E-02
DAV:  32    -0.308283090324E+04   -0.29391E-01   -0.48306E-04  6912   0.182E-02    0.403E-02
DAV:  33    -0.308284766815E+04   -0.16765E-01   -0.36713E-04  7040   0.146E-02    0.237E-02
DAV:  34    -0.308285428849E+04   -0.66203E-02   -0.82947E-05  6896   0.747E-03    0.179E-02
DAV:  35    -0.308285941914E+04   -0.51307E-02   -0.45756E-05  6320   0.510E-03    0.120E-02
DAV:  36    -0.308286263631E+04   -0.32172E-02   -0.26217E-05  6192   0.390E-03    0.942E-03
DAV:  37    -0.308286441670E+04   -0.17804E-02   -0.96015E-06  5488   0.261E-03    0.657E-03
DAV:  38    -0.308286595493E+04   -0.15382E-02   -0.11343E-05  5664   0.268E-03    0.407E-03
DAV:  39    -0.308286666079E+04   -0.70586E-03   -0.39277E-06  5264   0.166E-03    0.316E-03
DAV:  40    -0.308286708669E+04   -0.42589E-03   -0.29045E-06  5280   0.138E-03    0.186E-03
DAV:  41    -0.308286726531E+04   -0.17862E-03   -0.17771E-06  5248   0.110E-03    0.120E-03
DAV:  42    -0.308286732875E+04   -0.63446E-04   -0.78776E-07  5168   0.683E-04    0.833E-04
DAV:  43    -0.308286735180E+04   -0.23043E-04   -0.35339E-07  5104   0.433E-04    0.595E-04
DAV:  44    -0.308286736247E+04   -0.10673E-04   -0.14137E-07  5088   0.333E-04    0.384E-04
DAV:  45    -0.308286737143E+04   -0.89623E-05   -0.11814E-07  5072   0.320E-04
   1 F= -.31242869E+04 E0= -.31242869E+04  d E =-.312429E+04  mag=    -0.0000
       N       E                     dE             d eps       ncg     rms          rms(c)
DAV:   1    -0.308285897504E+04    0.83874E-02   -0.17555E+00  6112   0.119E+00    0.518E-01
DAV:   2    -0.308286243090E+04   -0.34559E-02   -0.50516E-02  7376   0.191E-01    0.199E-01
DAV:   3    -0.308286156890E+04    0.86199E-03   -0.18229E-03  7392   0.526E-02    0.110E-01
DAV:   4    -0.308286131999E+04    0.24891E-03   -0.88889E-04  7296   0.378E-02    0.572E-02
DAV:   5    -0.308286131112E+04    0.88756E-05   -0.32220E-04  7488   0.219E-02    0.527E-02
DAV:   6    -0.308286127345E+04    0.37670E-04   -0.45901E-05  6752   0.111E-02    0.253E-02
DAV:   7    -0.308286126710E+04    0.63422E-05   -0.13253E-05  5408   0.617E-03
   2 F= -.31242805E+04 E0= -.31242805E+04  d E =0.637585E-02  mag=    -0.0000
       N       E                     dE             d eps       ncg     rms          rms(c)
DAV:   1    -0.308286738902E+04   -0.61156E-02   -0.91653E-01  6048   0.860E-01    0.371E-01
DAV:   2    -0.308286919133E+04   -0.18023E-02   -0.26294E-02  7376   0.138E-01    0.145E-01
DAV:   3    -0.308286876133E+04    0.43000E-03   -0.96027E-04  7280   0.374E-02    0.816E-02
DAV:   4    -0.308286868025E+04    0.81077E-04   -0.48575E-04  7248   0.271E-02    0.577E-02
DAV:   5    -0.308286864973E+04    0.30526E-04   -0.16225E-04  7472   0.158E-02    0.372E-02
DAV:   6    -0.308286863125E+04    0.18473E-04   -0.22724E-05  6176   0.803E-03    0.157E-02
DAV:   7    -0.308286862994E+04    0.13110E-05   -0.10229E-05  5232   0.492E-03
   3 F= -.31242881E+04 E0= -.31242881E+04  d E =-.118287E-02  mag=    -0.0000
       N       E                     dE             d eps       ncg     rms          rms(c)
DAV:   1    -0.308286804264E+04    0.58862E-03   -0.70851E-01  6016   0.754E-01    0.221E-01
DAV:   2    -0.308286941077E+04   -0.13681E-02   -0.16561E-02  7328   0.109E-01    0.101E-01
DAV:   3    -0.308286925543E+04    0.15533E-03   -0.33936E-04  7360   0.209E-02    0.619E-02
DAV:   4    -0.308286922857E+04    0.26867E-04   -0.24318E-04  7280   0.194E-02    0.520E-02
DAV:   5    -0.308286919511E+04    0.33460E-04   -0.93706E-05  7296   0.119E-02    0.214E-02
DAV:   6    -0.308286918973E+04    0.53794E-05   -0.15327E-05  5760   0.526E-03
   4 F= -.31242885E+04 E0= -.31242885E+04  d E =-.469706E-03  mag=    -0.0000
       N       E                     dE             d eps       ncg     rms          rms(c)
DAV:   1    -0.308286929986E+04   -0.10476E-03   -0.12438E-01  6016   0.316E-01    0.894E-02
DAV:   2    -0.308286953932E+04   -0.23946E-03   -0.28710E-03  7328   0.456E-02    0.446E-02
DAV:   3    -0.308286951423E+04    0.25087E-04   -0.64268E-05  7232   0.932E-03    0.289E-02
DAV:   4    -0.308286951106E+04    0.31751E-05   -0.29367E-05  6592   0.714E-03    0.251E-02
DAV:   5    -0.308286950285E+04    0.82045E-05   -0.17721E-05  5696   0.594E-03
   5 F= -.31242889E+04 E0= -.31242889E+04  d E =-.820480E-03  mag=    -0.0000
       N       E                     dE             d eps       ncg     rms          rms(c)
DAV:   1    -0.308287011172E+04   -0.60066E-03   -0.23848E-01  6016   0.436E-01    0.112E-01
DAV:   2    -0.308287056284E+04   -0.45112E-03   -0.53239E-03  7280   0.617E-02    0.538E-02
DAV:   3    -0.308287052053E+04    0.42318E-04   -0.10079E-04  7328   0.111E-02    0.343E-02
DAV:   4    -0.308287051185E+04    0.86727E-05   -0.67400E-05  7184   0.105E-02    0.262E-02
DAV:   5    -0.308287050378E+04    0.80772E-05   -0.28353E-05  6496   0.655E-03
   6 F= -.31242899E+04 E0= -.31242899E+04  d E =-.988088E-03  mag=    -0.0000
       N       E                     dE             d eps       ncg     rms          rms(c)
DAV:   1    -0.308287054119E+04   -0.29338E-04   -0.37048E-02  6048   0.172E-01    0.484E-02
DAV:   2    -0.308287060982E+04   -0.68630E-04   -0.84291E-04  7360   0.248E-02    0.221E-02
DAV:   3    -0.308287060354E+04    0.62785E-05   -0.17893E-05  5504   0.527E-03    0.148E-02
DAV:   4    -0.308287060326E+04    0.28359E-06   -0.95772E-06  4992   0.431E-03    0.148E-02
DAV:   5    -0.308287060025E+04    0.30094E-05   -0.71663E-06  5168   0.400E-03
   7 F= -.31242900E+04 E0= -.31242900E+04  d E =-.107953E-02  mag=    -0.0000
       N       E                     dE             d eps       ncg     rms          rms(c)
DAV:   1    -0.308287106593E+04   -0.46267E-03   -0.20519E-01  6016   0.403E-01    0.103E-01
DAV:   2    -0.308287145950E+04   -0.39357E-03   -0.46375E-03  7296   0.575E-02    0.518E-02
DAV:   3    -0.308287142633E+04    0.33167E-04   -0.91788E-05  7200   0.106E-02    0.331E-02
DAV:   4    -0.308287142281E+04    0.35233E-05   -0.46501E-05  7168   0.897E-03    0.294E-02
DAV:   5    -0.308287141109E+04    0.11720E-04   -0.24396E-05  5936   0.700E-03    0.940E-03
DAV:   6    -0.308287141033E+04    0.76299E-06   -0.59134E-06  4992   0.323E-03
   8 F= -.31242908E+04 E0= -.31242908E+04  d E =-.823519E-03  mag=    -0.0000
       N       E                     dE             d eps       ncg     rms          rms(c)
DAV:   1    -0.308287142863E+04   -0.17543E-04   -0.36375E-02  6016   0.170E-01    0.451E-02
DAV:   2    -0.308287149932E+04   -0.70685E-04   -0.83292E-04  7296   0.244E-02    0.215E-02
DAV:   3    -0.308287149340E+04    0.59143E-05   -0.15125E-05  5408   0.468E-03    0.146E-02
DAV:   4    -0.308287149285E+04    0.55536E-06   -0.83100E-06  5200   0.384E-03    0.135E-02
DAV:   5    -0.308287149056E+04    0.22895E-05   -0.65227E-06  5056   0.361E-03
   9 F= -.31242909E+04 E0= -.31242909E+04  d E =-.909445E-03  mag=    -0.0000
       N       E                     dE             d eps       ncg     rms          rms(c)
DAV:   1    -0.308287185831E+04   -0.36546E-03   -0.17178E-01  6016   0.368E-01    0.975E-02
DAV:   2    -0.308287218729E+04   -0.32898E-03   -0.38944E-03  7200   0.525E-02    0.473E-02
DAV:   3    -0.308287215793E+04    0.29358E-04   -0.73717E-05  7296   0.948E-03    0.300E-02
DAV:   4    -0.308287215431E+04    0.36174E-05   -0.41014E-05  7072   0.841E-03    0.262E-02
DAV:   5    -0.308287214568E+04    0.86285E-05   -0.21388E-05  5920   0.626E-03
  10 F= -.31242916E+04 E0= -.31242916E+04  d E =-.694481E-03  mag=    -0.0000
       N       E                     dE             d eps       ncg     rms          rms(c)
DAV:   1    -0.308287216323E+04   -0.89141E-05   -0.19493E-02  6016   0.124E-01    0.358E-02
DAV:   2    -0.308287220000E+04   -0.36776E-04   -0.44976E-04  7360   0.180E-02    0.169E-02
DAV:   3    -0.308287219670E+04    0.33073E-05   -0.92892E-06  5168   0.379E-03    0.110E-02
DAV:   4    -0.308287219618E+04    0.51496E-06   -0.45204E-06  4944   0.305E-03    0.976E-03
DAV:   5    -0.308287219520E+04    0.98289E-06   -0.37635E-06  5056   0.285E-03
  11 F= -.31242916E+04 E0= -.31242916E+04  d E =-.757245E-03  mag=    -0.0000
       N       E                     dE             d eps       ncg     rms          rms(c)
DAV:   1    -0.308287249955E+04   -0.30337E-03   -0.15799E-01  6016   0.353E-01    0.102E-01
DAV:   2    -0.308287281166E+04   -0.31211E-03   -0.37158E-03  7200   0.513E-02    0.470E-02
DAV:   3    -0.308287278195E+04    0.29709E-04   -0.73861E-05  7296   0.976E-03    0.298E-02
DAV:   4    -0.308287277844E+04    0.35140E-05   -0.37658E-05  6976   0.815E-03    0.254E-02
DAV:   5    -0.308287277000E+04    0.84423E-05   -0.19482E-05  5792   0.625E-03
  12 F= -.31242923E+04 E0= -.31242923E+04  d E =-.700279E-03  mag=    -0.0000
       N       E                     dE             d eps       ncg     rms          rms(c)
DAV:   1    -0.308287275585E+04    0.22589E-04   -0.18113E-02  6016   0.119E-01    0.373E-02
DAV:   2    -0.308287279084E+04   -0.34994E-04   -0.43058E-04  7328   0.176E-02    0.167E-02
DAV:   3    -0.308287278735E+04    0.34880E-05   -0.91317E-06  5120   0.386E-03    0.110E-02
DAV:   4    -0.308287278665E+04    0.70874E-06   -0.44924E-06  4960   0.299E-03    0.893E-03
DAV:   5    -0.308287278581E+04    0.83435E-06   -0.34095E-06  4928   0.277E-03
  13 F= -.31242924E+04 E0= -.31242924E+04  d E =-.758552E-03  mag=    -0.0000
       N       E                     dE             d eps       ncg     rms          rms(c)
DAV:   1    -0.308287299681E+04   -0.21017E-03   -0.12333E-01  6016   0.311E-01    0.825E-02
DAV:   2    -0.308287324050E+04   -0.24369E-03   -0.28445E-03  7168   0.446E-02    0.406E-02
DAV:   3    -0.308287322163E+04    0.18875E-04   -0.53116E-05  7168   0.798E-03    0.267E-02
DAV:   4    -0.308287322025E+04    0.13766E-05   -0.24690E-05  6176   0.654E-03    0.236E-02
DAV:   5    -0.308287321389E+04    0.63650E-05   -0.17022E-05  5536   0.563E-03
  14 F= -.31242930E+04 E0= -.31242930E+04  d E =-.607011E-03  mag=    -0.0000
       N       E                     dE             d eps       ncg     rms          rms(c)
DAV:   1    -0.308287316852E+04    0.51732E-04   -0.40782E-02  6016   0.179E-01    0.496E-02
DAV:   2    -0.308287324818E+04   -0.79660E-04   -0.94494E-04  7296   0.258E-02    0.243E-02
DAV:   3    -0.308287324226E+04    0.59220E-05   -0.19742E-05  5728   0.522E-03    0.164E-02
DAV:   4    -0.308287324116E+04    0.10929E-05   -0.75894E-06  5088   0.388E-03    0.136E-02
DAV:   5    -0.308287323936E+04    0.18008E-05   -0.72861E-06  4992   0.385E-03
  15 F= -.31242931E+04 E0= -.31242931E+04  d E =-.735359E-03  mag=    -0.0000
       N       E                     dE             d eps       ncg     rms          rms(c)
DAV:   1    -0.308287347971E+04   -0.23855E-03   -0.13823E-01  6016   0.329E-01    0.941E-02
DAV:   2    -0.308287375811E+04   -0.27840E-03   -0.32894E-03  7216   0.483E-02    0.447E-02
DAV:   3    -0.308287373531E+04    0.22804E-04   -0.69732E-05  7296   0.957E-03    0.298E-02
DAV:   4    -0.308287373439E+04    0.91741E-06   -0.31408E-05  6528   0.740E-03    0.266E-02
DAV:   5    -0.308287372512E+04    0.92678E-05   -0.18854E-05  5856   0.634E-03
  16 F= -.31242938E+04 E0= -.31242938E+04  d E =-.703581E-03  mag=    -0.0000
       N       E                     dE             d eps       ncg     rms          rms(c)
DAV:   1    -0.308287365873E+04    0.75660E-04   -0.32233E-02  6016   0.159E-01    0.479E-02
DAV:   2    -0.308287372260E+04   -0.63864E-04   -0.77024E-04  7360   0.236E-02    0.232E-02
DAV:   3    -0.308287371757E+04    0.50312E-05   -0.20086E-05  5808   0.563E-03    0.166E-02
DAV:   4    -0.308287371570E+04    0.18651E-05   -0.69879E-06  5040   0.381E-03    0.125E-02
DAV:   5    -0.308287371389E+04    0.18094E-05   -0.59220E-06  5056   0.388E-03
  17 F= -.31242939E+04 E0= -.31242939E+04  d E =-.797601E-03  mag=    -0.0000
       N       E                     dE             d eps       ncg     rms          rms(c)
DAV:   1    -0.308287379347E+04   -0.77767E-04   -0.15464E-01  6016   0.347E-01    0.945E-02
DAV:   2    -0.308287410669E+04   -0.31322E-03   -0.36263E-03  7200   0.502E-02    0.470E-02
DAV:   3    -0.308287408510E+04    0.21588E-04   -0.70765E-05  7104   0.926E-03    0.317E-02
DAV:   4    -0.308287408430E+04    0.80012E-06   -0.28739E-05  6400   0.710E-03    0.277E-02
DAV:   5    -0.308287407589E+04    0.84102E-05   -0.22307E-05  6016   0.663E-03
  18 F= -.31242945E+04 E0= -.31242945E+04  d E =-.612285E-03  mag=    -0.0000
       N       E                     dE             d eps       ncg     rms          rms(c)
DAV:   1    -0.308287399730E+04    0.87008E-04   -0.27072E-02  6016   0.145E-01    0.420E-02
DAV:   2    -0.308287405142E+04   -0.54129E-04   -0.63951E-04  7312   0.213E-02    0.216E-02
DAV:   3    -0.308287404813E+04    0.32908E-05   -0.16221E-05  5760   0.483E-03    0.154E-02
DAV:   4    -0.308287404669E+04    0.14426E-05   -0.47324E-06  5024   0.321E-03    0.111E-02
DAV:   5    -0.308287404593E+04    0.75554E-06   -0.48497E-06  4992   0.335E-03
  19 F= -.31242946E+04 E0= -.31242946E+04  d E =-.687037E-03  mag=    -0.0000
       N       E                     dE             d eps       ncg     rms          rms(c)
DAV:   1    -0.308287416445E+04   -0.11776E-03   -0.14138E-01  6016   0.332E-01    0.954E-02
DAV:   2    -0.308287445263E+04   -0.28818E-03   -0.33994E-03  7200   0.488E-02    0.460E-02
DAV:   3    -0.308287443094E+04    0.21692E-04   -0.70142E-05  7360   0.912E-03    0.306E-02
DAV:   4    -0.308287442879E+04    0.21471E-05   -0.27539E-05  6288   0.700E-03    0.261E-02
DAV:   5    -0.308287442080E+04    0.79971E-05   -0.20839E-05  5888   0.635E-03
  20 F= -.31242952E+04 E0= -.31242952E+04  d E =-.614459E-03  mag=    -0.0000
       N       E                     dE             d eps       ncg     rms          rms(c)
DAV:   1    -0.308287436677E+04    0.62028E-04   -0.14364E-02  6080   0.106E-01    0.331E-02
DAV:   2    -0.308287439536E+04   -0.28597E-04   -0.34991E-04  7328   0.159E-02    0.170E-02
DAV:   3    -0.308287439361E+04    0.17550E-05   -0.10625E-05  5408   0.400E-03    0.126E-02
DAV:   4    -0.308287439226E+04    0.13488E-05   -0.31390E-06  4928   0.261E-03    0.863E-03
DAV:   5    -0.308287439168E+04    0.58237E-06   -0.28947E-06  4992   0.258E-03
  21 F= -.31242953E+04 E0= -.31242953E+04  d E =-.661709E-03  mag=    -0.0000
       N       E                     dE             d eps       ncg     rms          rms(c)
DAV:   1    -0.308287461365E+04   -0.22139E-03   -0.10813E-01  6016   0.290E-01    0.855E-02
DAV:   2    -0.308287483681E+04   -0.22316E-03   -0.26344E-03  7264   0.430E-02    0.412E-02
DAV:   3    -0.308287481977E+04    0.17040E-04   -0.55657E-05  7264   0.814E-03    0.272E-02
DAV:   4    -0.308287481784E+04    0.19267E-05   -0.21777E-05  5920   0.626E-03    0.228E-02
DAV:   5    -0.308287481210E+04    0.57439E-05   -0.16301E-05  5632   0.558E-03
  22 F= -.31242958E+04 E0= -.31242958E+04  d E =-.573637E-03  mag=    -0.0000
       N       E                     dE             d eps       ncg     rms          rms(c)
DAV:   1    -0.308287477384E+04    0.43999E-04   -0.33131E-02  6016   0.161E-01    0.494E-02
DAV:   2    -0.308287484139E+04   -0.67545E-04   -0.81163E-04  7360   0.240E-02    0.238E-02
DAV:   3    -0.308287483656E+04    0.48276E-05   -0.19294E-05  5920   0.511E-03    0.164E-02
DAV:   4    -0.308287483552E+04    0.10377E-05   -0.68065E-06  5120   0.361E-03    0.138E-02
DAV:   5    -0.308287483373E+04    0.17947E-05   -0.65364E-06  5184   0.358E-03
  23 F= -.31242960E+04 E0= -.31242960E+04  d E =-.680057E-03  mag=    -0.0000
       N       E                     dE             d eps       ncg     rms          rms(c)
DAV:   1    -0.308287505990E+04   -0.22437E-03   -0.95813E-02  6016   0.272E-01    0.792E-02
DAV:   2    -0.308287525771E+04   -0.19781E-03   -0.23132E-03  7200   0.400E-02    0.381E-02
DAV:   3    -0.308287524405E+04    0.13658E-04   -0.46035E-05  6912   0.745E-03    0.256E-02
DAV:   4    -0.308287524243E+04    0.16214E-05   -0.17322E-05  5824   0.566E-03    0.217E-02
DAV:   5    -0.308287523733E+04    0.50938E-05   -0.15009E-05  5472   0.538E-03
  24 F= -.31242965E+04 E0= -.31242965E+04  d E =-.520214E-03  mag=    -0.0000
       N       E                     dE             d eps       ncg     rms          rms(c)
DAV:   1    -0.308287520795E+04    0.34479E-04   -0.49691E-02  6016   0.196E-01    0.586E-02
DAV:   2    -0.308287530977E+04   -0.10183E-03   -0.12032E-03  7264   0.289E-02    0.282E-02
DAV:   3    -0.308287530302E+04    0.67519E-05   -0.26451E-05  6304   0.589E-03    0.196E-02
DAV:   4    -0.308287530146E+04    0.15579E-05   -0.87652E-06  5152   0.418E-03    0.161E-02
DAV:   5    -0.308287529887E+04    0.25905E-05   -0.89703E-06  5088   0.430E-03
  25 F= -.31242966E+04 E0= -.31242966E+04  d E =-.665715E-03  mag=    -0.0000
       N       E                     dE             d eps       ncg     rms          rms(c)
DAV:   1    -0.308287556719E+04   -0.26573E-03   -0.93064E-02  5984   0.268E-01    0.782E-02
DAV:   2    -0.308287576059E+04   -0.19340E-03   -0.22744E-03  7232   0.396E-02    0.380E-02
DAV:   3    -0.308287574755E+04    0.13043E-04   -0.48110E-05  7008   0.765E-03    0.258E-02
DAV:   4    -0.308287574579E+04    0.17539E-05   -0.16340E-05  5760   0.556E-03    0.216E-02
DAV:   5    -0.308287574091E+04    0.48868E-05   -0.14289E-05  5408   0.536E-03
  26 F= -.31242972E+04 E0= -.31242972E+04  d E =-.566660E-03  mag=    -0.0000
       N       E                     dE             d eps       ncg     rms          rms(c)
DAV:   1    -0.308287568551E+04    0.60288E-04   -0.74144E-02  6016   0.239E-01    0.709E-02
DAV:   2    -0.308287583877E+04   -0.15326E-03   -0.18122E-03  7296   0.354E-02    0.344E-02
DAV:   3    -0.308287582871E+04    0.10053E-04   -0.40791E-05  6784   0.717E-03    0.237E-02
DAV:   4    -0.308287582670E+04    0.20096E-05   -0.12984E-05  5472   0.503E-03    0.196E-02
DAV:   5    -0.308287582296E+04    0.37491E-05   -0.12422E-05  5264   0.504E-03
  27 F= -.31242974E+04 E0= -.31242974E+04  d E =-.759969E-03  mag=    -0.0000
       N       E                     dE             d eps       ncg     rms          rms(c)
DAV:   1    -0.308287603047E+04   -0.20376E-03   -0.10970E-01  5984   0.289E-01    0.850E-02
DAV:   2    -0.308287625848E+04   -0.22801E-03   -0.26769E-03  7200   0.429E-02    0.413E-02
DAV:   3    -0.308287624411E+04    0.14365E-04   -0.57079E-05  7168   0.828E-03    0.281E-02
DAV:   4    -0.308287624204E+04    0.20762E-05   -0.19234E-05  5888   0.597E-03    0.238E-02
DAV:   5    -0.308287623652E+04    0.55157E-05   -0.17632E-05  5808   0.592E-03
  28 F= -.31242980E+04 E0= -.31242980E+04  d E =-.598735E-03  mag=    -0.0000
       N       E                     dE             d eps       ncg     rms          rms(c)
DAV:   1    -0.308287608977E+04    0.15227E-03   -0.11402E-01  5984   0.295E-01    0.877E-02
DAV:   2    -0.308287632577E+04   -0.23600E-03   -0.27867E-03  7264   0.439E-02    0.421E-02
DAV:   3    -0.308287631053E+04    0.15244E-04   -0.60912E-05  7280   0.861E-03    0.286E-02
DAV:   4    -0.308287630789E+04    0.26321E-05   -0.20576E-05  6016   0.624E-03    0.240E-02
DAV:   5    -0.308287630198E+04    0.59092E-05   -0.18124E-05  5824   0.621E-03
  29 F= -.31242982E+04 E0= -.31242982E+04  d E =-.852910E-03  mag=    -0.0000
       N       E                     dE             d eps       ncg     rms          rms(c)
DAV:   1    -0.308287648210E+04   -0.17421E-03   -0.11484E-01  5984   0.296E-01    0.837E-02
DAV:   2    -0.308287672186E+04   -0.23976E-03   -0.27834E-03  7200   0.436E-02    0.421E-02
DAV:   3    -0.308287670808E+04    0.13778E-04   -0.56306E-05  7168   0.814E-03    0.284E-02
DAV:   4    -0.308287670655E+04    0.15294E-05   -0.20014E-05  5856   0.591E-03    0.244E-02
DAV:   5    -0.308287670159E+04    0.49602E-05   -0.18063E-05  5888   0.578E-03
  30 F= -.31242989E+04 E0= -.31242989E+04  d E =-.634361E-03  mag=    -0.0000
       N       E                     dE             d eps       ncg     rms          rms(c)
DAV:   1    -0.308287645538E+04    0.25118E-03   -0.13095E-01  5984   0.316E-01    0.898E-02
DAV:   2    -0.308287672751E+04   -0.27213E-03   -0.31653E-03  7264   0.465E-02    0.448E-02
DAV:   3    -0.308287671141E+04    0.16099E-04   -0.63931E-05  7232   0.865E-03    0.297E-02
DAV:   4    -0.308287670953E+04    0.18760E-05   -0.23325E-05  6144   0.643E-03    0.254E-02
DAV:   5    -0.308287670403E+04    0.55046E-05   -0.19412E-05  5920   0.610E-03
  31 F= -.31242991E+04 E0= -.31242991E+04  d E =-.887506E-03  mag=    -0.0000
       N       E                     dE             d eps       ncg     rms          rms(c)
DAV:   1    -0.308287682686E+04   -0.11733E-03   -0.15419E-01  5984   0.342E-01    0.991E-02
DAV:   2    -0.308287714888E+04   -0.32202E-03   -0.37337E-03  7200   0.503E-02    0.483E-02
DAV:   3    -0.308287712888E+04    0.19994E-04   -0.71139E-05  7232   0.926E-03    0.320E-02
DAV:   4    -0.308287712726E+04    0.16192E-05   -0.29216E-05  6432   0.707E-03    0.282E-02
DAV:   5    -0.308287711959E+04    0.76710E-05   -0.22295E-05  6128   0.662E-03
  32 F= -.31242998E+04 E0= -.31242998E+04  d E =-.689788E-03  mag=    -0.0000
       N       E                     dE             d eps       ncg     rms          rms(c)
DAV:   1    -0.308287694265E+04    0.18461E-03   -0.90278E-02  5984   0.262E-01    0.772E-02
DAV:   2    -0.308287713013E+04   -0.18748E-03   -0.21873E-03  7264   0.386E-02    0.378E-02
DAV:   3    -0.308287711864E+04    0.11493E-04   -0.45191E-05  6912   0.766E-03    0.253E-02
DAV:   4    -0.308287711665E+04    0.19921E-05   -0.16307E-05  5760   0.560E-03    0.220E-02
DAV:   5    -0.308287711197E+04    0.46794E-05   -0.14259E-05  5536   0.571E-03
  33 F= -.31243000E+04 E0= -.31243000E+04  d E =-.891987E-03  mag=    -0.0000
       N       E                     dE             d eps       ncg     rms          rms(c)
DAV:   1    -0.308287735693E+04   -0.24029E-03   -0.12326E-01  5984   0.307E-01    0.901E-02
DAV:   2    -0.308287761388E+04   -0.25694E-03   -0.30254E-03  7232   0.458E-02    0.447E-02
DAV:   3    -0.308287759667E+04    0.17203E-04   -0.65448E-05  7264   0.894E-03    0.295E-02
DAV:   4    -0.308287759474E+04    0.19294E-05   -0.23522E-05  6112   0.649E-03    0.260E-02
DAV:   5    -0.308287758770E+04    0.70484E-05   -0.18443E-05  5984   0.599E-03
  34 F= -.31243007E+04 E0= -.31243007E+04  d E =-.670863E-03  mag=    -0.0000
       N       E                     dE             d eps       ncg     rms          rms(c)
DAV:   1    -0.308287745627E+04    0.13848E-03   -0.83126E-02  5984   0.252E-01    0.753E-02
DAV:   2    -0.308287762803E+04   -0.17176E-03   -0.20362E-03  7264   0.376E-02    0.374E-02
DAV:   3    -0.308287761672E+04    0.11302E-04   -0.47300E-05  6944   0.781E-03    0.251E-02
DAV:   4    -0.308287761464E+04    0.20877E-05   -0.15704E-05  5664   0.554E-03    0.219E-02
DAV:   5    -0.308287760978E+04    0.48602E-05   -0.13286E-05  5408   0.539E-03
  35 F= -.31243009E+04 E0= -.31243009E+04  d E =-.853217E-03  mag=    -0.0000
       N       E                     dE             d eps       ncg     rms          rms(c)
DAV:   1    -0.308287779696E+04   -0.18233E-03   -0.10320E-01  5984   0.280E-01    0.790E-02
DAV:   2    -0.308287801190E+04   -0.21494E-03   -0.24762E-03  7168   0.410E-02    0.402E-02
DAV:   3    -0.308287800003E+04    0.11873E-04   -0.49235E-05  6752   0.772E-03    0.271E-02
DAV:   4    -0.308287799799E+04    0.20338E-05   -0.16559E-05  5808   0.555E-03    0.230E-02
DAV:   5    -0.308287799374E+04    0.42579E-05   -0.16928E-05  5760   0.573E-03
  36 F= -.31243014E+04 E0= -.31243014E+04  d E =-.560172E-03  mag=    -0.0000
       N       E                     dE             d eps       ncg     rms          rms(c)
DAV:   1    -0.308287769843E+04    0.29956E-03   -0.20398E-01  5952   0.393E-01    0.111E-01
DAV:   2    -0.308287812257E+04   -0.42414E-03   -0.48895E-03  7168   0.575E-02    0.555E-02
DAV:   3    -0.308287809814E+04    0.24437E-04   -0.92957E-05  7264   0.105E-02    0.367E-02
DAV:   4    -0.308287809535E+04    0.27870E-05   -0.34729E-05  6528   0.801E-03    0.318E-02
DAV:   5    -0.308287808583E+04    0.95202E-05   -0.29738E-05  6176   0.772E-03
  37 F= -.31243018E+04 E0= -.31243018E+04  d E =-.899827E-03  mag=    -0.0000
       N       E                     dE             d eps       ncg     rms          rms(c)
DAV:   1    -0.308287839578E+04   -0.30044E-03   -0.14433E-01  5984   0.332E-01    0.993E-02
DAV:   2    -0.308287869974E+04   -0.30396E-03   -0.35853E-03  7200   0.497E-02    0.485E-02
DAV:   3    -0.308287867944E+04    0.20303E-04   -0.77622E-05  7296   0.972E-03    0.325E-02
DAV:   4    -0.308287867732E+04    0.21194E-05   -0.28234E-05  6400   0.695E-03    0.278E-02
DAV:   5    -0.308287867022E+04    0.71038E-05   -0.21795E-05  6176   0.641E-03
  38 F= -.31243025E+04 E0= -.31243025E+04  d E =-.787874E-03  mag=    -0.0000
       N       E                     dE             d eps       ncg     rms          rms(c)
DAV:   1    -0.308287847156E+04    0.20576E-03   -0.11866E-01  5952   0.301E-01    0.908E-02
DAV:   2    -0.308287871912E+04   -0.24756E-03   -0.29366E-03  7232   0.452E-02    0.449E-02
DAV:   3    -0.308287870208E+04    0.17045E-04   -0.67757E-05  7296   0.924E-03    0.300E-02
DAV:   4    -0.308287869894E+04    0.31330E-05   -0.22300E-05  6144   0.644E-03    0.254E-02
DAV:   5    -0.308287869283E+04    0.61116E-05   -0.18209E-05  5952   0.623E-03
  39 F= -.31243028E+04 E0= -.31243028E+04  d E =-.995157E-03  mag=    -0.0000
       N       E                     dE             d eps       ncg     rms          rms(c)
DAV:   1    -0.308287883933E+04   -0.14039E-03   -0.13765E-01  5984   0.323E-01    0.923E-02
DAV:   2    -0.308287912976E+04   -0.29043E-03   -0.33546E-03  7168   0.476E-02    0.468E-02
DAV:   3    -0.308287911360E+04    0.16158E-04   -0.67857E-05  7200   0.889E-03    0.318E-02
DAV:   4    -0.308287911095E+04    0.26503E-05   -0.21776E-05  6096   0.618E-03    0.259E-02
DAV:   5    -0.308287910611E+04    0.48414E-05   -0.21227E-05  6128   0.626E-03
  40 F= -.31243034E+04 E0= -.31243034E+04  d E =-.604659E-03  mag=    -0.0000
       N       E                     dE             d eps       ncg     rms          rms(c)
DAV:   1    -0.308287893390E+04    0.17704E-03   -0.10080E-01  5984   0.276E-01    0.798E-02
DAV:   2    -0.308287914529E+04   -0.21139E-03   -0.24587E-03  7328   0.408E-02    0.406E-02
DAV:   3    -0.308287913385E+04    0.11440E-04   -0.52580E-05  7008   0.791E-03    0.275E-02
DAV:   4    -0.308287913166E+04    0.21953E-05   -0.16229E-05  5888   0.544E-03    0.231E-02
DAV:   5    -0.308287912792E+04    0.37383E-05   -0.16234E-05  5760   0.561E-03
  41 F= -.31243035E+04 E0= -.31243035E+04  d E =-.790161E-03  mag=    -0.0000
       N       E                     dE             d eps       ncg     rms          rms(c)
DAV:   1    -0.308287951696E+04   -0.38530E-03   -0.13612E-01  5952   0.323E-01    0.101E-01
DAV:   2    -0.308287980043E+04   -0.28347E-03   -0.34278E-03  7200   0.490E-02    0.471E-02
DAV:   3    -0.308287977881E+04    0.21618E-04   -0.81125E-05  7296   0.997E-03    0.318E-02
DAV:   4    -0.308287977618E+04    0.26270E-05   -0.28436E-05  6400   0.714E-03    0.257E-02
DAV:   5    -0.308287976940E+04    0.67819E-05   -0.19698E-05  6048   0.639E-03
  42 F= -.31243043E+04 E0= -.31243043E+04  d E =-.750292E-03  mag=    -0.0000
       N       E                     dE             d eps       ncg     rms          rms(c)
DAV:   1    -0.308287976633E+04    0.98533E-05   -0.33433E-02  6016   0.160E-01    0.524E-02
DAV:   2    -0.308287983484E+04   -0.68516E-04   -0.84393E-04  7360   0.246E-02    0.255E-02
DAV:   3    -0.308287983051E+04    0.43336E-05   -0.25398E-05  6432   0.602E-03    0.188E-02
DAV:   4    -0.308287982834E+04    0.21683E-05   -0.73601E-06  5216   0.388E-03    0.145E-02
DAV:   5    -0.308287982648E+04    0.18652E-05   -0.61847E-06  5024   0.393E-03
  43 F= -.31243044E+04 E0= -.31243044E+04  d E =-.861331E-03  mag=    -0.0000
       N       E                     dE             d eps       ncg     rms          rms(c)
DAV:   1    -0.308288021203E+04   -0.38369E-03   -0.10641E-01  5984   0.286E-01    0.888E-02
DAV:   2    -0.308288043277E+04   -0.22073E-03   -0.26368E-03  7200   0.427E-02    0.408E-02
DAV:   3    -0.308288041443E+04    0.18343E-04   -0.54347E-05  7232   0.829E-03    0.272E-02
DAV:   4    -0.308288041190E+04    0.25221E-05   -0.24032E-05  6272   0.669E-03    0.216E-02
DAV:   5    -0.308288040657E+04    0.53376E-05   -0.15402E-05  5696   0.579E-03
  44 F= -.31243050E+04 E0= -.31243050E+04  d E =-.613844E-03  mag=    -0.0000
       N       E                     dE             d eps       ncg     rms          rms(c)
DAV:   1    -0.308288041390E+04   -0.19933E-05   -0.33022E-02  6016   0.159E-01    0.513E-02
DAV:   2    -0.308288048158E+04   -0.67680E-04   -0.82415E-04  7264   0.239E-02    0.229E-02
DAV:   3    -0.308288047562E+04    0.59615E-05   -0.16167E-05  5408   0.484E-03    0.150E-02
DAV:   4    -0.308288047464E+04    0.97777E-06   -0.86593E-06  5120   0.412E-03    0.127E-02
DAV:   5    -0.308288047326E+04    0.13813E-05   -0.66055E-06  5120   0.372E-03
  45 F= -.31243051E+04 E0= -.31243051E+04  d E =-.699301E-03  mag=    -0.0000
       N       E                     dE             d eps       ncg     rms          rms(c)
DAV:   1    -0.308288086742E+04   -0.39278E-03   -0.10938E-01  5952   0.290E-01    0.864E-02
DAV:   2    -0.308288109034E+04   -0.22292E-03   -0.26513E-03  7264   0.427E-02    0.404E-02
DAV:   3    -0.308288107328E+04    0.17058E-04   -0.53021E-05  7296   0.792E-03    0.266E-02
DAV:   4    -0.308288107095E+04    0.23328E-05   -0.24974E-05  6176   0.652E-03    0.207E-02
DAV:   5    -0.308288106708E+04    0.38691E-05   -0.14603E-05  5504   0.514E-03
  46 F= -.31243057E+04 E0= -.31243057E+04  d E =-.559656E-03  mag=    -0.0000
       N       E                     dE             d eps       ncg     rms          rms(c)
DAV:   1    -0.308288113830E+04   -0.67352E-04   -0.43216E-02  6016   0.182E-01    0.563E-02
DAV:   2    -0.308288122535E+04   -0.87048E-04   -0.10511E-03  7328   0.270E-02    0.259E-02
DAV:   3    -0.308288121882E+04    0.65271E-05   -0.22469E-05  6016   0.551E-03    0.175E-02
DAV:   4    -0.308288121837E+04    0.45082E-06   -0.93526E-06  5312   0.423E-03    0.158E-02
DAV:   5    -0.308288121595E+04    0.24256E-05   -0.79331E-06  5120   0.411E-03
  47 F= -.31243058E+04 E0= -.31243058E+04  d E =-.687006E-03  mag=    -0.0000
       N       E                     dE             d eps       ncg     rms          rms(c)
DAV:   1    -0.308288165204E+04   -0.43367E-03   -0.11133E-01  5952   0.293E-01    0.913E-02
DAV:   2    -0.308288188024E+04   -0.22819E-03   -0.27623E-03  7232   0.439E-02    0.421E-02
DAV:   3    -0.308288186097E+04    0.19263E-04   -0.60018E-05  7232   0.848E-03    0.277E-02
DAV:   4    -0.308288185862E+04    0.23549E-05   -0.24992E-05  6336   0.660E-03    0.226E-02
DAV:   5    -0.308288185281E+04    0.58089E-05   -0.15679E-05  5728   0.563E-03
  48 F= -.31243064E+04 E0= -.31243064E+04  d E =-.560873E-03  mag=    -0.0000
       N       E                     dE             d eps       ncg     rms          rms(c)
DAV:   1    -0.308288190741E+04   -0.48795E-04   -0.14781E-02  6144   0.107E-01    0.354E-02
DAV:   2    -0.308288193719E+04   -0.29777E-04   -0.37065E-04  7328   0.162E-02    0.162E-02
DAV:   3    -0.308288193489E+04    0.22954E-05   -0.93275E-06  5328   0.375E-03    0.116E-02
DAV:   4    -0.308288193432E+04    0.57433E-06   -0.34736E-06  5120   0.264E-03    0.930E-03
DAV:   5    -0.308288193355E+04    0.77067E-06   -0.31895E-06  4960   0.266E-03
  49 F= -.31243064E+04 E0= -.31243064E+04  d E =-.613891E-03  mag=    -0.0000
       N       E                     dE             d eps       ncg     rms          rms(c)
DAV:   1    -0.308288227279E+04   -0.33847E-03   -0.12076E-01  5952   0.305E-01    0.918E-02
DAV:   2    -0.308288252234E+04   -0.24955E-03   -0.29695E-03  7200   0.453E-02    0.436E-02
DAV:   3    -0.308288250205E+04    0.20293E-04   -0.59647E-05  7296   0.846E-03    0.287E-02
DAV:   4    -0.308288249949E+04    0.25599E-05   -0.27446E-05  6272   0.695E-03    0.233E-02
DAV:   5    -0.308288249351E+04    0.59771E-05   -0.17488E-05  5824   0.579E-03
  50 F= -.31243069E+04 E0= -.31243069E+04  d E =-.497831E-03  mag=    -0.0000
       N       E                     dE             d eps       ncg     rms          rms(c)
DAV:   1    -0.308288252776E+04   -0.28272E-04   -0.10557E-02  6144   0.901E-02    0.297E-02
DAV:   2    -0.308288254911E+04   -0.21353E-04   -0.26438E-04  7360   0.137E-02    0.139E-02
DAV:   3    -0.308288254753E+04    0.15841E-05   -0.65146E-06  5184   0.319E-03    0.101E-02
DAV:   4    -0.308288254704E+04    0.49180E-06   -0.24925E-06  5152   0.226E-03    0.772E-03
DAV:   5    -0.308288254662E+04    0.42107E-06   -0.22643E-06  4896   0.232E-03
  51 F= -.31243069E+04 E0= -.31243069E+04  d E =-.532565E-03  mag=    -0.0000
       N       E                     dE             d eps       ncg     rms          rms(c)
DAV:   1    -0.308288274120E+04   -0.19416E-03   -0.11992E-01  5952   0.305E-01    0.946E-02
DAV:   2    -0.308288298867E+04   -0.24747E-03   -0.29742E-03  7072   0.456E-02    0.436E-02
DAV:   3    -0.308288296667E+04    0.22009E-04   -0.61469E-05  7312   0.887E-03    0.282E-02
DAV:   4    -0.308288296386E+04    0.28074E-05   -0.29088E-05  6368   0.725E-03    0.233E-02
DAV:   5    -0.308288295777E+04    0.60840E-05   -0.17077E-05  5856   0.581E-03
  52 F= -.31243074E+04 E0= -.31243074E+04  d E =-.415990E-03  mag=    -0.0000
       N       E                     dE             d eps       ncg     rms          rms(c)
DAV:   1    -0.308288295707E+04    0.67879E-05   -0.61466E-06  5056   0.305E-03    0.580E-03
DAV:   2    -0.308288295733E+04   -0.26380E-06   -0.21449E-06  4896   0.202E-03    0.585E-03
DAV:   3    -0.308288295707E+04    0.26322E-06   -0.69989E-07  4928   0.118E-03    0.292E-03
DAV:   4    -0.308288295712E+04   -0.49477E-07   -0.78483E-08  4832   0.652E-04    0.168E-03
DAV:   5    -0.308288295724E+04   -0.12183E-06   -0.23780E-08  4960   0.606E-04
  53 F= -.31243074E+04 E0= -.31243074E+04  d E =-.415441E-03  mag=    -0.0000
       N       E                     dE             d eps       ncg     rms          rms(c)
DAV:   1    -0.308288314563E+04   -0.18851E-03   -0.10631E-01  5984   0.286E-01    0.879E-02
DAV:   2    -0.308288336547E+04   -0.21984E-03   -0.26424E-03  7168   0.428E-02    0.414E-02
DAV:   3    -0.308288334569E+04    0.19784E-04   -0.56736E-05  7120   0.821E-03    0.264E-02
DAV:   4    -0.308288334211E+04    0.35742E-05   -0.26178E-05  6400   0.667E-03    0.209E-02
DAV:   5    -0.308288333794E+04    0.41700E-05   -0.14435E-05  5504   0.506E-03
  54 F= -.31243077E+04 E0= -.31243077E+04  d E =-.380445E-03  mag=    -0.0000
       N       E                     dE             d eps       ncg     rms          rms(c)
DAV:   1    -0.308288333978E+04    0.23324E-05   -0.75035E-04  6880   0.241E-02    0.106E-02
DAV:   2    -0.308288334115E+04   -0.13709E-05   -0.19475E-05  5728   0.419E-03    0.691E-03
DAV:   3    -0.308288334116E+04   -0.97789E-08   -0.23593E-06  4960   0.188E-03    0.530E-03
DAV:   4    -0.308288334094E+04    0.21805E-06   -0.44819E-07  4896   0.109E-03    0.251E-03
DAV:   5    -0.308288334101E+04   -0.65600E-07   -0.15537E-07  4864   0.827E-04
  55 F= -.31243077E+04 E0= -.31243077E+04  d E =-.383490E-03  mag=    -0.0000
       N       E                     dE             d eps       ncg     rms          rms(c)
DAV:   1    -0.308288357617E+04   -0.23523E-03   -0.81906E-02  5952   0.252E-01    0.760E-02
DAV:   2    -0.308288374513E+04   -0.16896E-03   -0.20096E-03  7264   0.374E-02    0.359E-02
DAV:   3    -0.308288373105E+04    0.14089E-04   -0.39468E-05  6752   0.679E-03    0.227E-02
DAV:   4    -0.308288372786E+04    0.31813E-05   -0.17723E-05  5536   0.555E-03    0.180E-02
DAV:   5    -0.308288372550E+04    0.23631E-05   -0.11979E-05  5120   0.458E-03
  56 F= -.31243081E+04 E0= -.31243081E+04  d E =-.377535E-03  mag=    -0.0000
       N       E                     dE             d eps       ncg     rms          rms(c)
DAV:   1    -0.308288374440E+04   -0.16539E-04   -0.82351E-03  6080   0.798E-02    0.263E-02
DAV:   2    -0.308288376105E+04   -0.16649E-04   -0.20575E-04  7328   0.121E-02    0.123E-02
DAV:   3    -0.308288375980E+04    0.12487E-05   -0.48293E-06  4992   0.271E-03    0.830E-03
DAV:   4    -0.308288375951E+04    0.29209E-06   -0.17814E-06  4864   0.195E-03    0.661E-03
DAV:   5    -0.308288375928E+04    0.23493E-06   -0.15522E-06  4896   0.194E-03
  57 F= -.31243081E+04 E0= -.31243081E+04  d E =-.409092E-03  mag=    -0.0000
       N       E                     dE             d eps       ncg     rms          rms(c)
DAV:   1    -0.308288397101E+04   -0.21149E-03   -0.88604E-02  5952   0.261E-01    0.790E-02
DAV:   2    -0.308288415368E+04   -0.18268E-03   -0.21868E-03  7136   0.389E-02    0.382E-02
DAV:   3    -0.308288413853E+04    0.15157E-04   -0.47204E-05  7136   0.741E-03    0.240E-02
DAV:   4    -0.308288413540E+04    0.31230E-05   -0.18213E-05  5824   0.550E-03    0.197E-02
DAV:   5    -0.308288413248E+04    0.29200E-05   -0.12002E-05  5344   0.460E-03
  58 F= -.31243085E+04 E0= -.31243085E+04  d E =-.399441E-03  mag=    -0.0000
       N       E                     dE             d eps       ncg     rms          rms(c)
DAV:   1    -0.308288413582E+04   -0.41706E-06   -0.61958E-03  6144   0.690E-02    0.232E-02
DAV:   2    -0.308288414819E+04   -0.12373E-04   -0.15466E-04  7328   0.106E-02    0.119E-02
DAV:   3    -0.308288414742E+04    0.77469E-06   -0.49508E-06  5152   0.274E-03    0.873E-03
DAV:   4    -0.308288414688E+04    0.54069E-06   -0.14818E-06  4928   0.182E-03    0.594E-03
DAV:   5    -0.308288414670E+04    0.18062E-06   -0.11808E-06  4864   0.161E-03
  59 F= -.31243086E+04 E0= -.31243086E+04  d E =-.420590E-03  mag=    -0.0000
       N       E                     dE             d eps       ncg     rms          rms(c)
DAV:   1    -0.308288436199E+04   -0.21511E-03   -0.58319E-02  5984   0.211E-01    0.630E-02
DAV:   2    -0.308288448150E+04   -0.11951E-03   -0.14101E-03  7200   0.311E-02    0.304E-02
DAV:   3    -0.308288447242E+04    0.90775E-05   -0.26296E-05  6176   0.561E-03    0.191E-02
DAV:   4    -0.308288447051E+04    0.19085E-05   -0.11443E-05  5216   0.450E-03    0.160E-02
DAV:   5    -0.308288446889E+04    0.16204E-05   -0.94223E-06  5184   0.406E-03
  60 F= -.31243089E+04 E0= -.31243089E+04  d E =-.358040E-03  mag=    -0.0000
       N       E                     dE             d eps       ncg     rms          rms(c)
DAV:   1    -0.308288447393E+04   -0.34163E-05   -0.25024E-02  6016   0.138E-01    0.427E-02
DAV:   2    -0.308288452491E+04   -0.50981E-04   -0.60980E-04  7264   0.205E-02    0.202E-02
DAV:   3    -0.308288452108E+04    0.38331E-05   -0.11431E-05  5248   0.393E-03    0.127E-02
DAV:   4    -0.308288452017E+04    0.90635E-06   -0.51391E-06  4960   0.305E-03    0.102E-02
DAV:   5    -0.308288451959E+04    0.57649E-06   -0.44711E-06  4960   0.288E-03
  61 F= -.31243090E+04 E0= -.31243090E+04  d E =-.432222E-03  mag=    -0.0000
       N       E                     dE             d eps       ncg     rms          rms(c)
DAV:   1    -0.308288478176E+04   -0.26159E-03   -0.45184E-02  5984   0.187E-01    0.589E-02
DAV:   2    -0.308288487493E+04   -0.93165E-04   -0.11322E-03  7200   0.281E-02    0.280E-02
DAV:   3    -0.308288486696E+04    0.79633E-05   -0.25049E-05  6272   0.575E-03    0.180E-02
DAV:   4    -0.308288486605E+04    0.90973E-06   -0.96194E-06  5120   0.431E-03    0.167E-02
DAV:   5    -0.308288486328E+04    0.27793E-05   -0.79819E-06  4960   0.407E-03
  62 F= -.31243094E+04 E0= -.31243094E+04  d E =-.360364E-03  mag=    -0.0000
       N       E                     dE             d eps       ncg     rms          rms(c)
DAV:   1    -0.308288488484E+04   -0.18784E-04   -0.26274E-02  6016   0.142E-01    0.460E-02
DAV:   2    -0.308288493812E+04   -0.53279E-04   -0.65697E-04  7232   0.215E-02    0.218E-02
DAV:   3    -0.308288493340E+04    0.47185E-05   -0.14904E-05  5568   0.461E-03    0.138E-02
DAV:   4    -0.308288493247E+04    0.92795E-06   -0.59562E-06  5024   0.339E-03    0.121E-02
DAV:   5    -0.308288493125E+04    0.12175E-05   -0.51461E-06  5024   0.324E-03
  63 F= -.31243094E+04 E0= -.31243094E+04  d E =-.441090E-03  mag=    -0.0000
       N       E                     dE             d eps       ncg     rms          rms(c)
DAV:   1    -0.308288516913E+04   -0.23666E-03   -0.53053E-02  5984   0.202E-01    0.632E-02
DAV:   2    -0.308288527877E+04   -0.10964E-03   -0.13217E-03  7232   0.302E-02    0.299E-02
DAV:   3    -0.308288526994E+04    0.88305E-05   -0.27936E-05  6496   0.588E-03    0.195E-02
DAV:   4    -0.308288526906E+04    0.87824E-06   -0.10714E-05  5280   0.446E-03    0.179E-02
DAV:   5    -0.308288526600E+04    0.30551E-05   -0.90596E-06  5056   0.424E-03
  64 F= -.31243098E+04 E0= -.31243098E+04  d E =-.339644E-03  mag=    -0.0000
       N       E                     dE             d eps       ncg     rms          rms(c)
DAV:   1    -0.308288529033E+04   -0.21266E-04   -0.28645E-02  6016   0.148E-01    0.474E-02
DAV:   2    -0.308288534880E+04   -0.58472E-04   -0.71415E-04  7296   0.223E-02    0.226E-02
DAV:   3    -0.308288534419E+04    0.46116E-05   -0.16080E-05  5728   0.464E-03    0.147E-02
DAV:   4    -0.308288534329E+04    0.89809E-06   -0.58840E-06  5024   0.337E-03    0.127E-02
DAV:   5    -0.308288534195E+04    0.13335E-05   -0.55811E-06  4992   0.327E-03
  65 F= -.31243099E+04 E0= -.31243099E+04  d E =-.419193E-03  mag=    -0.0000
       N       E                     dE             d eps       ncg     rms          rms(c)
DAV:   1    -0.308288556226E+04   -0.21897E-03   -0.42726E-02  5952   0.180E-01    0.519E-02
DAV:   2    -0.308288564862E+04   -0.86369E-04   -0.10229E-03  7168   0.264E-02    0.258E-02
DAV:   3    -0.308288564286E+04    0.57605E-05   -0.20308E-05  6048   0.496E-03    0.170E-02
DAV:   4    -0.308288564227E+04    0.59302E-06   -0.70545E-06  5056   0.370E-03    0.153E-02
DAV:   5    -0.308288564049E+04    0.17812E-05   -0.72947E-06  5024   0.375E-03
  66 F= -.31243102E+04 E0= -.31243102E+04  d E =-.330445E-03  mag=    -0.0000
       N       E                     dE             d eps       ncg     rms          rms(c)
DAV:   1    -0.308288562824E+04    0.14029E-04   -0.94062E-02  5952   0.267E-01    0.772E-02
DAV:   2    -0.308288581812E+04   -0.18987E-03   -0.22482E-03  7168   0.391E-02    0.380E-02
DAV:   3    -0.308288580517E+04    0.12945E-04   -0.45963E-05  6880   0.733E-03    0.249E-02
DAV:   4    -0.308288580352E+04    0.16552E-05   -0.15503E-05  5728   0.540E-03    0.216E-02
DAV:   5    -0.308288579940E+04    0.41176E-05   -0.14091E-05  5472   0.528E-03
  67 F= -.31243104E+04 E0= -.31243104E+04  d E =-.536704E-03  mag=    -0.0000
       N       E                     dE             d eps       ncg     rms          rms(c)
DAV:   1    -0.308288609375E+04   -0.29023E-03   -0.67722E-02  5952   0.226E-01    0.672E-02
DAV:   2    -0.308288623168E+04   -0.13793E-03   -0.16487E-03  7168   0.334E-02    0.325E-02
DAV:   3    -0.308288622206E+04    0.96132E-05   -0.34251E-05  6720   0.640E-03    0.213E-02
DAV:   4    -0.308288622079E+04    0.12676E-05   -0.11215E-05  5248   0.468E-03    0.181E-02
DAV:   5    -0.308288621855E+04    0.22482E-05   -0.10256E-05  5088   0.464E-03
  68 F= -.31243109E+04 E0= -.31243109E+04  d E =-.481787E-03  mag=    -0.0000
       N       E                     dE             d eps       ncg     rms          rms(c)
DAV:   1    -0.308288612335E+04    0.97445E-04   -0.13351E-01  5952   0.317E-01    0.942E-02
DAV:   2    -0.308288639548E+04   -0.27213E-03   -0.32440E-03  7168   0.468E-02    0.450E-02
DAV:   3    -0.308288637595E+04    0.19530E-04   -0.67010E-05  7296   0.890E-03    0.298E-02
DAV:   4    -0.308288637354E+04    0.24115E-05   -0.23318E-05  6208   0.658E-03    0.248E-02
DAV:   5    -0.308288636818E+04    0.53633E-05   -0.18957E-05  6080   0.619E-03
  69 F= -.31243111E+04 E0= -.31243111E+04  d E =-.719379E-03  mag=    -0.0000
       N       E                     dE             d eps       ncg     rms          rms(c)
DAV:   1    -0.308288663952E+04   -0.26598E-03   -0.75224E-02  5952   0.236E-01    0.675E-02
DAV:   2    -0.308288679343E+04   -0.15391E-03   -0.18069E-03  7136   0.344E-02    0.340E-02
DAV:   3    -0.308288678463E+04    0.88008E-05   -0.35536E-05  6784   0.631E-03    0.231E-02
DAV:   4    -0.308288678352E+04    0.11102E-05   -0.10931E-05  5504   0.448E-03    0.197E-02
DAV:   5    -0.308288678129E+04    0.22289E-05   -0.12132E-05  5376   0.469E-03
  70 F= -.31243116E+04 E0= -.31243116E+04  d E =-.460457E-03  mag=    -0.0000
       N       E                     dE             d eps       ncg     rms          rms(c)
DAV:   1    -0.308288652255E+04    0.26097E-03   -0.25581E-01  5952   0.435E-01    0.123E-01
DAV:   2    -0.308288704746E+04   -0.52491E-03   -0.61202E-03  7168   0.633E-02    0.616E-02
DAV:   3    -0.308288701568E+04    0.31777E-04   -0.11559E-04  7264   0.112E-02    0.415E-02
DAV:   4    -0.308288701152E+04    0.41638E-05   -0.38466E-05  6720   0.823E-03    0.337E-02
DAV:   5    -0.308288700271E+04    0.88115E-05   -0.37157E-05  6432   0.802E-03
  71 F= -.31243119E+04 E0= -.31243119E+04  d E =-.769185E-03  mag=    -0.0000
       N       E                     dE             d eps       ncg     rms          rms(c)
DAV:   1    -0.308288728924E+04   -0.27772E-03   -0.86834E-02  5984   0.253E-01    0.743E-02
DAV:   2    -0.308288746693E+04   -0.17770E-03   -0.21228E-03  7168   0.373E-02    0.370E-02
DAV:   3    -0.308288745680E+04    0.10137E-04   -0.45228E-05  6912   0.694E-03    0.247E-02
DAV:   4    -0.308288745510E+04    0.16975E-05   -0.12462E-05  5424   0.468E-03    0.196E-02
DAV:   5    -0.308288745396E+04    0.11401E-05   -0.13682E-05  5568   0.476E-03
  72 F= -.31243124E+04 E0= -.31243124E+04  d E =-.478886E-03  mag=     0.0000
       N       E                     dE             d eps       ncg     rms          rms(c)
DAV:   1    -0.308288734041E+04    0.11468E-03   -0.17101E-01  5952   0.355E-01    0.103E-01
DAV:   2    -0.308288769223E+04   -0.35182E-03   -0.41580E-03  7104   0.522E-02    0.509E-02
DAV:   3    -0.308288767129E+04    0.20942E-04   -0.84843E-05  7264   0.944E-03    0.347E-02
DAV:   4    -0.308288766890E+04    0.23927E-05   -0.26483E-05  6432   0.667E-03    0.280E-02
DAV:   5    -0.308288766405E+04    0.48509E-05   -0.25086E-05  6144   0.650E-03
  73 F= -.31243126E+04 E0= -.31243126E+04  d E =-.727756E-03  mag=     0.0000
       N       E                     dE             d eps       ncg     rms          rms(c)
DAV:   1    -0.308288800771E+04   -0.33881E-03   -0.73703E-02  5952   0.234E-01    0.756E-02
DAV:   2    -0.308288816259E+04   -0.15488E-03   -0.18782E-03  7232   0.355E-02    0.361E-02
DAV:   3    -0.308288815154E+04    0.11051E-04   -0.42105E-05  6752   0.723E-03    0.248E-02
DAV:   4    -0.308288815020E+04    0.13392E-05   -0.14639E-05  5856   0.507E-03    0.208E-02
DAV:   5    -0.308288814745E+04    0.27472E-05   -0.13315E-05  5568   0.500E-03
  74 F= -.31243131E+04 E0= -.31243131E+04  d E =-.525581E-03  mag=     0.0000
       N       E                     dE             d eps       ncg     rms          rms(c)
DAV:   1    -0.308288816569E+04   -0.15487E-04   -0.68117E-02  5984   0.225E-01    0.728E-02
DAV:   2    -0.308288830815E+04   -0.14247E-03   -0.17293E-03  7264   0.341E-02    0.344E-02
DAV:   3    -0.308288829737E+04    0.10784E-04   -0.38783E-05  6736   0.692E-03    0.234E-02
DAV:   4    -0.308288829561E+04    0.17616E-05   -0.12772E-05  5440   0.487E-03    0.187E-02
DAV:   5    -0.308288829303E+04    0.25710E-05   -0.11791E-05  5312   0.485E-03
  75 F= -.31243133E+04 E0= -.31243133E+04  d E =-.711713E-03  mag=    -0.0000
       N       E                     dE             d eps       ncg     rms          rms(c)
DAV:   1    -0.308288857088E+04   -0.27527E-03   -0.83891E-02  5952   0.250E-01    0.783E-02
DAV:   2    -0.308288874908E+04   -0.17820E-03   -0.21281E-03  7248   0.376E-02    0.382E-02
DAV:   3    -0.308288873592E+04    0.13161E-04   -0.41892E-05  6912   0.701E-03    0.259E-02
DAV:   4    -0.308288873447E+04    0.14497E-05   -0.16792E-05  5920   0.530E-03    0.210E-02
DAV:   5    -0.308288873173E+04    0.27371E-05   -0.14347E-05  5632   0.500E-03
  76 F= -.31243138E+04 E0= -.31243138E+04  d E =-.522853E-03  mag=    -0.0000
       N       E                     dE             d eps       ncg     rms          rms(c)
DAV:   1    -0.308288874386E+04   -0.93981E-05   -0.27527E-02  5984   0.143E-01    0.461E-02
DAV:   2    -0.308288880178E+04   -0.57919E-04   -0.70099E-04  7264   0.217E-02    0.229E-02
DAV:   3    -0.308288879783E+04    0.39571E-05   -0.15777E-05  5792   0.459E-03    0.162E-02
DAV:   4    -0.308288879704E+04    0.78388E-06   -0.53641E-06  4928   0.320E-03    0.130E-02
DAV:   5    -0.308288879622E+04    0.82265E-06   -0.56866E-06  5024   0.335E-03
  77 F= -.31243140E+04 E0= -.31243140E+04  d E =-.635542E-03  mag=    -0.0000
       N       E                     dE             d eps       ncg     rms          rms(c)
DAV:   1    -0.308288912371E+04   -0.32667E-03   -0.78730E-02  5952   0.244E-01    0.782E-02
DAV:   2    -0.308288928961E+04   -0.16589E-03   -0.20030E-03  7168   0.369E-02    0.362E-02
DAV:   3    -0.308288927545E+04    0.14153E-04   -0.40496E-05  6912   0.695E-03    0.243E-02
DAV:   4    -0.308288927252E+04    0.29292E-05   -0.16438E-05  5632   0.536E-03    0.184E-02
DAV:   5    -0.308288926943E+04    0.30912E-05   -0.11880E-05  5344   0.481E-03
  78 F= -.31243145E+04 E0= -.31243145E+04  d E =-.541598E-03  mag=    -0.0000
       N       E                     dE             d eps       ncg     rms          rms(c)
DAV:   1    -0.308288926437E+04    0.81488E-05   -0.35408E-02  5984   0.164E-01    0.538E-02
DAV:   2    -0.308288933804E+04   -0.73669E-04   -0.90417E-04  7296   0.249E-02    0.245E-02
DAV:   3    -0.308288933151E+04    0.65309E-05   -0.18515E-05  5760   0.491E-03    0.161E-02
DAV:   4    -0.308288933002E+04    0.14922E-05   -0.78756E-06  5056   0.378E-03    0.130E-02
DAV:   5    -0.308288932870E+04    0.13195E-05   -0.66378E-06  5024   0.356E-03
  79 F= -.31243146E+04 E0= -.31243146E+04  d E =-.646729E-03  mag=    -0.0000
       N       E                     dE             d eps       ncg     rms          rms(c)
DAV:   1    -0.308288955752E+04   -0.22750E-03   -0.72441E-02  5952   0.233E-01    0.715E-02
DAV:   2    -0.308288971005E+04   -0.15253E-03   -0.17998E-03  7264   0.345E-02    0.340E-02
DAV:   3    -0.308288969877E+04    0.11272E-04   -0.32736E-05  6592   0.624E-03    0.232E-02
DAV:   4    -0.308288969708E+04    0.16951E-05   -0.13318E-05  5440   0.483E-03    0.184E-02
DAV:   5    -0.308288969455E+04    0.25243E-05   -0.11360E-05  5280   0.468E-03
  80 F= -.31243150E+04 E0= -.31243150E+04  d E =-.432737E-03  mag=     0.0000
       N       E                     dE             d eps       ncg     rms          rms(c)
DAV:   1    -0.308288966251E+04    0.34572E-04   -0.67396E-02  5952   0.224E-01    0.697E-02
DAV:   2    -0.308288980354E+04   -0.14104E-03   -0.16744E-03  7264   0.334E-02    0.333E-02
DAV:   3    -0.308288979330E+04    0.10246E-04   -0.32796E-05  6464   0.635E-03    0.227E-02
DAV:   4    -0.308288979185E+04    0.14506E-05   -0.11938E-05  5312   0.464E-03    0.189E-02
DAV:   5    -0.308288978902E+04    0.28239E-05   -0.11215E-05  5248   0.475E-03
  81 F= -.31243152E+04 E0= -.31243152E+04  d E =-.591697E-03  mag=    -0.0000
       N       E                     dE             d eps       ncg     rms          rms(c)
DAV:   1    -0.308289002298E+04   -0.23114E-03   -0.89332E-02  5952   0.259E-01    0.844E-02
DAV:   2    -0.308289021142E+04   -0.18844E-03   -0.22828E-03  7168   0.394E-02    0.391E-02
DAV:   3    -0.308289019510E+04    0.16323E-04   -0.48429E-05  6944   0.769E-03    0.265E-02
DAV:   4    -0.308289019270E+04    0.23945E-05   -0.18236E-05  6016   0.568E-03    0.210E-02
DAV:   5    -0.308289018850E+04    0.42042E-05   -0.13560E-05  5568   0.527E-03
  82 F= -.31243157E+04 E0= -.31243157E+04  d E =-.505388E-03  mag=    -0.0000
       N       E                     dE             d eps       ncg     rms          rms(c)
DAV:   1    -0.308289016426E+04    0.28440E-04   -0.14794E-02  6080   0.105E-01    0.359E-02
DAV:   2    -0.308289019512E+04   -0.30858E-04   -0.37932E-04  7328   0.162E-02    0.174E-02
DAV:   3    -0.308289019290E+04    0.22177E-05   -0.10412E-05  5312   0.394E-03    0.131E-02
DAV:   4    -0.308289019187E+04    0.10398E-05   -0.32785E-06  4832   0.261E-03    0.951E-03
DAV:   5    -0.308289019130E+04    0.56310E-06   -0.30266E-06  5024   0.256E-03
  83 F= -.31243158E+04 E0= -.31243158E+04  d E =-.551328E-03  mag=    -0.0000
       N       E                     dE             d eps       ncg     rms          rms(c)
DAV:   1    -0.308289034832E+04   -0.15645E-03   -0.74461E-02  5952   0.235E-01    0.784E-02
DAV:   2    -0.308289050851E+04   -0.16019E-03   -0.19186E-03  7296   0.359E-02    0.366E-02
DAV:   3    -0.308289049524E+04    0.13275E-04   -0.40317E-05  6720   0.697E-03    0.245E-02
DAV:   4    -0.308289049339E+04    0.18504E-05   -0.15420E-05  5632   0.532E-03    0.199E-02
DAV:   5    -0.308289048930E+04    0.40832E-05   -0.12419E-05  5312   0.490E-03
  84 F= -.31243162E+04 E0= -.31243162E+04  d E =-.399922E-03  mag=    -0.0000
       N       E                     dE             d eps       ncg     rms          rms(c)
DAV:   1    -0.308289046931E+04    0.24080E-04   -0.12399E-02  6016   0.960E-02    0.335E-02
DAV:   2    -0.308289049565E+04   -0.26342E-04   -0.32247E-04  7328   0.148E-02    0.153E-02
DAV:   3    -0.308289049358E+04    0.20686E-05   -0.73289E-06  5056   0.325E-03    0.104E-02
DAV:   4    -0.308289049318E+04    0.40018E-06   -0.27807E-06  4832   0.237E-03    0.844E-03
DAV:   5    -0.308289049266E+04    0.51642E-06   -0.26171E-06  4896   0.237E-03
  85 F= -.31243162E+04 E0= -.31243162E+04  d E =-.444901E-03  mag=    -0.0000
       N       E                     dE             d eps       ncg     rms          rms(c)
DAV:   1    -0.308289065898E+04   -0.16580E-03   -0.83638E-02  5952   0.250E-01    0.825E-02
DAV:   2    -0.308289083848E+04   -0.17950E-03   -0.21456E-03  7232   0.379E-02    0.391E-02
DAV:   3    -0.308289082381E+04    0.14668E-04   -0.45214E-05  6752   0.751E-03    0.261E-02
DAV:   4    -0.308289082217E+04    0.16422E-05   -0.17541E-05  5792   0.562E-03    0.224E-02
DAV:   5    -0.308289081690E+04    0.52669E-05   -0.14335E-05  5440   0.527E-03
  86 F= -.31243166E+04 E0= -.31243166E+04  d E =-.430658E-03  mag=    -0.0000
       N       E                     dE             d eps       ncg     rms          rms(c)
DAV:   1    -0.308289079943E+04    0.22740E-04   -0.70884E-03  6144   0.727E-02    0.260E-02
DAV:   2    -0.308289081464E+04   -0.15212E-04   -0.18421E-04  7264   0.114E-02    0.143E-02
DAV:   3    -0.308289081376E+04    0.88522E-06   -0.71045E-06  5216   0.331E-03    0.109E-02
DAV:   4    -0.308289081258E+04    0.11773E-05   -0.18164E-06  4736   0.208E-03    0.657E-03
DAV:   5    -0.308289081247E+04    0.10658E-06   -0.14371E-06  4800   0.178E-03
  87 F= -.31243167E+04 E0= -.31243167E+04  d E =-.457267E-03  mag=    -0.0000
       N       E                     dE             d eps       ncg     rms          rms(c)
DAV:   1    -0.308289092850E+04   -0.11592E-03   -0.83430E-02  5952   0.249E-01    0.856E-02
DAV:   2    -0.308289110777E+04   -0.17926E-03   -0.21645E-03  7200   0.382E-02    0.402E-02
DAV:   3    -0.308289109266E+04    0.15110E-04   -0.48778E-05  6816   0.785E-03    0.267E-02
DAV:   4    -0.308289109002E+04    0.26347E-05   -0.16805E-05  5664   0.562E-03    0.225E-02
DAV:   5    -0.308289108426E+04    0.57639E-05   -0.14712E-05  5408   0.546E-03
  88 F= -.31243170E+04 E0= -.31243170E+04  d E =-.366080E-03  mag=    -0.0000
       N       E                     dE             d eps       ncg     rms          rms(c)
DAV:   1    -0.308289107340E+04    0.16620E-04   -0.24581E-03  6528   0.428E-02    0.168E-02
DAV:   2    -0.308289107867E+04   -0.52714E-05   -0.66046E-05  7072   0.699E-03    0.969E-03
DAV:   3    -0.308289107835E+04    0.32148E-06   -0.35226E-06  4864   0.236E-03    0.736E-03
DAV:   4    -0.308289107781E+04    0.54756E-06   -0.71965E-07  4576   0.142E-03    0.397E-03
DAV:   5    -0.308289107787E+04   -0.64436E-07   -0.46430E-07  4864   0.114E-03
  89 F= -.31243170E+04 E0= -.31243170E+04  d E =-.375946E-03  mag=    -0.0000
       N       E                     dE             d eps       ncg     rms          rms(c)
DAV:   1    -0.308289120446E+04   -0.12666E-03   -0.73628E-02  5952   0.235E-01    0.813E-02
DAV:   2    -0.308289136226E+04   -0.15779E-03   -0.19244E-03  7168   0.362E-02    0.388E-02
DAV:   3    -0.308289134772E+04    0.14541E-04   -0.45007E-05  6784   0.760E-03    0.252E-02
DAV:   4    -0.308289134547E+04    0.22423E-05   -0.16917E-05  5728   0.562E-03    0.219E-02
DAV:   5    -0.308289133990E+04    0.55768E-05   -0.13641E-05  5440   0.521E-03
  90 F= -.31243174E+04 E0= -.31243174E+04  d E =-.359067E-03  mag=    -0.0000
       N       E                     dE             d eps       ncg     rms          rms(c)
DAV:   1    -0.308289132775E+04    0.17721E-04   -0.29073E-03  6272   0.466E-02    0.181E-02
DAV:   2    -0.308289133393E+04   -0.61733E-05   -0.77902E-05  7264   0.755E-03    0.104E-02
DAV:   3    -0.308289133348E+04    0.44599E-06   -0.36810E-06  4800   0.244E-03    0.772E-03
DAV:   4    -0.308289133289E+04    0.59226E-06   -0.90945E-07  4608   0.154E-03    0.457E-03
DAV:   5    -0.308289133285E+04    0.34284E-07   -0.60291E-07  4864   0.128E-03
  91 F= -.31243174E+04 E0= -.31243174E+04  d E =-.371386E-03  mag=    -0.0000
       N       E                     dE             d eps       ncg     rms          rms(c)
DAV:   1    -0.308289141684E+04   -0.83951E-04   -0.65938E-02  5952   0.221E-01    0.761E-02
DAV:   2    -0.308289155804E+04   -0.14120E-03   -0.16979E-03  7200   0.337E-02    0.360E-02
DAV:   3    -0.308289154659E+04    0.11447E-04   -0.36534E-05  6640   0.676E-03    0.235E-02
DAV:   4    -0.308289154489E+04    0.17014E-05   -0.13699E-05  5536   0.508E-03    0.204E-02
DAV:   5    -0.308289154084E+04    0.40466E-05   -0.12752E-05  5408   0.491E-03
  92 F= -.31243177E+04 E0= -.31243177E+04  d E =-.338341E-03  mag=    -0.0000
       N       E                     dE             d eps       ncg     rms          rms(c)
DAV:   1    -0.308289151505E+04    0.29842E-04   -0.55155E-03  6144   0.640E-02    0.238E-02
DAV:   2    -0.308289152684E+04   -0.11791E-04   -0.14505E-04  7296   0.100E-02    0.122E-02
DAV:   3    -0.308289152617E+04    0.66531E-06   -0.48405E-06  5056   0.272E-03    0.867E-03
DAV:   4    -0.308289152564E+04    0.53563E-06   -0.13243E-06  4736   0.179E-03    0.605E-03
DAV:   5    -0.308289152555E+04    0.83935E-07   -0.11425E-06  4800   0.163E-03
  93 F= -.31243178E+04 E0= -.31243178E+04  d E =-.360816E-03  mag=    -0.0000
       N       E                     dE             d eps       ncg     rms          rms(c)
DAV:   1    -0.308289159630E+04   -0.70660E-04   -0.64981E-02  5952   0.220E-01    0.765E-02
DAV:   2    -0.308289173502E+04   -0.13873E-03   -0.17045E-03  7200   0.340E-02    0.361E-02
DAV:   3    -0.308289172239E+04    0.12635E-04   -0.39536E-05  6656   0.708E-03    0.235E-02
DAV:   4    -0.308289172039E+04    0.20050E-05   -0.14731E-05  5728   0.522E-03    0.206E-02
DAV:   5    -0.308289171566E+04    0.47290E-05   -0.12175E-05  5408   0.488E-03
  94 F= -.31243181E+04 E0= -.31243181E+04  d E =-.369535E-03  mag=    -0.0000
       N       E                     dE             d eps       ncg     rms          rms(c)
DAV:   1    -0.308289167328E+04    0.47105E-04   -0.59648E-03  6144   0.665E-02    0.250E-02
DAV:   2    -0.308289168579E+04   -0.12508E-04   -0.15885E-04  7344   0.106E-02    0.130E-02
DAV:   3    -0.308289168491E+04    0.87789E-06   -0.58838E-06  5136   0.301E-03    0.967E-03
DAV:   4    -0.308289168409E+04    0.81956E-06   -0.16208E-06  4800   0.196E-03    0.639E-03
DAV:   5    -0.308289168381E+04    0.27905E-06   -0.13160E-06  4832   0.174E-03
  95 F= -.31243182E+04 E0= -.31243182E+04  d E =-.392200E-03  mag=    -0.0000
       N       E                     dE             d eps       ncg     rms          rms(c)
DAV:   1    -0.308289167505E+04    0.90407E-05   -0.68280E-02  5952   0.224E-01    0.747E-02
DAV:   2    -0.308289182136E+04   -0.14631E-03   -0.17505E-03  7168   0.339E-02    0.356E-02
DAV:   3    -0.308289180929E+04    0.12063E-04   -0.34427E-05  6560   0.644E-03    0.233E-02
DAV:   4    -0.308289180720E+04    0.20955E-05   -0.13735E-05  5600   0.498E-03    0.203E-02
DAV:   5    -0.308289180274E+04    0.44531E-05   -0.12407E-05  5424   0.482E-03
  96 F= -.31243185E+04 E0= -.31243185E+04  d E =-.322242E-03  mag=    -0.0000
       N       E                     dE             d eps       ncg     rms          rms(c)
DAV:   1    -0.308289176147E+04    0.45730E-04   -0.42047E-03  6144   0.556E-02    0.203E-02
DAV:   2    -0.308289177027E+04   -0.88041E-05   -0.11002E-04  7264   0.869E-03    0.108E-02
DAV:   3    -0.308289176975E+04    0.52515E-06   -0.37912E-06  5024   0.240E-03    0.809E-03
DAV:   4    -0.308289176917E+04    0.57626E-06   -0.98281E-07  4704   0.156E-03    0.516E-03
DAV:   5    -0.308289176907E+04    0.10314E-06   -0.80679E-07  4896   0.141E-03
  97 F= -.31243185E+04 E0= -.31243185E+04  d E =-.339079E-03  mag=    -0.0000
       N       E                     dE             d eps       ncg     rms          rms(c)
DAV:   1    -0.308289174857E+04    0.20601E-04   -0.74198E-02  5952   0.234E-01    0.823E-02
DAV:   2    -0.308289190490E+04   -0.15633E-03   -0.19038E-03  7200   0.356E-02    0.368E-02
DAV:   3    -0.308289189063E+04    0.14276E-04   -0.39446E-05  6944   0.697E-03    0.240E-02
DAV:   4    -0.308289188819E+04    0.24393E-05   -0.16737E-05  5728   0.551E-03    0.203E-02
DAV:   5    -0.308289188378E+04    0.44085E-05   -0.12346E-05  5440   0.494E-03
  98 F= -.31243188E+04 E0= -.31243188E+04  d E =-.340817E-03  mag=    -0.0000
