       N       E                     dE             d eps       ncg     rms          rms(c)
DAV:   1     0.193799083972E+05    0.19380E+05   -0.79147E+05  5952   0.106E+03
DAV:   2     0.301417924940E+03   -0.19078E+05   -0.18339E+05  8064   0.278E+02
DAV:   3    -0.305395734200E+04   -0.33554E+04   -0.33371E+04  6912   0.124E+02
DAV:   4    -0.314649654290E+04   -0.92539E+02   -0.92166E+02  7200   0.239E+01
DAV:   5    -0.314842366372E+04   -0.19271E+01   -0.19241E+01  7488   0.319E+00    0.196E+02
DAV:   6    -0.154165306686E+04    0.16068E+04   -0.32099E+03  6816   0.441E+01    0.898E+01
DAV:   7    -0.168222372177E+04   -0.14057E+03   -0.39716E+02  7392   0.138E+01    0.619E+01
DAV:   8    -0.169265891241E+04   -0.10435E+02   -0.10792E+02  7296   0.593E+00    0.463E+01
DAV:   9    -0.181502372863E+04   -0.12236E+03   -0.83385E+01  7296   0.570E+00    0.389E+01
DAV:  10    -0.197347663935E+04   -0.15845E+03   -0.10084E+02  7200   0.549E+00    0.336E+01
DAV:  11    -0.216000121516E+04   -0.18652E+03   -0.73686E+01  7104   0.585E+00    0.284E+01
DAV:  12    -0.237432033101E+04   -0.21432E+03   -0.83364E+01  7296   0.664E+00    0.233E+01
DAV:  13    -0.269558599248E+04   -0.32127E+03   -0.22801E+02  6912   0.102E+01    0.167E+01
DAV:  14    -0.287403561717E+04   -0.17845E+03   -0.15389E+02  6720   0.724E+00    0.115E+01
DAV:  15    -0.291828879018E+04   -0.44253E+02   -0.23442E+01  7104   0.300E+00    0.966E+00
DAV:  16    -0.293836823100E+04   -0.20079E+02   -0.63848E+00  6816   0.179E+00    0.789E+00
DAV:  17    -0.294935354989E+04   -0.10985E+02   -0.27572E+00  7008   0.119E+00    0.658E+00
DAV:  18    -0.295677060881E+04   -0.74171E+01   -0.19440E+00  6816   0.999E-01    0.539E+00
DAV:  19    -0.296226407011E+04   -0.54935E+01   -0.15173E+00  6816   0.844E-01    0.421E+00
DAV:  20    -0.296659176906E+04   -0.43277E+01   -0.12539E+00  6624   0.714E-01    0.307E+00
DAV:  21    -0.296973837676E+04   -0.31466E+01   -0.84117E-01  6432   0.539E-01    0.230E+00
DAV:  22    -0.297031196951E+04   -0.57359E+00   -0.32329E-01  6816   0.363E-01    0.137E+00
DAV:  23    -0.297139208824E+04   -0.10801E+01   -0.10098E-01  6912   0.269E-01    0.860E-01
DAV:  24    -0.297325636382E+04   -0.18643E+01   -0.59331E-02  6720   0.227E-01    0.530E-01
DAV:  25    -0.297457484014E+04   -0.13185E+01   -0.26387E-02  7008   0.147E-01    0.355E-01
DAV:  26    -0.297548947513E+04   -0.91463E+00   -0.15358E-02  6912   0.107E-01    0.215E-01
DAV:  27    -0.297601319202E+04   -0.52372E+00   -0.95943E-03  6912   0.887E-02    0.117E-01
DAV:  28    -0.297619697419E+04   -0.18378E+00   -0.32740E-03  7200   0.538E-02    0.701E-02
DAV:  29    -0.297623569390E+04   -0.38720E-01   -0.54303E-04  7008   0.223E-02    0.497E-02
DAV:  30    -0.297625029996E+04   -0.14606E-01   -0.22956E-04  7200   0.139E-02    0.304E-02
DAV:  31    -0.297626044228E+04   -0.10142E-01   -0.15999E-04  6816   0.104E-02    0.173E-02
DAV:  32    -0.297626329574E+04   -0.28535E-02   -0.33602E-05  6720   0.614E-03    0.129E-02
DAV:  33    -0.297626588854E+04   -0.25928E-02   -0.15440E-05  5856   0.406E-03    0.924E-03
DAV:  34    -0.297626857934E+04   -0.26908E-02   -0.22989E-05  6336   0.416E-03    0.616E-03
DAV:  35    -0.297626993249E+04   -0.13531E-02   -0.84517E-06  5568   0.302E-03    0.442E-03
DAV:  36    -0.297627084719E+04   -0.91470E-03   -0.61484E-06  5760   0.239E-03    0.322E-03
DAV:  37    -0.297627107174E+04   -0.22455E-03    0.11471E-06  5184   0.124E-03    0.272E-03
DAV:  38    -0.297627121346E+04   -0.14172E-03    0.14700E-06  5184   0.957E-04    0.249E-03
DAV:  39    -0.297627126439E+04   -0.50929E-04    0.21688E-06  5184   0.694E-04    0.236E-03
DAV:  40    -0.297627127960E+04   -0.15213E-04    0.25013E-06  5280   0.448E-04    0.231E-03
DAV:  41    -0.297627129183E+04   -0.12225E-04    0.25833E-06  5088   0.335E-04    0.229E-03
DAV:  42    -0.297627129738E+04   -0.55541E-05    0.26699E-06  5280   0.233E-04
   1 F= -.30139429E+04 E0= -.30139429E+04  d E =-.301394E+04  mag=    -0.0000
       N       E                     dE             d eps       ncg     rms          rms(c)
DAV:   1    -0.297627083017E+04    0.46166E-03   -0.72487E-02  5952   0.908E-02    0.851E-02
DAV:   2    -0.297627082059E+04    0.95865E-05   -0.37994E-04  6144   0.863E-03    0.474E-02
DAV:   3    -0.297627081217E+04    0.84190E-05   -0.10572E-04  6240   0.419E-03    0.326E-02
DAV:   4    -0.297627080830E+04    0.38691E-05   -0.13168E-04  6912   0.416E-03    0.247E-02
DAV:   5    -0.297627080093E+04    0.73704E-05   -0.54292E-05  6240   0.278E-03
   2 F= -.30139426E+04 E0= -.30139426E+04  d E =0.322771E-03  mag=    -0.0000
       N       E                     dE             d eps       ncg     rms          rms(c)
DAV:   1    -0.297627336203E+04   -0.25537E-02   -0.14845E-01  5760   0.126E-01    0.117E-01
DAV:   2    -0.297627333954E+04    0.22489E-04   -0.56627E-04  5952   0.101E-02    0.652E-02
DAV:   3    -0.297627332419E+04    0.15352E-04   -0.18917E-04  6144   0.476E-03    0.459E-02
DAV:   4    -0.297627332176E+04    0.24320E-05   -0.32003E-04  6528   0.577E-03    0.315E-02
DAV:   5    -0.297627330702E+04    0.14740E-04   -0.12694E-04  6144   0.374E-03    0.108E-02
DAV:   6    -0.297627330649E+04    0.52847E-06   -0.39453E-06  5760   0.116E-03
   3 F= -.30139421E+04 E0= -.30139421E+04  d E =0.474616E-03  mag=    -0.0000
       N       E                     dE             d eps       ncg     rms          rms(c)
DAV:   1    -0.297627180980E+04    0.14972E-02   -0.14137E-01  5952   0.130E-01    0.109E-01
DAV:   2    -0.297627179036E+04    0.19436E-04   -0.62043E-04  5952   0.111E-02    0.578E-02
DAV:   3    -0.297627177443E+04    0.15931E-04   -0.11838E-04  6144   0.409E-03    0.374E-02
DAV:   4    -0.297627177836E+04   -0.39260E-05   -0.25070E-04  6336   0.530E-03    0.351E-02
DAV:   5    -0.297627176071E+04    0.17648E-04   -0.12765E-04  6336   0.379E-03    0.991E-03
DAV:   6    -0.297627176039E+04    0.31560E-06   -0.21130E-06  5376   0.106E-03
   4 F= -.30139426E+04 E0= -.30139426E+04  d E =-.467130E-03  mag=    -0.0000
       N       E                     dE             d eps       ncg     rms          rms(c)
DAV:   1    -0.297627185323E+04   -0.92517E-04   -0.14309E-01  5952   0.133E-01    0.124E-01
DAV:   2    -0.297627183229E+04    0.20941E-04   -0.75354E-04  5952   0.121E-02    0.648E-02
DAV:   3    -0.297627181790E+04    0.14382E-04   -0.19988E-04  6336   0.554E-03    0.483E-02
DAV:   4    -0.297627181296E+04    0.49422E-05   -0.27182E-04  6144   0.559E-03    0.354E-02
DAV:   5    -0.297627179817E+04    0.14789E-04   -0.13694E-04  6144   0.423E-03    0.132E-02
DAV:   6    -0.297627179700E+04    0.11688E-05   -0.15861E-05  5760   0.179E-03
   5 F= -.30139426E+04 E0= -.30139426E+04  d E =-.257314E-05  mag=    -0.0000
       N       E                     dE             d eps       ncg     rms          rms(c)
DAV:   1    -0.297627203739E+04   -0.23922E-03   -0.14210E-01  5952   0.130E-01    0.115E-01
DAV:   2    -0.297627202397E+04    0.13417E-04   -0.88158E-04  6144   0.123E-02    0.709E-02
DAV:   3    -0.297627201988E+04    0.40979E-05   -0.59744E-04  6336   0.834E-03    0.563E-02
DAV:   4    -0.297627198859E+04    0.31291E-04   -0.40985E-04  6336   0.655E-03    0.317E-02
DAV:   5    -0.297627197795E+04    0.10636E-04   -0.80672E-05  6144   0.339E-03    0.129E-02
DAV:   6    -0.297627197721E+04    0.73540E-06   -0.66645E-06  5760   0.148E-03
   6 F= -.30139423E+04 E0= -.30139423E+04  d E =0.251619E-03  mag=    -0.0000
       N       E                     dE             d eps       ncg     rms          rms(c)
DAV:   1    -0.297627100935E+04    0.96860E-03   -0.14577E-01  5952   0.128E-01    0.111E-01
DAV:   2    -0.297627098808E+04    0.21269E-04   -0.60443E-04  6144   0.109E-02    0.579E-02
DAV:   3    -0.297627097835E+04    0.97321E-05   -0.23959E-04  5952   0.547E-03    0.475E-02
DAV:   4    -0.297627096409E+04    0.14255E-04   -0.25401E-04  6528   0.542E-03    0.259E-02
DAV:   5    -0.297627095608E+04    0.80149E-05   -0.76125E-05  6144   0.304E-03
   7 F= -.30139426E+04 E0= -.30139426E+04  d E =-.312565E-03  mag=    -0.0000
       N       E                     dE             d eps       ncg     rms          rms(c)
DAV:   1    -0.297627138273E+04   -0.41864E-03   -0.14392E-01  5952   0.125E-01    0.124E-01
DAV:   2    -0.297627137461E+04    0.81234E-05   -0.94292E-04  5760   0.122E-02    0.771E-02
DAV:   3    -0.297627135854E+04    0.16072E-04   -0.35408E-04  6144   0.685E-03    0.457E-02
DAV:   4    -0.297627135393E+04    0.46060E-05   -0.40337E-04  6336   0.657E-03    0.453E-02
DAV:   5    -0.297627133111E+04    0.22818E-04   -0.17855E-04  6144   0.460E-03    0.171E-02
DAV:   6    -0.297627132837E+04    0.27465E-05   -0.19942E-05  6336   0.199E-03
   8 F= -.30139428E+04 E0= -.30139428E+04  d E =-.108584E-03  mag=    -0.0000
       N       E                     dE             d eps       ncg     rms          rms(c)
DAV:   1    -0.297627076692E+04    0.56420E-03   -0.14203E-01  5760   0.114E-01    0.109E-01
DAV:   2    -0.297627073775E+04    0.29165E-04   -0.78988E-04  5952   0.112E-02    0.557E-02
DAV:   3    -0.297627072404E+04    0.13717E-04   -0.22699E-04  6336   0.565E-03    0.380E-02
DAV:   4    -0.297627071432E+04    0.97195E-05   -0.23513E-04  6144   0.519E-03    0.322E-02
DAV:   5    -0.297627070143E+04    0.12890E-04   -0.92412E-05  6144   0.345E-03    0.123E-02
DAV:   6    -0.297627070025E+04    0.11764E-05   -0.11559E-05  5760   0.159E-03
   9 F= -.30139427E+04 E0= -.30139427E+04  d E =0.774178E-04  mag=    -0.0000
       N       E                     dE             d eps       ncg     rms          rms(c)
DAV:   1    -0.297627098942E+04   -0.28799E-03   -0.14335E-01  5760   0.115E-01    0.106E-01
DAV:   2    -0.297627096655E+04    0.22869E-04   -0.66410E-04  5952   0.104E-02    0.535E-02
DAV:   3    -0.297627094873E+04    0.17816E-04   -0.12237E-04  6336   0.410E-03    0.321E-02
DAV:   4    -0.297627094832E+04    0.41828E-06   -0.21450E-04  6336   0.485E-03    0.349E-02
DAV:   5    -0.297627093280E+04    0.15518E-04   -0.10308E-04  6144   0.345E-03    0.901E-03
DAV:   6    -0.297627093243E+04    0.36281E-06   -0.59275E-06  5760   0.124E-03
  10 F= -.30139426E+04 E0= -.30139426E+04  d E =0.908246E-04  mag=    -0.0000
       N       E                     dE             d eps       ncg     rms          rms(c)
DAV:   1    -0.297626993147E+04    0.10013E-02   -0.14459E-01  5760   0.134E-01    0.125E-01
DAV:   2    -0.297626988235E+04    0.49127E-04   -0.81703E-04  6144   0.120E-02    0.755E-02
DAV:   3    -0.297626985416E+04    0.28189E-04   -0.12497E-04  6336   0.471E-03    0.382E-02
DAV:   4    -0.297626985010E+04    0.40552E-05   -0.16012E-04  6336   0.565E-03    0.404E-02
DAV:   5    -0.297626983588E+04    0.14228E-04   -0.82430E-05  6336   0.372E-03    0.107E-02
DAV:   6    -0.297626983567E+04    0.20611E-06   -0.10864E-05  5760   0.144E-03
  11 F= -.30139424E+04 E0= -.30139424E+04  d E =0.177781E-03  mag=    -0.0000
       N       E                     dE             d eps       ncg     rms          rms(c)
DAV:   1    -0.297626922314E+04    0.61274E-03   -0.14181E-01  5760   0.133E-01    0.121E-01
DAV:   2    -0.297626916183E+04    0.61307E-04   -0.10009E-03  5856   0.123E-02    0.727E-02
DAV:   3    -0.297626912757E+04    0.34255E-04   -0.14198E-04  5952   0.433E-03    0.424E-02
DAV:   4    -0.297626912033E+04    0.72437E-05   -0.14449E-04  6048   0.501E-03    0.328E-02
DAV:   5    -0.297626910725E+04    0.13077E-04   -0.85826E-05  6144   0.377E-03    0.130E-02
DAV:   6    -0.297626910650E+04    0.75635E-06   -0.64043E-06  5376   0.118E-03
  12 F= -.30139424E+04 E0= -.30139424E+04  d E =0.489201E-04  mag=    -0.0000
       N       E                     dE             d eps       ncg     rms          rms(c)
DAV:   1    -0.297627134023E+04   -0.22330E-02   -0.14384E-01  5760   0.134E-01    0.126E-01
DAV:   2    -0.297627123711E+04    0.10312E-03   -0.11772E-03  5760   0.134E-02    0.804E-02
DAV:   3    -0.297627119206E+04    0.45051E-04   -0.17168E-04  5952   0.470E-03    0.427E-02
DAV:   4    -0.297627117898E+04    0.13085E-04   -0.10544E-04  6144   0.529E-03    0.356E-02
DAV:   5    -0.297627116766E+04    0.11318E-04   -0.51493E-05  6144   0.376E-03    0.121E-02
DAV:   6    -0.297627116735E+04    0.30827E-06   -0.59865E-06  5376   0.136E-03
  13 F= -.30139425E+04 E0= -.30139425E+04  d E =-.169632E-03  mag=    -0.0000
       N       E                     dE             d eps       ncg     rms          rms(c)
DAV:   1    -0.297627137961E+04   -0.21195E-03   -0.14206E-01  5760   0.137E-01    0.130E-01
DAV:   2    -0.297627132639E+04    0.53214E-04   -0.99720E-04  5952   0.132E-02    0.783E-02
DAV:   3    -0.297627128902E+04    0.37370E-04   -0.12066E-04  6336   0.475E-03    0.450E-02
DAV:   4    -0.297627128164E+04    0.73828E-05   -0.12020E-04  6336   0.554E-03    0.408E-02
DAV:   5    -0.297627126515E+04    0.16489E-04   -0.73877E-05  6144   0.415E-03    0.116E-02
DAV:   6    -0.297627126484E+04    0.30873E-06   -0.11100E-05  5568   0.149E-03
  14 F= -.30139425E+04 E0= -.30139425E+04  d E =0.390977E-04  mag=    -0.0000
       N       E                     dE             d eps       ncg     rms          rms(c)
DAV:   1    -0.297627031898E+04    0.94617E-03   -0.13955E-01  5568   0.135E-01    0.126E-01
DAV:   2    -0.297627028382E+04    0.35157E-04   -0.66572E-04  5760   0.113E-02    0.839E-02
DAV:   3    -0.297627025778E+04    0.26046E-04   -0.10442E-04  6240   0.451E-03    0.404E-02
DAV:   4    -0.297627025955E+04   -0.17709E-05   -0.21175E-04  6144   0.677E-03    0.471E-02
DAV:   5    -0.297627023914E+04    0.20409E-04   -0.11009E-04  6528   0.412E-03    0.129E-02
DAV:   6    -0.297627023842E+04    0.71811E-06   -0.40873E-06  5376   0.105E-03
  15 F= -.30139425E+04 E0= -.30139425E+04  d E =0.169557E-04  mag=    -0.0000
       N       E                     dE             d eps       ncg     rms          rms(c)
DAV:   1    -0.297627122666E+04   -0.98752E-03   -0.14345E-01  5568   0.137E-01    0.127E-01
DAV:   2    -0.297627113755E+04    0.89107E-04   -0.92592E-04  5952   0.123E-02    0.820E-02
DAV:   3    -0.297627109701E+04    0.40541E-04   -0.15909E-04  5952   0.458E-03    0.406E-02
DAV:   4    -0.297627109010E+04    0.69052E-05   -0.17989E-04  6144   0.629E-03    0.409E-02
DAV:   5    -0.297627107233E+04    0.17771E-04   -0.85780E-05  6336   0.398E-03    0.124E-02
DAV:   6    -0.297627107225E+04    0.77358E-07   -0.39642E-06  5376   0.108E-03
  16 F= -.30139425E+04 E0= -.30139425E+04  d E =0.506745E-05  mag=    -0.0000
       N       E                     dE             d eps       ncg     rms          rms(c)
DAV:   1    -0.297627136743E+04   -0.29510E-03   -0.97738E-02  5664   0.114E-01    0.108E-01
DAV:   2    -0.297627136646E+04    0.97277E-06   -0.10751E-03  5760   0.151E-02    0.758E-02
DAV:   3    -0.297627134330E+04    0.23153E-04   -0.99535E-05  6336   0.401E-03    0.419E-02
DAV:   4    -0.297627134486E+04   -0.15547E-05   -0.14495E-04  6144   0.479E-03    0.403E-02
DAV:   5    -0.297627132979E+04    0.15070E-04   -0.12253E-04  6720   0.402E-03    0.133E-02
DAV:   6    -0.297627132829E+04    0.15004E-05   -0.16562E-05  5952   0.166E-03
  17 F= -.30139428E+04 E0= -.30139428E+04  d E =-.360293E-03  mag=    -0.0000
       N       E                     dE             d eps       ncg     rms          rms(c)
DAV:   1    -0.297627107696E+04    0.25283E-03   -0.50984E-02  5472   0.712E-02    0.699E-02
DAV:   2    -0.297627112713E+04   -0.50167E-04   -0.75173E-04  5952   0.139E-02    0.678E-02
DAV:   3    -0.297627111718E+04    0.99521E-05   -0.10035E-04  6336   0.333E-03    0.378E-02
DAV:   4    -0.297627113875E+04   -0.21579E-04   -0.19981E-04  6144   0.439E-03    0.464E-02
DAV:   5    -0.297627111723E+04    0.21522E-04   -0.14090E-04  6144   0.381E-03    0.136E-02
DAV:   6    -0.297627111566E+04    0.15689E-05   -0.56386E-06  5760   0.131E-03
  18 F= -.30139429E+04 E0= -.30139429E+04  d E =-.578101E-04  mag=    -0.0000
       N       E                     dE             d eps       ncg     rms          rms(c)
DAV:   1    -0.297627127055E+04   -0.15331E-03   -0.50815E-02  5376   0.694E-02    0.770E-02
DAV:   2    -0.297627131060E+04   -0.40054E-04   -0.77875E-04  5760   0.140E-02    0.706E-02
DAV:   3    -0.297627129735E+04    0.13252E-04   -0.96350E-05  6144   0.412E-03    0.356E-02
DAV:   4    -0.297627131006E+04   -0.12713E-04   -0.11711E-04  6144   0.413E-03    0.416E-02
DAV:   5    -0.297627129579E+04    0.14267E-04   -0.87143E-05  6144   0.332E-03    0.171E-02
DAV:   6    -0.297627129351E+04    0.22823E-05   -0.12739E-05  5760   0.135E-03
  19 F= -.30139427E+04 E0= -.30139427E+04  d E =0.180427E-03  mag=    -0.0000
       N       E                     dE             d eps       ncg     rms          rms(c)
DAV:   1    -0.297627123271E+04    0.63079E-04   -0.51406E-02  5568   0.763E-02    0.974E-02
DAV:   2    -0.297627131296E+04   -0.80249E-04   -0.15111E-03  5952   0.200E-02    0.124E-01
DAV:   3    -0.297627126332E+04    0.49643E-04   -0.18076E-04  6144   0.537E-03    0.753E-02
DAV:   4    -0.297627130250E+04   -0.39183E-04   -0.14854E-04  6144   0.470E-03    0.759E-02
DAV:   5    -0.297627126333E+04    0.39170E-04   -0.24099E-04  6144   0.540E-03    0.239E-02
DAV:   6    -0.297627125906E+04    0.42786E-05   -0.35661E-05  6336   0.207E-03
  20 F= -.30139428E+04 E0= -.30139428E+04  d E =-.129922E-03  mag=    -0.0000
       N       E                     dE             d eps       ncg     rms          rms(c)
DAV:   1    -0.297627083979E+04    0.42354E-03   -0.52264E-02  5760   0.756E-02    0.912E-02
DAV:   2    -0.297627088305E+04   -0.43259E-04   -0.99030E-04  5952   0.171E-02    0.982E-02
DAV:   3    -0.297627085488E+04    0.28175E-04   -0.18969E-04  6336   0.503E-03    0.556E-02
DAV:   4    -0.297627089723E+04   -0.42357E-04   -0.31058E-04  6336   0.573E-03    0.671E-02
DAV:   5    -0.297627085571E+04    0.41521E-04   -0.27233E-04  6336   0.516E-03    0.217E-02
DAV:   6    -0.297627085232E+04    0.33900E-05   -0.21403E-05  6336   0.193E-03
  21 F= -.30139427E+04 E0= -.30139427E+04  d E =0.148972E-03  mag=    -0.0000
       N       E                     dE             d eps       ncg     rms          rms(c)
DAV:   1    -0.297627136449E+04   -0.50878E-03   -0.51567E-02  5760   0.733E-02    0.844E-02
DAV:   2    -0.297627141308E+04   -0.48586E-04   -0.94878E-04  5952   0.161E-02    0.887E-02
DAV:   3    -0.297627138817E+04    0.24911E-04   -0.17642E-04  6528   0.495E-03    0.484E-02
DAV:   4    -0.297627142154E+04   -0.33371E-04   -0.27987E-04  6336   0.550E-03    0.615E-02
DAV:   5    -0.297627138497E+04    0.36568E-04   -0.21851E-04  6336   0.462E-03    0.195E-02
DAV:   6    -0.297627138148E+04    0.34921E-05   -0.15132E-05  6336   0.165E-03
  22 F= -.30139429E+04 E0= -.30139429E+04  d E =-.190055E-03  mag=    -0.0000
       N       E                     dE             d eps       ncg     rms          rms(c)
DAV:   1    -0.297627117971E+04    0.20527E-03   -0.49882E-02  5760   0.707E-02    0.554E-02
DAV:   2    -0.297627123672E+04   -0.57019E-04   -0.71673E-04  6144   0.138E-02    0.688E-02
DAV:   3    -0.297627122880E+04    0.79227E-05   -0.26201E-05  6144   0.232E-03
  23 F= -.30139428E+04 E0= -.30139428E+04  d E =0.703318E-04  mag=    -0.0000
       N       E                     dE             d eps       ncg     rms          rms(c)
DAV:   1    -0.297627096709E+04    0.26963E-03   -0.50792E-02  5664   0.661E-02    0.794E-02
DAV:   2    -0.297627105581E+04   -0.88716E-04   -0.14119E-03  6336   0.171E-02    0.968E-02
DAV:   3    -0.297627100183E+04    0.53983E-04   -0.23713E-04  5760   0.595E-03    0.527E-02
DAV:   4    -0.297627101552E+04   -0.13694E-04   -0.71888E-05  5952   0.319E-03    0.465E-02
DAV:   5    -0.297627100155E+04    0.13967E-04   -0.10681E-04  6432   0.385E-03    0.147E-02
DAV:   6    -0.297627099818E+04    0.33739E-05   -0.21256E-05  5568   0.162E-03
  24 F= -.30139428E+04 E0= -.30139428E+04  d E =0.691488E-06  mag=    -0.0000
       N       E                     dE             d eps       ncg     rms          rms(c)
DAV:   1    -0.297627109823E+04   -0.96676E-04   -0.52148E-02  5664   0.660E-02    0.111E-01
DAV:   2    -0.297627115547E+04   -0.57239E-04   -0.94241E-04  6144   0.166E-02    0.108E-01
DAV:   3    -0.297627114168E+04    0.13794E-04   -0.64660E-05  5952   0.394E-03    0.669E-02
DAV:   4    -0.297627116676E+04   -0.25084E-04   -0.12484E-04  6528   0.465E-03    0.508E-02
DAV:   5    -0.297627114676E+04    0.20000E-04   -0.16264E-04  6528   0.480E-03    0.170E-02
DAV:   6    -0.297627114292E+04    0.38436E-05   -0.23507E-05  5952   0.162E-03
  25 F= -.30139427E+04 E0= -.30139427E+04  d E =0.107845E-03  mag=    -0.0000
       N       E                     dE             d eps       ncg     rms          rms(c)
DAV:   1    -0.297627135536E+04   -0.20860E-03   -0.51647E-02  5568   0.749E-02    0.111E-01
DAV:   2    -0.297627140604E+04   -0.50676E-04   -0.12139E-03  6336   0.194E-02    0.112E-01
DAV:   3    -0.297627137916E+04    0.26877E-04   -0.12467E-04  5856   0.518E-03    0.647E-02
DAV:   4    -0.297627140129E+04   -0.22125E-04   -0.13290E-04  6336   0.474E-03    0.608E-02
DAV:   5    -0.297627137655E+04    0.24742E-04   -0.16805E-04  6144   0.494E-03    0.205E-02
DAV:   6    -0.297627137247E+04    0.40816E-05   -0.21309E-05  6336   0.189E-03
  26 F= -.30139428E+04 E0= -.30139428E+04  d E =-.959189E-04  mag=    -0.0000
       N       E                     dE             d eps       ncg     rms          rms(c)
DAV:   1    -0.297627101948E+04    0.35706E-03   -0.51507E-02  5376   0.666E-02    0.603E-02
DAV:   2    -0.297627104915E+04   -0.29669E-04   -0.47802E-04  6144   0.125E-02    0.560E-02
DAV:   3    -0.297627104371E+04    0.54404E-05   -0.40228E-05  6336   0.294E-03
  27 F= -.30139429E+04 E0= -.30139429E+04  d E =-.706059E-04  mag=    -0.0000
       N       E                     dE             d eps       ncg     rms          rms(c)
DAV:   1    -0.297627122424E+04   -0.17509E-03   -0.52641E-02  5568   0.682E-02    0.699E-02
DAV:   2    -0.297627124699E+04   -0.22749E-04   -0.67284E-04  5952   0.152E-02    0.717E-02
DAV:   3    -0.297627122983E+04    0.17164E-04   -0.62751E-05  6336   0.413E-03    0.452E-02
DAV:   4    -0.297627123245E+04   -0.26216E-05   -0.16508E-05  6336   0.232E-03
  28 F= -.30139428E+04 E0= -.30139428E+04  d E =0.645006E-04  mag=    -0.0000
       N       E                     dE             d eps       ncg     rms          rms(c)
DAV:   1    -0.297627084841E+04    0.38142E-03   -0.53194E-02  5568   0.750E-02    0.844E-02
DAV:   2    -0.297627090634E+04   -0.57933E-04   -0.11622E-03  6336   0.182E-02    0.994E-02
DAV:   3    -0.297627087436E+04    0.31976E-04   -0.15320E-04  6336   0.512E-03    0.561E-02
DAV:   4    -0.297627089955E+04   -0.25188E-04   -0.12032E-04  6144   0.431E-03    0.630E-02
DAV:   5    -0.297627087130E+04    0.28254E-04   -0.14355E-04  6144   0.464E-03    0.135E-02
DAV:   6    -0.297627087114E+04    0.16019E-06   -0.36252E-06  5376   0.114E-03
  29 F= -.30139427E+04 E0= -.30139427E+04  d E =0.559927E-04  mag=    -0.0000
       N       E                     dE             d eps       ncg     rms          rms(c)
DAV:   1    -0.297627096763E+04   -0.96327E-04   -0.52497E-02  5664   0.720E-02    0.745E-02
DAV:   2    -0.297627098184E+04   -0.14218E-04   -0.10850E-03  6336   0.188E-02    0.107E-01
DAV:   3    -0.297627095204E+04    0.29798E-04   -0.73669E-05  6144   0.368E-03    0.776E-02
DAV:   4    -0.297627095607E+04   -0.40245E-05   -0.57288E-05  6144   0.283E-03
  30 F= -.30139428E+04 E0= -.30139428E+04  d E =-.507358E-04  mag=    -0.0000
       N       E                     dE             d eps       ncg     rms          rms(c)
DAV:   1    -0.297627130335E+04   -0.35130E-03   -0.51919E-02  5664   0.695E-02    0.543E-02
DAV:   2    -0.297627134668E+04   -0.43333E-04   -0.92550E-04  6336   0.161E-02    0.669E-02
DAV:   3    -0.297627131815E+04    0.28529E-04   -0.11063E-04  6336   0.470E-03    0.337E-02
DAV:   4    -0.297627132061E+04   -0.24633E-05   -0.23594E-05  6144   0.194E-03
  31 F= -.30139428E+04 E0= -.30139428E+04  d E =-.491522E-04  mag=    -0.0000
       N       E                     dE             d eps       ncg     rms          rms(c)
DAV:   1    -0.297627128663E+04    0.31522E-04   -0.51352E-02  5760   0.712E-02    0.547E-02
DAV:   2    -0.297627136287E+04   -0.76243E-04   -0.10504E-03  6144   0.147E-02    0.634E-02
DAV:   3    -0.297627133829E+04    0.24578E-04   -0.18234E-04  5952   0.476E-03    0.289E-02
DAV:   4    -0.297627134399E+04   -0.56999E-05   -0.70376E-05  5952   0.279E-03
  32 F= -.30139429E+04 E0= -.30139429E+04  d E =-.814770E-04  mag=    -0.0000
       N       E                     dE             d eps       ncg     rms          rms(c)
DAV:   1    -0.297627095847E+04    0.37982E-03   -0.50403E-02  5280   0.669E-02    0.285E-02
DAV:   2    -0.297627099657E+04   -0.38091E-04   -0.45186E-04  6144   0.105E-02    0.261E-02
DAV:   3    -0.297627099481E+04    0.17565E-05   -0.17010E-05  6144   0.158E-03
  33 F= -.30139428E+04 E0= -.30139428E+04  d E =0.127850E-03  mag=    -0.0000
       N       E                     dE             d eps       ncg     rms          rms(c)
DAV:   1    -0.297627127551E+04   -0.27895E-03   -0.52224E-02  5184   0.714E-02    0.906E-02
DAV:   2    -0.297627134373E+04   -0.68222E-04   -0.14025E-03  5952   0.173E-02    0.103E-01
DAV:   3    -0.297627130958E+04    0.34159E-04   -0.15730E-04  6432   0.465E-03    0.625E-02
DAV:   4    -0.297627134402E+04   -0.34441E-04   -0.23317E-04  6144   0.502E-03    0.601E-02
DAV:   5    -0.297627130759E+04    0.36430E-04   -0.25824E-04  6144   0.522E-03    0.265E-02
DAV:   6    -0.297627130202E+04    0.55618E-05   -0.21475E-05  6336   0.206E-03
  34 F= -.30139427E+04 E0= -.30139427E+04  d E =0.123482E-03  mag=    -0.0000
       N       E                     dE             d eps       ncg     rms          rms(c)
DAV:   1    -0.297627106790E+04    0.23968E-03   -0.53149E-02  5472   0.744E-02    0.965E-02
DAV:   2    -0.297627112285E+04   -0.54950E-04   -0.14938E-03  5952   0.209E-02    0.123E-01
DAV:   3    -0.297627109021E+04    0.32641E-04   -0.94253E-05  6144   0.475E-03    0.815E-02
DAV:   4    -0.297627109956E+04   -0.93441E-05   -0.40254E-05  5760   0.305E-03
  35 F= -.30139428E+04 E0= -.30139428E+04  d E =-.107979E-03  mag=    -0.0000
       N       E                     dE             d eps       ncg     rms          rms(c)
DAV:   1    -0.297627144338E+04   -0.35317E-03   -0.53540E-02  5184   0.706E-02    0.832E-02
DAV:   2    -0.297627149244E+04   -0.49063E-04   -0.15721E-03  5760   0.189E-02    0.980E-02
DAV:   3    -0.297627144587E+04    0.46567E-04   -0.23262E-04  5760   0.559E-03    0.502E-02
DAV:   4    -0.297627146472E+04   -0.18848E-04   -0.15955E-04  6144   0.430E-03    0.540E-02
DAV:   5    -0.297627144335E+04    0.21368E-04   -0.16064E-04  6336   0.421E-03    0.229E-02
DAV:   6    -0.297627143876E+04    0.45887E-05   -0.19105E-05  6144   0.196E-03
  36 F= -.30139427E+04 E0= -.30139427E+04  d E =0.491754E-04  mag=    -0.0000
       N       E                     dE             d eps       ncg     rms          rms(c)
DAV:   1    -0.297627143519E+04    0.81647E-05   -0.52873E-02  4992   0.634E-02    0.423E-02
DAV:   2    -0.297627146437E+04   -0.29183E-04   -0.50214E-04  5952   0.114E-02    0.465E-02
DAV:   3    -0.297627145786E+04    0.65131E-05   -0.41933E-05  6048   0.234E-03
  37 F= -.30139429E+04 E0= -.30139429E+04  d E =-.134371E-03  mag=    -0.0000
       N       E                     dE             d eps       ncg     rms          rms(c)
DAV:   1    -0.297627120186E+04    0.26252E-03   -0.52750E-02  5376   0.654E-02    0.699E-02
DAV:   2    -0.297627127482E+04   -0.72958E-04   -0.14260E-03  5952   0.168E-02    0.822E-02
DAV:   3    -0.297627123244E+04    0.42375E-04   -0.30308E-04  5952   0.611E-03    0.420E-02
DAV:   4    -0.297627123862E+04   -0.61763E-05   -0.84992E-05  5952   0.315E-03
  38 F= -.30139428E+04 E0= -.30139428E+04  d E =0.894930E-04  mag=    -0.0000
       N       E                     dE             d eps       ncg     rms          rms(c)
DAV:   1    -0.297627137575E+04   -0.14331E-03   -0.55240E-02  4992   0.637E-02    0.746E-02
DAV:   2    -0.297627141636E+04   -0.40612E-04   -0.99365E-04  6144   0.174E-02    0.924E-02
DAV:   3    -0.297627139013E+04    0.26230E-04   -0.67632E-05  6144   0.428E-03    0.538E-02
DAV:   4    -0.297627139789E+04   -0.77552E-05   -0.36005E-05  5952   0.292E-03
  39 F= -.30139428E+04 E0= -.30139428E+04  d E =-.324400E-04  mag=    -0.0000
       N       E                     dE             d eps       ncg     rms          rms(c)
DAV:   1    -0.297627130453E+04    0.85598E-04   -0.53917E-02  5088   0.603E-02    0.557E-02
DAV:   2    -0.297627134114E+04   -0.36606E-04   -0.50870E-04  5952   0.105E-02    0.357E-02
DAV:   3    -0.297627134022E+04    0.92527E-06   -0.44542E-05  6144   0.264E-03
  40 F= -.30139428E+04 E0= -.30139428E+04  d E =-.204006E-04  mag=    -0.0000
       N       E                     dE             d eps       ncg     rms          rms(c)
DAV:   1    -0.297627143502E+04   -0.93882E-04   -0.55218E-02  5184   0.610E-02    0.813E-02
DAV:   2    -0.297627147563E+04   -0.40608E-04   -0.14595E-03  5952   0.146E-02    0.771E-02
DAV:   3    -0.297627144599E+04    0.29636E-04   -0.18076E-04  5952   0.566E-03    0.358E-02
DAV:   4    -0.297627145081E+04   -0.48148E-05   -0.10264E-04  6336   0.399E-03    0.421E-02
DAV:   5    -0.297627144032E+04    0.10488E-04   -0.90997E-05  6720   0.314E-03    0.202E-02
DAV:   6    -0.297627143675E+04    0.35759E-05   -0.22508E-05  6144   0.189E-03
  41 F= -.30139427E+04 E0= -.30139427E+04  d E =0.945016E-04  mag=    -0.0000
       N       E                     dE             d eps       ncg     rms          rms(c)
DAV:   1    -0.297627141333E+04    0.26994E-04   -0.52886E-02  4992   0.525E-02    0.750E-02
DAV:   2    -0.297627145268E+04   -0.39354E-04   -0.12227E-03  5952   0.151E-02    0.108E-01
DAV:   3    -0.297627140903E+04    0.43648E-04   -0.84938E-05  5952   0.444E-03    0.638E-02
DAV:   4    -0.297627141581E+04   -0.67746E-05   -0.39897E-05  5760   0.253E-03
  42 F= -.30139430E+04 E0= -.30139430E+04  d E =-.228747E-03  mag=    -0.0000
       N       E                     dE             d eps       ncg     rms          rms(c)
DAV:   1    -0.297627130887E+04    0.10016E-03   -0.52806E-02  5184   0.536E-02    0.634E-02
DAV:   2    -0.297627135311E+04   -0.44241E-04   -0.11393E-03  5760   0.146E-02    0.931E-02
DAV:   3    -0.297627131318E+04    0.39929E-04   -0.82602E-05  5760   0.446E-03    0.503E-02
DAV:   4    -0.297627131433E+04   -0.11487E-05   -0.23070E-05  5568   0.193E-03
  43 F= -.30139427E+04 E0= -.30139427E+04  d E =0.212772E-03  mag=    -0.0000
       N       E                     dE             d eps       ncg     rms          rms(c)
DAV:   1    -0.297627128627E+04    0.26912E-04   -0.53504E-02  5568   0.590E-02    0.655E-02
DAV:   2    -0.297627132280E+04   -0.36530E-04   -0.11285E-03  5760   0.133E-02    0.642E-02
DAV:   3    -0.297627130321E+04    0.19596E-04   -0.92706E-05  5760   0.451E-03    0.304E-02
DAV:   4    -0.297627130416E+04   -0.95327E-06   -0.25141E-05  5760   0.245E-03
  44 F= -.30139428E+04 E0= -.30139428E+04  d E =-.890916E-04  mag=    -0.0000
       N       E                     dE             d eps       ncg     rms          rms(c)
DAV:   1    -0.297627140052E+04   -0.97313E-04   -0.51399E-02  5760   0.605E-02    0.446E-02
DAV:   2    -0.297627143374E+04   -0.33219E-04   -0.58195E-04  5952   0.126E-02    0.614E-02
DAV:   3    -0.297627141590E+04    0.17836E-04   -0.40923E-05  5760   0.334E-03    0.330E-02
DAV:   4    -0.297627141670E+04   -0.79430E-06   -0.14480E-05  5760   0.173E-03
  45 F= -.30139428E+04 E0= -.30139428E+04  d E =0.842882E-05  mag=    -0.0000
       N       E                     dE             d eps       ncg     rms          rms(c)
DAV:   1    -0.297627138210E+04    0.33804E-04   -0.57809E-02  5952   0.698E-02    0.107E-01
DAV:   2    -0.297627142112E+04   -0.39023E-04   -0.26344E-03  6336   0.264E-02    0.176E-01
DAV:   3    -0.297627130084E+04    0.12028E-03   -0.19685E-04  5952   0.693E-03    0.113E-01
DAV:   4    -0.297627130756E+04   -0.67200E-05   -0.68553E-05  6144   0.317E-03
  46 F= -.30139427E+04 E0= -.30139427E+04  d E =0.984662E-04  mag=    -0.0000
       N       E                     dE             d eps       ncg     rms          rms(c)
DAV:   1    -0.297627083124E+04    0.46961E-03   -0.54991E-02  6048   0.683E-02    0.908E-02
DAV:   2    -0.297627091569E+04   -0.84449E-04   -0.25824E-03  5952   0.241E-02    0.149E-01
DAV:   3    -0.297627080619E+04    0.10950E-03   -0.24241E-04  5952   0.761E-03    0.848E-02
DAV:   4    -0.297627081052E+04   -0.43284E-05   -0.59942E-05  6336   0.282E-03
  47 F= -.30139427E+04 E0= -.30139427E+04  d E =0.928680E-05  mag=    -0.0000
       N       E                     dE             d eps       ncg     rms          rms(c)
DAV:   1    -0.297627143475E+04   -0.62856E-03   -0.54842E-02  5184   0.574E-02    0.847E-02
DAV:   2    -0.297627154724E+04   -0.11249E-03   -0.26274E-03  5760   0.218E-02    0.142E-01
DAV:   3    -0.297627142931E+04    0.11793E-03   -0.29210E-04  5760   0.774E-03    0.734E-02
DAV:   4    -0.297627143499E+04   -0.56792E-05   -0.71225E-05  5952   0.300E-03
  48 F= -.30139429E+04 E0= -.30139429E+04  d E =-.208029E-03  mag=    -0.0000
       N       E                     dE             d eps       ncg     rms          rms(c)
DAV:   1    -0.297627129678E+04    0.13254E-03   -0.51033E-02  5088   0.548E-02    0.608E-02
DAV:   2    -0.297627136630E+04   -0.69520E-04   -0.96998E-04  5952   0.114E-02    0.550E-02
DAV:   3    -0.297627135433E+04    0.11967E-04   -0.17269E-04  6336   0.450E-03    0.373E-02
DAV:   4    -0.297627135371E+04    0.61438E-06   -0.96490E-05  6336   0.319E-03
  49 F= -.30139428E+04 E0= -.30139428E+04  d E =0.136380E-03  mag=    -0.0000
       N       E                     dE             d eps       ncg     rms          rms(c)
DAV:   1    -0.297627116990E+04    0.18443E-03   -0.51529E-02  5568   0.589E-02    0.624E-02
DAV:   2    -0.297627125268E+04   -0.82787E-04   -0.11750E-03  5760   0.150E-02    0.952E-02
DAV:   3    -0.297627122340E+04    0.29285E-04   -0.64710E-05  5952   0.412E-03    0.563E-02
DAV:   4    -0.297627122919E+04   -0.57874E-05   -0.16406E-05  5376   0.195E-03
  50 F= -.30139430E+04 E0= -.30139430E+04  d E =-.193720E-03  mag=    -0.0000
       N       E                     dE             d eps       ncg     rms          rms(c)
DAV:   1    -0.297627141276E+04   -0.18936E-03   -0.53063E-02  5376   0.566E-02    0.587E-02
DAV:   2    -0.297627144943E+04   -0.36670E-04   -0.92472E-04  6144   0.145E-02    0.863E-02
DAV:   3    -0.297627141616E+04    0.33276E-04   -0.70699E-05  6144   0.419E-03    0.478E-02
DAV:   4    -0.297627141642E+04   -0.26257E-06   -0.17983E-05  5760   0.186E-03
  51 F= -.30139428E+04 E0= -.30139428E+04  d E =0.195269E-03  mag=    -0.0000
       N       E                     dE             d eps       ncg     rms          rms(c)
DAV:   1    -0.297627129357E+04    0.12259E-03   -0.57794E-02  5664   0.680E-02    0.103E-01
DAV:   2    -0.297627134142E+04   -0.47850E-04   -0.28587E-03  6528   0.261E-02    0.179E-01
DAV:   3    -0.297627122106E+04    0.12036E-03   -0.19669E-04  6144   0.668E-03    0.117E-01
DAV:   4    -0.297627121667E+04    0.43869E-05   -0.67633E-05  5952   0.282E-03
  52 F= -.30139427E+04 E0= -.30139427E+04  d E =0.999082E-04  mag=    -0.0000
