       N       E                     dE             d eps       ncg     rms          rms(c)
DAV:   1    -0.306105783735E+04   -0.30611E+04   -0.32726E-05  5472   0.685E-03    0.237E-02
DAV:   2    -0.306105785567E+04   -0.18313E-04   -0.17597E-04  6304   0.829E-03    0.401E-02
DAV:   3    -0.306105782589E+04    0.29772E-04   -0.70165E-05  5696   0.502E-03    0.415E-03
DAV:   4    -0.306105782565E+04    0.24220E-06   -0.17153E-06  4928   0.899E-04    0.163E-03
DAV:   5    -0.306105782565E+04    0.64028E-08   -0.22324E-07  4288   0.549E-04
   1 F= -.31022948E+04 E0= -.31022948E+04  d E =-.310229E+04  mag=    -0.0000
       N       E                     dE             d eps       ncg     rms          rms(c)
DAV:   1    -0.306105403540E+04    0.37902E-02   -0.76400E-01  5888   0.791E-01    0.344E-01
DAV:   2    -0.306105545501E+04   -0.14196E-02   -0.20736E-02  7200   0.125E-01    0.122E-01
DAV:   3    -0.306105510924E+04    0.34577E-03   -0.69756E-04  7296   0.338E-02    0.688E-02
DAV:   4    -0.306105500680E+04    0.10243E-03   -0.38899E-04  7168   0.266E-02    0.424E-02
DAV:   5    -0.306105499247E+04    0.14330E-04   -0.21484E-04  7168   0.156E-02    0.316E-02
DAV:   6    -0.306105497941E+04    0.13061E-04   -0.24170E-05  5472   0.683E-03    0.172E-02
DAV:   7    -0.306105497492E+04    0.44954E-05   -0.91757E-06  5120   0.516E-03
   2 F= -.31022922E+04 E0= -.31022922E+04  d E =0.265601E-02  mag=    -0.0000
       N       E                     dE             d eps       ncg     rms          rms(c)
DAV:   1    -0.306105768852E+04   -0.27091E-02   -0.41695E-01  5888   0.584E-01    0.253E-01
DAV:   2    -0.306105846442E+04   -0.77590E-03   -0.11299E-02  7200   0.918E-02    0.911E-02
DAV:   3    -0.306105828355E+04    0.18088E-03   -0.38643E-04  7200   0.244E-02    0.518E-02
DAV:   4    -0.306105824682E+04    0.36726E-04   -0.25345E-04  7136   0.191E-02    0.394E-02
DAV:   5    -0.306105822948E+04    0.17345E-04   -0.14203E-04  7232   0.113E-02    0.223E-02
DAV:   6    -0.306105822330E+04    0.61762E-05   -0.17273E-05  5056   0.496E-03
   3 F= -.31022953E+04 E0= -.31022953E+04  d E =-.448455E-03  mag=    -0.0000
       N       E                     dE             d eps       ncg     rms          rms(c)
DAV:   1    -0.306105718329E+04    0.10462E-02   -0.34130E-01  5888   0.527E-01    0.159E-01
DAV:   2    -0.306105783208E+04   -0.64880E-03   -0.79942E-03  7232   0.765E-02    0.726E-02
DAV:   3    -0.306105776368E+04    0.68399E-04   -0.21624E-04  7232   0.162E-02    0.459E-02
DAV:   4    -0.306105775465E+04    0.90339E-05   -0.14635E-04  7072   0.119E-02    0.418E-02
DAV:   5    -0.306105773209E+04    0.22563E-04   -0.89172E-05  6272   0.937E-03    0.142E-02
DAV:   6    -0.306105773050E+04    0.15850E-05   -0.19875E-05  5376   0.502E-03
   4 F= -.31022952E+04 E0= -.31022952E+04  d E =0.829923E-04  mag=    -0.0000
       N       E                     dE             d eps       ncg     rms          rms(c)
DAV:   1    -0.306105813807E+04   -0.40599E-03   -0.11095E-01  5888   0.300E-01    0.879E-02
DAV:   2    -0.306105834767E+04   -0.20960E-03   -0.25766E-03  7136   0.433E-02    0.416E-02
DAV:   3    -0.306105832455E+04    0.23116E-04   -0.65226E-05  7136   0.877E-03    0.262E-02
DAV:   4    -0.306105832165E+04    0.29050E-05   -0.44920E-05  6048   0.662E-03    0.238E-02
DAV:   5    -0.306105831441E+04    0.72351E-05   -0.28796E-05  5504   0.530E-03
   5 F= -.31022955E+04 E0= -.31022955E+04  d E =-.267282E-03  mag=    -0.0000
       N       E                     dE             d eps       ncg     rms          rms(c)
DAV:   1    -0.306105804688E+04    0.27476E-03   -0.13633E-01  5888   0.329E-01    0.984E-02
DAV:   2    -0.306105831362E+04   -0.26673E-03   -0.32100E-03  7232   0.476E-02    0.433E-02
DAV:   3    -0.306105828575E+04    0.27872E-04   -0.65407E-05  7200   0.914E-03    0.270E-02
DAV:   4    -0.306105828080E+04    0.49513E-05   -0.52134E-05  6784   0.801E-03    0.218E-02
DAV:   5    -0.306105827527E+04    0.55273E-05   -0.31655E-05  5472   0.529E-03
   6 F= -.31022958E+04 E0= -.31022958E+04  d E =-.311919E-03  mag=     0.0000
       N       E                     dE             d eps       ncg     rms          rms(c)
DAV:   1    -0.306105832618E+04   -0.45380E-04   -0.23578E-03  6272   0.434E-02    0.111E-02
DAV:   2    -0.306105833075E+04   -0.45744E-05   -0.56440E-05  6976   0.636E-03    0.720E-03
DAV:   3    -0.306105833023E+04    0.52579E-06   -0.21325E-06  4864   0.138E-03    0.526E-03
DAV:   4    -0.306105833004E+04    0.18027E-06   -0.11095E-06  4672   0.943E-04    0.383E-03
DAV:   5    -0.306105832992E+04    0.12206E-06   -0.84819E-07  4864   0.103E-03
   7 F= -.31022958E+04 E0= -.31022958E+04  d E =-.320558E-03  mag=     0.0000
       N       E                     dE             d eps       ncg     rms          rms(c)
DAV:   1    -0.306105810774E+04    0.22231E-03   -0.10286E-01  5888   0.284E-01    0.858E-02
DAV:   2    -0.306105831090E+04   -0.20316E-03   -0.24313E-03  7168   0.411E-02    0.371E-02
DAV:   3    -0.306105829216E+04    0.18740E-04   -0.49939E-05  6976   0.770E-03    0.232E-02
DAV:   4    -0.306105828851E+04    0.36488E-05   -0.32853E-05  5792   0.641E-03    0.184E-02
DAV:   5    -0.306105828576E+04    0.27471E-05   -0.21301E-05  5152   0.453E-03
   8 F= -.31022961E+04 E0= -.31022961E+04  d E =-.295937E-03  mag=     0.0000
       N       E                     dE             d eps       ncg     rms          rms(c)
DAV:   1    -0.306105828293E+04    0.55821E-05   -0.87713E-06  4992   0.305E-03    0.504E-03
DAV:   2    -0.306105828295E+04   -0.23923E-07   -0.21032E-06  4800   0.167E-03    0.448E-03
DAV:   3    -0.306105828285E+04    0.10466E-06   -0.93004E-07  4672   0.944E-04    0.257E-03
DAV:   4    -0.306105828285E+04   -0.33178E-08   -0.29890E-07  4800   0.632E-04    0.156E-03
DAV:   5    -0.306105828287E+04   -0.19558E-07   -0.14666E-07  4800   0.528E-04
   9 F= -.31022961E+04 E0= -.31022961E+04  d E =-.295542E-03  mag=     0.0000
       N       E                     dE             d eps       ncg     rms          rms(c)
DAV:   1    -0.306105814524E+04    0.13761E-03   -0.81061E-02  5888   0.251E-01    0.739E-02
DAV:   2    -0.306105830986E+04   -0.16463E-03   -0.19571E-03  7008   0.366E-02    0.331E-02
DAV:   3    -0.306105829578E+04    0.14080E-04   -0.38611E-05  6432   0.664E-03    0.210E-02
DAV:   4    -0.306105829248E+04    0.32996E-05   -0.24950E-05  5504   0.574E-03    0.154E-02
DAV:   5    -0.306105829115E+04    0.13316E-05   -0.17538E-05  5088   0.405E-03
  10 F= -.31022965E+04 E0= -.31022965E+04  d E =-.321877E-03  mag=     0.0000
       N       E                     dE             d eps       ncg     rms          rms(c)
DAV:   1    -0.306105822287E+04    0.69609E-04   -0.43002E-03  6080   0.578E-02    0.195E-02
DAV:   2    -0.306105823145E+04   -0.85788E-05   -0.10660E-04  7264   0.865E-03    0.868E-03
DAV:   3    -0.306105823089E+04    0.55652E-06   -0.34725E-06  4896   0.210E-03    0.634E-03
DAV:   4    -0.306105823064E+04    0.25559E-06   -0.20900E-06  4768   0.151E-03    0.452E-03
DAV:   5    -0.306105823050E+04    0.13580E-06   -0.14819E-06  4800   0.137E-03
  11 F= -.31022965E+04 E0= -.31022965E+04  d E =-.333698E-03  mag=     0.0000
       N       E                     dE             d eps       ncg     rms          rms(c)
DAV:   1    -0.306105810328E+04    0.12735E-03   -0.64414E-02  5888   0.223E-01    0.663E-02
DAV:   2    -0.306105823513E+04   -0.13185E-03   -0.15644E-03  7072   0.327E-02    0.297E-02
DAV:   3    -0.306105822439E+04    0.10742E-04   -0.30191E-05  6144   0.590E-03    0.191E-02
DAV:   4    -0.306105822192E+04    0.24681E-05   -0.18687E-05  5216   0.494E-03    0.148E-02
DAV:   5    -0.306105822059E+04    0.13359E-05   -0.14345E-05  5024   0.386E-03
  12 F= -.31022968E+04 E0= -.31022968E+04  d E =-.306049E-03  mag=     0.0000
       N       E                     dE             d eps       ncg     rms          rms(c)
DAV:   1    -0.306105812563E+04    0.96296E-04   -0.78572E-03  5952   0.778E-02    0.252E-02
DAV:   2    -0.306105814163E+04   -0.16005E-04   -0.19401E-04  7168   0.116E-02    0.115E-02
DAV:   3    -0.306105814058E+04    0.10533E-05   -0.62275E-06  5024   0.271E-03    0.855E-03
DAV:   4    -0.306105814013E+04    0.45152E-06   -0.37476E-06  4832   0.191E-03    0.608E-03
DAV:   5    -0.306105813986E+04    0.26572E-06   -0.26609E-06  4720   0.180E-03
  13 F= -.31022968E+04 E0= -.31022968E+04  d E =-.335825E-03  mag=     0.0000
       N       E                     dE             d eps       ncg     rms          rms(c)
DAV:   1    -0.306105807553E+04    0.64598E-04   -0.63274E-02  5888   0.220E-01    0.668E-02
DAV:   2    -0.306105820601E+04   -0.13048E-03   -0.15675E-03  7072   0.329E-02    0.307E-02
DAV:   3    -0.306105819471E+04    0.11298E-04   -0.32055E-05  6112   0.616E-03    0.196E-02
DAV:   4    -0.306105819156E+04    0.31566E-05   -0.15853E-05  5184   0.480E-03    0.146E-02
DAV:   5    -0.306105819035E+04    0.12057E-05   -0.11237E-05  5184   0.376E-03
  14 F= -.31022972E+04 E0= -.31022972E+04  d E =-.372186E-03  mag=     0.0000
       N       E                     dE             d eps       ncg     rms          rms(c)
DAV:   1    -0.306105803800E+04    0.15355E-03   -0.17004E-02  5952   0.114E-01    0.364E-02
DAV:   2    -0.306105807279E+04   -0.34790E-04   -0.42528E-04  7136   0.172E-02    0.169E-02
DAV:   3    -0.306105807007E+04    0.27192E-05   -0.13223E-05  5280   0.385E-03    0.122E-02
DAV:   4    -0.306105806934E+04    0.73394E-06   -0.90904E-06  4896   0.278E-03    0.955E-03
DAV:   5    -0.306105806836E+04    0.97661E-06   -0.61092E-06  4864   0.258E-03
  15 F= -.31022972E+04 E0= -.31022972E+04  d E =-.417108E-03  mag=     0.0000
       N       E                     dE             d eps       ncg     rms          rms(c)
DAV:   1    -0.306105796921E+04    0.10013E-03   -0.55973E-02  5888   0.205E-01    0.643E-02
DAV:   2    -0.306105808381E+04   -0.11460E-03   -0.13808E-03  7104   0.306E-02    0.290E-02
DAV:   3    -0.306105807457E+04    0.92335E-05   -0.28047E-05  6112   0.565E-03    0.187E-02
DAV:   4    -0.306105807215E+04    0.24272E-05   -0.12318E-05  5184   0.424E-03    0.144E-02
DAV:   5    -0.306105807103E+04    0.11153E-05   -0.92291E-06  5184   0.355E-03
  16 F= -.31022975E+04 E0= -.31022975E+04  d E =-.297844E-03  mag=     0.0000
       N       E                     dE             d eps       ncg     rms          rms(c)
DAV:   1    -0.306105794931E+04    0.12283E-03   -0.13466E-02  5952   0.100E-01    0.329E-02
DAV:   2    -0.306105797670E+04   -0.27382E-04   -0.33547E-04  7168   0.151E-02    0.147E-02
DAV:   3    -0.306105797460E+04    0.20935E-05   -0.83429E-06  5056   0.315E-03    0.100E-02
DAV:   4    -0.306105797424E+04    0.35972E-06   -0.54289E-06  4800   0.235E-03    0.822E-03
DAV:   5    -0.306105797376E+04    0.48795E-06   -0.44644E-06  4832   0.221E-03
  17 F= -.31022976E+04 E0= -.31022976E+04  d E =-.345374E-03  mag=     0.0000
       N       E                     dE             d eps       ncg     rms          rms(c)
DAV:   1    -0.306105798529E+04   -0.11046E-04   -0.53164E-02  5888   0.199E-01    0.661E-02
DAV:   2    -0.306105809470E+04   -0.10941E-03   -0.13410E-03  7104   0.303E-02    0.287E-02
DAV:   3    -0.306105808417E+04    0.10532E-04   -0.28201E-05  6016   0.594E-03    0.185E-02
DAV:   4    -0.306105808114E+04    0.30235E-05   -0.14529E-05  5184   0.474E-03    0.138E-02
DAV:   5    -0.306105807987E+04    0.12736E-05   -0.10566E-05  5136   0.374E-03
  18 F= -.31022979E+04 E0= -.31022979E+04  d E =-.349936E-03  mag=     0.0000
       N       E                     dE             d eps       ncg     rms          rms(c)
DAV:   1    -0.306105797052E+04    0.11062E-03   -0.17149E-02  5952   0.113E-01    0.391E-02
DAV:   2    -0.306105800540E+04   -0.34883E-04   -0.43511E-04  7200   0.173E-02    0.170E-02
DAV:   3    -0.306105800215E+04    0.32498E-05   -0.12578E-05  5216   0.395E-03    0.122E-02
DAV:   4    -0.306105800141E+04    0.74151E-06   -0.90368E-06  4896   0.290E-03    0.983E-03
DAV:   5    -0.306105800021E+04    0.11979E-05   -0.63275E-06  4832   0.280E-03
  19 F= -.31022980E+04 E0= -.31022980E+04  d E =-.408914E-03  mag=     0.0000
       N       E                     dE             d eps       ncg     rms          rms(c)
DAV:   1    -0.306105797044E+04    0.30972E-04   -0.59415E-02  5888   0.210E-01    0.673E-02
DAV:   2    -0.306105809142E+04   -0.12098E-03   -0.14644E-03  7104   0.313E-02    0.290E-02
DAV:   3    -0.306105808112E+04    0.10306E-04   -0.29134E-05  6144   0.565E-03    0.192E-02
DAV:   4    -0.306105807833E+04    0.27884E-05   -0.13920E-05  5184   0.435E-03    0.144E-02
DAV:   5    -0.306105807683E+04    0.14924E-05   -0.10273E-05  5120   0.358E-03
  20 F= -.31022983E+04 E0= -.31022983E+04  d E =-.319586E-03  mag=     0.0000
       N       E                     dE             d eps       ncg     rms          rms(c)
DAV:   1    -0.306105797728E+04    0.10105E-03   -0.16126E-02  5952   0.109E-01    0.365E-02
DAV:   2    -0.306105800972E+04   -0.32438E-04   -0.39845E-04  7200   0.163E-02    0.152E-02
DAV:   3    -0.306105800688E+04    0.28376E-05   -0.79840E-06  5056   0.315E-03    0.102E-02
DAV:   4    -0.306105800618E+04    0.70425E-06   -0.40342E-06  4864   0.236E-03    0.759E-03
DAV:   5    -0.306105800572E+04    0.45798E-06   -0.30408E-06  4896   0.207E-03
  21 F= -.31022984E+04 E0= -.31022984E+04  d E =-.375150E-03  mag=     0.0000
       N       E                     dE             d eps       ncg     rms          rms(c)
DAV:   1    -0.306105799749E+04    0.86904E-05   -0.60669E-02  5888   0.211E-01    0.680E-02
DAV:   2    -0.306105812097E+04   -0.12348E-03   -0.15051E-03  7104   0.317E-02    0.294E-02
DAV:   3    -0.306105811021E+04    0.10760E-04   -0.32553E-05  6176   0.605E-03    0.201E-02
DAV:   4    -0.306105810856E+04    0.16459E-05   -0.18828E-05  5408   0.458E-03    0.174E-02
DAV:   5    -0.306105810501E+04    0.35549E-05   -0.14730E-05  5088   0.415E-03
  22 F= -.31022987E+04 E0= -.31022987E+04  d E =-.352510E-03  mag=     0.0000
       N       E                     dE             d eps       ncg     rms          rms(c)
DAV:   1    -0.306105800462E+04    0.10394E-03   -0.13526E-02  5952   0.998E-02    0.335E-02
DAV:   2    -0.306105803156E+04   -0.26940E-04   -0.33618E-04  7200   0.150E-02    0.147E-02
DAV:   3    -0.306105802928E+04    0.22849E-05   -0.10898E-05  5152   0.346E-03    0.110E-02
DAV:   4    -0.306105802846E+04    0.81724E-06   -0.63447E-06  4800   0.241E-03    0.803E-03
DAV:   5    -0.306105802766E+04    0.80420E-06   -0.41912E-06  4768   0.234E-03
  23 F= -.31022988E+04 E0= -.31022988E+04  d E =-.394992E-03  mag=     0.0000
       N       E                     dE             d eps       ncg     rms          rms(c)
DAV:   1    -0.306105796743E+04    0.61027E-04   -0.68459E-02  5888   0.223E-01    0.738E-02
DAV:   2    -0.306105810766E+04   -0.14023E-03   -0.17065E-03  7104   0.336E-02    0.318E-02
DAV:   3    -0.306105809599E+04    0.11675E-04   -0.36534E-05  6272   0.623E-03    0.217E-02
DAV:   4    -0.306105809401E+04    0.19760E-05   -0.18529E-05  5408   0.466E-03    0.185E-02
DAV:   5    -0.306105809027E+04    0.37469E-05   -0.15697E-05  5120   0.429E-03
  24 F= -.31022991E+04 E0= -.31022991E+04  d E =-.363652E-03  mag=     0.0000
       N       E                     dE             d eps       ncg     rms          rms(c)
DAV:   1    -0.306105796305E+04    0.13096E-03   -0.17582E-02  5888   0.113E-01    0.391E-02
DAV:   2    -0.306105799866E+04   -0.35613E-04   -0.44228E-04  7168   0.171E-02    0.177E-02
DAV:   3    -0.306105799597E+04    0.26908E-05   -0.17741E-05  5248   0.399E-03    0.132E-02
DAV:   4    -0.306105799463E+04    0.13374E-05   -0.96802E-06  4768   0.275E-03    0.924E-03
DAV:   5    -0.306105799376E+04    0.87387E-06   -0.61167E-06  4832   0.255E-03
  25 F= -.31022992E+04 E0= -.31022992E+04  d E =-.419931E-03  mag=    -0.0000
       N       E                     dE             d eps       ncg     rms          rms(c)
DAV:   1    -0.306105788847E+04    0.10616E-03   -0.74062E-02  5888   0.233E-01    0.753E-02
DAV:   2    -0.306105804138E+04   -0.15291E-03   -0.18576E-03  7040   0.351E-02    0.342E-02
DAV:   3    -0.306105802904E+04    0.12339E-04   -0.41774E-05  6560   0.679E-03    0.228E-02
DAV:   4    -0.306105802644E+04    0.25996E-05   -0.17312E-05  5376   0.480E-03    0.190E-02
DAV:   5    -0.306105802286E+04    0.35844E-05   -0.13917E-05  5184   0.440E-03
  26 F= -.31022995E+04 E0= -.31022995E+04  d E =-.343982E-03  mag=     0.0000
       N       E                     dE             d eps       ncg     rms          rms(c)
DAV:   1    -0.306105794088E+04    0.85567E-04   -0.65739E-03  6016   0.692E-02    0.243E-02
DAV:   2    -0.306105795419E+04   -0.13313E-04   -0.16859E-04  7168   0.107E-02    0.126E-02
DAV:   3    -0.306105795331E+04    0.87975E-06   -0.11717E-05  5152   0.301E-03    0.959E-03
DAV:   4    -0.306105795242E+04    0.89058E-06   -0.52490E-06  4672   0.197E-03    0.579E-03
DAV:   5    -0.306105795217E+04    0.24773E-06   -0.22211E-06  4768   0.161E-03
  27 F= -.31022995E+04 E0= -.31022995E+04  d E =-.367429E-03  mag=     0.0000
       N       E                     dE             d eps       ncg     rms          rms(c)
DAV:   1    -0.306105786203E+04    0.90384E-04   -0.72273E-02  5888   0.229E-01    0.757E-02
DAV:   2    -0.306105801328E+04   -0.15125E-03   -0.18360E-03  7104   0.349E-02    0.341E-02
DAV:   3    -0.306105800114E+04    0.12140E-04   -0.40751E-05  6464   0.659E-03    0.223E-02
DAV:   4    -0.306105799798E+04    0.31595E-05   -0.17633E-05  5216   0.482E-03    0.181E-02
DAV:   5    -0.306105799498E+04    0.29975E-05   -0.14326E-05  5152   0.434E-03
  28 F= -.31022999E+04 E0= -.31022999E+04  d E =-.359977E-03  mag=     0.0000
       N       E                     dE             d eps       ncg     rms          rms(c)
DAV:   1    -0.306105786876E+04    0.12922E-03   -0.14393E-02  6016   0.102E-01    0.356E-02
DAV:   2    -0.306105789821E+04   -0.29453E-04   -0.36616E-04  7200   0.156E-02    0.155E-02
DAV:   3    -0.306105789581E+04    0.24047E-05   -0.86883E-06  5248   0.328E-03    0.103E-02
DAV:   4    -0.306105789520E+04    0.60606E-06   -0.38387E-06  4928   0.235E-03    0.849E-03
DAV:   5    -0.306105789449E+04    0.70856E-06   -0.34025E-06  4832   0.220E-03
  29 F= -.31022999E+04 E0= -.31022999E+04  d E =-.401258E-03  mag=     0.0000
       N       E                     dE             d eps       ncg     rms          rms(c)
DAV:   1    -0.306105771738E+04    0.17783E-03   -0.78640E-02  5888   0.238E-01    0.771E-02
DAV:   2    -0.306105788444E+04   -0.16706E-03   -0.19991E-03  7072   0.361E-02    0.354E-02
DAV:   3    -0.306105787268E+04    0.11760E-04   -0.47598E-05  6368   0.688E-03    0.236E-02
DAV:   4    -0.306105787064E+04    0.20339E-05   -0.27857E-05  5376   0.500E-03    0.199E-02
DAV:   5    -0.306105786703E+04    0.36138E-05   -0.24989E-05  5248   0.467E-03
  30 F= -.31023003E+04 E0= -.31023003E+04  d E =-.345111E-03  mag=     0.0000
       N       E                     dE             d eps       ncg     rms          rms(c)
DAV:   1    -0.306105774026E+04    0.13038E-03   -0.11269E-02  6016   0.901E-02    0.311E-02
DAV:   2    -0.306105776356E+04   -0.23300E-04   -0.28647E-04  7200   0.139E-02    0.160E-02
DAV:   3    -0.306105776217E+04    0.13964E-05   -0.11340E-05  5344   0.352E-03    0.118E-02
DAV:   4    -0.306105776106E+04    0.11093E-05   -0.47282E-06  4960   0.224E-03    0.788E-03
DAV:   5    -0.306105776071E+04    0.34634E-06   -0.37426E-06  4768   0.200E-03
  31 F= -.31023003E+04 E0= -.31023003E+04  d E =-.380267E-03  mag=     0.0000
       N       E                     dE             d eps       ncg     rms          rms(c)
DAV:   1    -0.306105757645E+04    0.18460E-03   -0.83742E-02  5888   0.246E-01    0.846E-02
DAV:   2    -0.306105775475E+04   -0.17830E-03   -0.21666E-03  7008   0.378E-02    0.375E-02
DAV:   3    -0.306105774026E+04    0.14485E-04   -0.49244E-05  6528   0.730E-03    0.245E-02
DAV:   4    -0.306105773716E+04    0.30996E-05   -0.23426E-05  5440   0.534E-03    0.198E-02
DAV:   5    -0.306105773389E+04    0.32737E-05   -0.17972E-05  5312   0.457E-03
  32 F= -.31023007E+04 E0= -.31023007E+04  d E =-.386354E-03  mag=     0.0000
