       N       E                     dE             d eps       ncg     rms          rms(c)
DAV:   1     0.185241142815E+05    0.18524E+05   -0.76735E+05  5968   0.107E+03
DAV:   2     0.382210434734E+03   -0.18142E+05   -0.17378E+05  7584   0.281E+02
DAV:   3    -0.296533607594E+04   -0.33475E+04   -0.33282E+04  6736   0.126E+02
DAV:   4    -0.306364180566E+04   -0.98306E+02   -0.97882E+02  6720   0.249E+01
DAV:   5    -0.306589305017E+04   -0.22512E+01   -0.22476E+01  7248   0.342E+00    0.190E+02
DAV:   6    -0.147918969813E+04    0.15867E+04   -0.30355E+03  6336   0.450E+01    0.880E+01
DAV:   7    -0.161640304443E+04   -0.13721E+03   -0.24406E+02  6816   0.126E+01    0.559E+01
DAV:   8    -0.164800797004E+04   -0.31605E+02   -0.29719E+01  6800   0.547E+00    0.443E+01
DAV:   9    -0.178697586127E+04   -0.13897E+03   -0.33298E+01  6928   0.564E+00    0.363E+01
DAV:  10    -0.199833915588E+04   -0.21136E+03   -0.49525E+01  6720   0.570E+00    0.300E+01
DAV:  11    -0.222083760860E+04   -0.22250E+03   -0.81112E+01  6480   0.659E+00    0.249E+01
DAV:  12    -0.258518123664E+04   -0.36434E+03   -0.25912E+02  6464   0.112E+01    0.169E+01
DAV:  13    -0.279635204711E+04   -0.21117E+03   -0.18856E+02  6640   0.822E+00    0.116E+01
DAV:  14    -0.284733483474E+04   -0.50983E+02   -0.27727E+01  6736   0.344E+00    0.929E+00
DAV:  15    -0.286989652147E+04   -0.22562E+02   -0.74888E+00  6544   0.211E+00    0.748E+00
DAV:  16    -0.287923904158E+04   -0.93425E+01   -0.21629E+00  6640   0.124E+00    0.613E+00
DAV:  17    -0.288578433435E+04   -0.65453E+01   -0.15036E+00  6496   0.946E-01    0.492E+00
DAV:  18    -0.289088207827E+04   -0.50977E+01   -0.13124E+00  6512   0.803E-01    0.375E+00
DAV:  19    -0.289585678128E+04   -0.49747E+01   -0.13004E+00  6624   0.788E-01    0.212E+00
DAV:  20    -0.289611497526E+04   -0.25819E+00   -0.38385E-01  6304   0.487E-01    0.149E+00
DAV:  21    -0.289711211849E+04   -0.99714E+00   -0.65136E-02  6592   0.339E-01    0.931E-01
DAV:  22    -0.289970814248E+04   -0.25960E+01   -0.74896E-02  6272   0.332E-01    0.586E-01
DAV:  23    -0.290093365830E+04   -0.12255E+01   -0.17544E-02  6800   0.153E-01    0.441E-01
DAV:  24    -0.290184518246E+04   -0.91152E+00   -0.14371E-02  6592   0.118E-01    0.244E-01
DAV:  25    -0.290251324946E+04   -0.66807E+00   -0.67057E-03  6768   0.906E-02    0.131E-01
DAV:  26    -0.290278166478E+04   -0.26842E+00   -0.35545E-03  6800   0.641E-02    0.640E-02
DAV:  27    -0.290283504026E+04   -0.53375E-01   -0.10299E-03  6752   0.337E-02    0.471E-02
DAV:  28    -0.290284328340E+04   -0.82431E-02   -0.14546E-04  6736   0.146E-02    0.321E-02
DAV:  29    -0.290285142563E+04   -0.81422E-02   -0.15241E-04  6192   0.141E-02    0.151E-02
DAV:  30    -0.290285338359E+04   -0.19580E-02   -0.63004E-05  5984   0.102E-02    0.115E-02
DAV:  31    -0.290285469518E+04   -0.13116E-02   -0.24859E-05  5744   0.642E-03    0.748E-03
DAV:  32    -0.290285574945E+04   -0.10543E-02   -0.14641E-05  5072   0.491E-03    0.508E-03
DAV:  33    -0.290285660235E+04   -0.85290E-03   -0.12888E-05  5040   0.414E-03    0.412E-03
DAV:  34    -0.290285723303E+04   -0.63067E-03   -0.10465E-05  4960   0.359E-03    0.267E-03
DAV:  35    -0.290285742873E+04   -0.19570E-03   -0.46120E-06  4800   0.231E-03    0.172E-03
DAV:  36    -0.290285756133E+04   -0.13260E-03   -0.26074E-06  4768   0.154E-03    0.122E-03
DAV:  37    -0.290285762815E+04   -0.66819E-04   -0.13827E-06  4784   0.114E-03    0.876E-04
DAV:  38    -0.290285765994E+04   -0.31790E-04   -0.70475E-07  4752   0.847E-04    0.426E-04
DAV:  39    -0.290285767971E+04   -0.19774E-04   -0.30007E-07  4752   0.535E-04    0.429E-04
DAV:  40    -0.290285768639E+04   -0.66782E-05   -0.85165E-08  4768   0.301E-04
   1 F= -.29379773E+04 E0= -.29379773E+04  d E =-.293798E+04  mag=    -0.0000
       N       E                     dE             d eps       ncg     rms          rms(c)
DAV:   1    -0.290285276272E+04    0.49170E-02   -0.10504E+00  5664   0.966E-01    0.412E-01
DAV:   2    -0.290285468886E+04   -0.19261E-02   -0.29076E-02  6704   0.154E-01    0.149E-01
DAV:   3    -0.290285415189E+04    0.53697E-03   -0.99096E-04  6784   0.441E-02    0.833E-02
DAV:   4    -0.290285397916E+04    0.17273E-03   -0.51493E-04  6752   0.345E-02    0.525E-02
DAV:   5    -0.290285394806E+04    0.31100E-04   -0.24585E-04  6928   0.203E-02    0.349E-02
DAV:   6    -0.290285393136E+04    0.16708E-04   -0.20949E-05  5344   0.865E-03    0.202E-02
DAV:   7    -0.290285391579E+04    0.15562E-04   -0.45767E-06  4736   0.100E-02    0.692E-03
DAV:   8    -0.290285391124E+04    0.45496E-05   -0.97148E-06  4736   0.818E-03
   2 F= -.29379734E+04 E0= -.29379734E+04  d E =0.391144E-02  mag=    -0.0000
       N       E                     dE             d eps       ncg     rms          rms(c)
DAV:   1    -0.290285770152E+04   -0.37857E-02   -0.56863E-01  5632   0.711E-01    0.303E-01
DAV:   2    -0.290285876164E+04   -0.10601E-02   -0.15763E-02  6688   0.113E-01    0.111E-01
DAV:   3    -0.290285848206E+04    0.27959E-03   -0.53601E-04  6656   0.321E-02    0.616E-02
DAV:   4    -0.290285839997E+04    0.82085E-04   -0.28844E-04  6640   0.245E-02    0.385E-02
DAV:   5    -0.290285838573E+04    0.14246E-04   -0.11888E-04  6784   0.138E-02    0.249E-02
DAV:   6    -0.290285837844E+04    0.72905E-05   -0.10753E-05  5104   0.595E-03
   3 F= -.29379779E+04 E0= -.29379779E+04  d E =-.655907E-03  mag=    -0.0000
       N       E                     dE             d eps       ncg     rms          rms(c)
DAV:   1    -0.290285756953E+04    0.81619E-03   -0.42384E-01  5568   0.614E-01    0.189E-01
DAV:   2    -0.290285835801E+04   -0.78848E-03   -0.98481E-03  6784   0.886E-02    0.799E-02
DAV:   3    -0.290285825764E+04    0.10036E-03   -0.23383E-04  6784   0.189E-02    0.469E-02
DAV:   4    -0.290285823002E+04    0.27624E-04   -0.12116E-04  6688   0.144E-02    0.348E-02
DAV:   5    -0.290285821857E+04    0.11456E-04   -0.44990E-05  6560   0.910E-03    0.126E-02
DAV:   6    -0.290285821734E+04    0.12291E-05   -0.11520E-05  5056   0.505E-03
   4 F= -.29379779E+04 E0= -.29379779E+04  d E =0.167211E-04  mag=    -0.0000
       N       E                     dE             d eps       ncg     rms          rms(c)
DAV:   1    -0.290285849846E+04   -0.27990E-03   -0.11982E-01  5568   0.326E-01    0.980E-02
DAV:   2    -0.290285872143E+04   -0.22296E-03   -0.27774E-03  6688   0.469E-02    0.436E-02
DAV:   3    -0.290285869313E+04    0.28299E-04   -0.64427E-05  6752   0.950E-03    0.258E-02
DAV:   4    -0.290285868653E+04    0.65953E-05   -0.32964E-05  6016   0.696E-03    0.198E-02
DAV:   5    -0.290285868321E+04    0.33245E-05   -0.13168E-05  5120   0.448E-03
   5 F= -.29379783E+04 E0= -.29379783E+04  d E =-.372422E-03  mag=    -0.0000
       N       E                     dE             d eps       ncg     rms          rms(c)
DAV:   1    -0.290285859588E+04    0.90653E-04   -0.18168E-01  5568   0.400E-01    0.107E-01
DAV:   2    -0.290285893580E+04   -0.33992E-03   -0.41032E-03  6592   0.567E-02    0.487E-02
DAV:   3    -0.290285889913E+04    0.36670E-04   -0.81783E-05  6784   0.107E-02    0.299E-02
DAV:   4    -0.290285888712E+04    0.12012E-04   -0.46275E-05  6640   0.870E-03    0.189E-02
DAV:   5    -0.290285888464E+04    0.24791E-05   -0.17164E-05  5152   0.508E-03
   6 F= -.29379787E+04 E0= -.29379787E+04  d E =-.424774E-03  mag=    -0.0000
       N       E                     dE             d eps       ncg     rms          rms(c)
DAV:   1    -0.290285891039E+04   -0.23273E-04   -0.24578E-03  5856   0.466E-02    0.106E-02
DAV:   2    -0.290285891521E+04   -0.48160E-05   -0.55322E-05  6560   0.660E-03    0.674E-03
DAV:   3    -0.290285891478E+04    0.42509E-06   -0.91032E-07  4576   0.114E-03    0.448E-03
DAV:   4    -0.290285891478E+04    0.30268E-08   -0.61206E-07  4576   0.103E-03    0.311E-03
DAV:   5    -0.290285891489E+04   -0.11048E-06   -0.41575E-07  4704   0.856E-04
   7 F= -.29379787E+04 E0= -.29379787E+04  d E =-.429033E-03  mag=    -0.0000
       N       E                     dE             d eps       ncg     rms          rms(c)
DAV:   1    -0.290285887085E+04    0.43929E-04   -0.12467E-01  5568   0.329E-01    0.869E-02
DAV:   2    -0.290285910906E+04   -0.23820E-03   -0.28286E-03  6592   0.465E-02    0.392E-02
DAV:   3    -0.290285908639E+04    0.22665E-04   -0.50909E-05  6576   0.830E-03    0.243E-02
DAV:   4    -0.290285907823E+04    0.81651E-05   -0.35174E-05  6352   0.788E-03    0.116E-02
DAV:   5    -0.290285907831E+04   -0.88126E-07   -0.12840E-05  5056   0.407E-03
   8 F= -.29379791E+04 E0= -.29379791E+04  d E =-.378348E-03  mag=    -0.0000
       N       E                     dE             d eps       ncg     rms          rms(c)
DAV:   1    -0.290285906177E+04    0.16461E-04   -0.90589E-04  5968   0.280E-02    0.104E-02
DAV:   2    -0.290285906327E+04   -0.15008E-05   -0.21707E-05  5312   0.430E-03    0.386E-03
DAV:   3    -0.290285906318E+04    0.89291E-07   -0.11169E-06  4592   0.136E-03    0.224E-03
DAV:   4    -0.290285906316E+04    0.20489E-07   -0.35159E-07  4576   0.153E-03    0.737E-04
DAV:   5    -0.290285906326E+04   -0.10070E-06   -0.40528E-07  4640   0.782E-04
   9 F= -.29379791E+04 E0= -.29379791E+04  d E =-.381571E-03  mag=    -0.0000
       N       E                     dE             d eps       ncg     rms          rms(c)
DAV:   1    -0.290285896957E+04    0.93583E-04   -0.11640E-01  5568   0.318E-01    0.831E-02
DAV:   2    -0.290285919639E+04   -0.22682E-03   -0.26835E-03  6480   0.451E-02    0.381E-02
DAV:   3    -0.290285917700E+04    0.19394E-04   -0.49695E-05  6560   0.786E-03    0.240E-02
DAV:   4    -0.290285917013E+04    0.68701E-05   -0.32188E-05  6048   0.723E-03    0.969E-03
DAV:   5    -0.290285917058E+04   -0.45507E-06   -0.10248E-05  5056   0.362E-03
  10 F= -.29379795E+04 E0= -.29379795E+04  d E =-.364027E-03  mag=    -0.0000
       N       E                     dE             d eps       ncg     rms          rms(c)
DAV:   1    -0.290285911438E+04    0.55750E-04   -0.45461E-03  5696   0.628E-02    0.191E-02
DAV:   2    -0.290285912310E+04   -0.87197E-05   -0.10804E-04  6720   0.910E-03    0.764E-03
DAV:   3    -0.290285912236E+04    0.73615E-06   -0.18666E-06  4672   0.180E-03    0.467E-03
DAV:   4    -0.290285912221E+04    0.14756E-06   -0.16449E-06  4608   0.196E-03    0.240E-03
DAV:   5    -0.290285912231E+04   -0.93598E-07   -0.82020E-07  4608   0.103E-03
  11 F= -.29379795E+04 E0= -.29379795E+04  d E =-.366531E-03  mag=    -0.0000
       N       E                     dE             d eps       ncg     rms          rms(c)
DAV:   1    -0.290285903028E+04    0.91937E-04   -0.82981E-02  5568   0.268E-01    0.744E-02
DAV:   2    -0.290285919659E+04   -0.16631E-03   -0.19680E-03  6496   0.384E-02    0.330E-02
DAV:   3    -0.290285918222E+04    0.14370E-04   -0.34509E-05  5872   0.672E-03    0.207E-02
DAV:   4    -0.290285917741E+04    0.48073E-05   -0.21819E-05  5120   0.630E-03    0.111E-02
DAV:   5    -0.290285917747E+04   -0.51514E-07   -0.10555E-05  5088   0.368E-03
  12 F= -.29379798E+04 E0= -.29379798E+04  d E =-.341322E-03  mag=    -0.0000
       N       E                     dE             d eps       ncg     rms          rms(c)
DAV:   1    -0.290285909849E+04    0.78926E-04   -0.89782E-03  5632   0.881E-02    0.266E-02
DAV:   2    -0.290285911635E+04   -0.17859E-04   -0.21696E-04  6720   0.128E-02    0.108E-02
DAV:   3    -0.290285911475E+04    0.15957E-05   -0.35788E-06  4736   0.246E-03    0.668E-03
DAV:   4    -0.290285911425E+04    0.50064E-06   -0.29273E-06  4672   0.268E-03    0.364E-03
DAV:   5    -0.290285911436E+04   -0.10675E-06   -0.17159E-06  4640   0.152E-03
  13 F= -.29379799E+04 E0= -.29379799E+04  d E =-.372405E-03  mag=    -0.0000
       N       E                     dE             d eps       ncg     rms          rms(c)
DAV:   1    -0.290285911452E+04   -0.27136E-06   -0.70421E-02  5568   0.247E-01    0.714E-02
DAV:   2    -0.290285925719E+04   -0.14267E-03   -0.17094E-03  6560   0.359E-02    0.321E-02
DAV:   3    -0.290285924435E+04    0.12839E-04   -0.32665E-05  5792   0.653E-03    0.200E-02
DAV:   4    -0.290285924131E+04    0.30373E-05   -0.17808E-05  5056   0.536E-03    0.132E-02
DAV:   5    -0.290285924099E+04    0.31822E-06   -0.91438E-06  4928   0.354E-03
  14 F= -.29379803E+04 E0= -.29379803E+04  d E =-.443317E-03  mag=    -0.0000
       N       E                     dE             d eps       ncg     rms          rms(c)
DAV:   1    -0.290285909838E+04    0.14294E-03   -0.22490E-02  5568   0.139E-01    0.421E-02
DAV:   2    -0.290285914386E+04   -0.45481E-04   -0.54848E-04  6624   0.204E-02    0.180E-02
DAV:   3    -0.290285913983E+04    0.40294E-05   -0.99478E-06  4960   0.382E-03    0.111E-02
DAV:   4    -0.290285913896E+04    0.86462E-06   -0.67560E-06  4736   0.345E-03    0.708E-03
DAV:   5    -0.290285913906E+04   -0.10064E-06   -0.34185E-06  4704   0.219E-03
  15 F= -.29379804E+04 E0= -.29379804E+04  d E =-.520411E-03  mag=    -0.0000
       N       E                     dE             d eps       ncg     rms          rms(c)
DAV:   1    -0.290285912679E+04    0.12175E-04   -0.61340E-02  5568   0.229E-01    0.636E-02
DAV:   2    -0.290285925182E+04   -0.12503E-03   -0.14719E-03  6496   0.329E-02    0.294E-02
DAV:   3    -0.290285924219E+04    0.96235E-05   -0.26181E-05  5552   0.590E-03    0.186E-02
DAV:   4    -0.290285923952E+04    0.26732E-05   -0.14943E-05  4928   0.509E-03    0.122E-02
DAV:   5    -0.290285923924E+04    0.27957E-06   -0.81997E-06  5024   0.342E-03
  16 F= -.29379808E+04 E0= -.29379808E+04  d E =-.420198E-03  mag=    -0.0000
       N       E                     dE             d eps       ncg     rms          rms(c)
DAV:   1    -0.290285900491E+04    0.23461E-03   -0.46692E-02  5568   0.200E-01    0.566E-02
DAV:   2    -0.290285909980E+04   -0.94895E-04   -0.11237E-03  6592   0.288E-02    0.256E-02
DAV:   3    -0.290285909244E+04    0.73606E-05   -0.19939E-05  5344   0.528E-03    0.161E-02
DAV:   4    -0.290285909035E+04    0.20937E-05   -0.12000E-05  4864   0.475E-03    0.105E-02
DAV:   5    -0.290285909024E+04    0.10326E-06   -0.67821E-06  4832   0.315E-03
  17 F= -.29379809E+04 E0= -.29379809E+04  d E =-.550399E-03  mag=    -0.0000
       N       E                     dE             d eps       ncg     rms          rms(c)
DAV:   1    -0.290285904462E+04    0.45729E-04   -0.63308E-02  5568   0.233E-01    0.656E-02
DAV:   2    -0.290285917390E+04   -0.12928E-03   -0.15308E-03  6528   0.336E-02    0.296E-02
DAV:   3    -0.290285916411E+04    0.97959E-05   -0.27743E-05  5664   0.588E-03    0.189E-02
DAV:   4    -0.290285916129E+04    0.28199E-05   -0.17844E-05  5152   0.541E-03    0.997E-03
DAV:   5    -0.290285916157E+04   -0.27916E-06   -0.75038E-06  4960   0.306E-03
  18 F= -.29379813E+04 E0= -.29379813E+04  d E =-.402577E-03  mag=    -0.0000
