       N       E                     dE             d eps       ncg     rms          rms(c)
DAV:   1     0.186999815295E+05    0.18700E+05   -0.78350E+05  6080   0.106E+03
DAV:   2     0.321647292562E+03   -0.18378E+05   -0.17609E+05  7680   0.280E+02
DAV:   3    -0.301266747484E+04   -0.33343E+04   -0.33146E+04  6864   0.125E+02
DAV:   4    -0.311068813438E+04   -0.98021E+02   -0.97593E+02  6928   0.245E+01
DAV:   5    -0.311293227635E+04   -0.22441E+01   -0.22406E+01  7424   0.337E+00    0.193E+02
DAV:   6    -0.150738311734E+04    0.16055E+04   -0.30757E+03  6480   0.447E+01    0.890E+01
DAV:   7    -0.165094753498E+04   -0.14356E+03   -0.25396E+02  6832   0.125E+01    0.570E+01
DAV:   8    -0.167673060340E+04   -0.25783E+02   -0.40745E+01  6912   0.563E+00    0.442E+01
DAV:   9    -0.182326565675E+04   -0.14654E+03   -0.40277E+01  7088   0.539E+00    0.371E+01
DAV:  10    -0.199263603255E+04   -0.16937E+03   -0.52678E+01  7024   0.529E+00    0.318E+01
DAV:  11    -0.220987390782E+04   -0.21724E+03   -0.77529E+01  6896   0.643E+00    0.266E+01
DAV:  12    -0.249357763676E+04   -0.28370E+03   -0.15066E+02  6608   0.877E+00    0.198E+01
DAV:  13    -0.280102910193E+04   -0.30745E+03   -0.27986E+02  6592   0.103E+01    0.130E+01
DAV:  14    -0.287598221842E+04   -0.74953E+02   -0.52031E+01  7008   0.436E+00    0.108E+01
DAV:  15    -0.289986186974E+04   -0.23880E+02   -0.91875E+00  6816   0.210E+00    0.922E+00
DAV:  16    -0.291561275495E+04   -0.15751E+02   -0.48593E+00  6736   0.153E+00    0.749E+00
DAV:  17    -0.292442191553E+04   -0.88092E+01   -0.17852E+00  6784   0.977E-01    0.623E+00
DAV:  18    -0.293229998097E+04   -0.78781E+01   -0.19348E+00  6576   0.988E-01    0.487E+00
DAV:  19    -0.293778326192E+04   -0.54833E+01   -0.15287E+00  6640   0.795E-01    0.354E+00
DAV:  20    -0.294312937058E+04   -0.53461E+01   -0.12695E+00  6608   0.714E-01    0.212E+00
DAV:  21    -0.294375711722E+04   -0.62775E+00   -0.35561E-01  6464   0.418E-01    0.136E+00
DAV:  22    -0.294465911619E+04   -0.90200E+00   -0.65055E-02  6736   0.250E-01    0.923E-01
DAV:  23    -0.294730333002E+04   -0.26442E+01   -0.81468E-02  6480   0.277E-01    0.541E-01
DAV:  24    -0.294873871185E+04   -0.14354E+01   -0.20582E-02  6960   0.141E-01    0.368E-01
DAV:  25    -0.294968338773E+04   -0.94468E+00   -0.12560E-02  6864   0.973E-02    0.228E-01
DAV:  26    -0.295039211735E+04   -0.70873E+00   -0.92667E-03  6944   0.897E-02    0.123E-01
DAV:  27    -0.295059888136E+04   -0.20676E+00   -0.26996E-03  7008   0.534E-02    0.774E-02
DAV:  28    -0.295066024878E+04   -0.61367E-01   -0.80230E-04  6864   0.268E-02    0.423E-02
DAV:  29    -0.295067342690E+04   -0.13178E-01   -0.26526E-04  6944   0.159E-02    0.290E-02
DAV:  30    -0.295067877551E+04   -0.53486E-02   -0.79184E-05  6496   0.857E-03    0.184E-02
DAV:  31    -0.295068310125E+04   -0.43257E-02   -0.72380E-05  6000   0.772E-03    0.118E-02
DAV:  32    -0.295068399314E+04   -0.89188E-03   -0.14636E-05  5168   0.399E-03    0.847E-03
DAV:  33    -0.295068562894E+04   -0.16358E-02   -0.12808E-05  5248   0.303E-03    0.569E-03
DAV:  34    -0.295068712908E+04   -0.15001E-02   -0.13960E-05  5280   0.302E-03    0.387E-03
DAV:  35    -0.295068781628E+04   -0.68720E-03   -0.61787E-06  4992   0.215E-03    0.248E-03
DAV:  36    -0.295068814647E+04   -0.33019E-03   -0.35199E-06  4944   0.155E-03    0.151E-03
DAV:  37    -0.295068825237E+04   -0.10589E-03   -0.12458E-06  4960   0.863E-04    0.108E-03
DAV:  38    -0.295068834245E+04   -0.90084E-04   -0.10527E-06  4880   0.920E-04    0.654E-04
DAV:  39    -0.295068836832E+04   -0.25875E-04   -0.52169E-07  4944   0.633E-04    0.499E-04
DAV:  40    -0.295068837712E+04   -0.87946E-05   -0.17279E-07  4960   0.367E-04
   1 F= -.29869630E+04 E0= -.29869630E+04  d E =-.298696E+04  mag=     0.0000
       N       E                     dE             d eps       ncg     rms          rms(c)
DAV:   1    -0.295064603154E+04    0.42337E-01   -0.31281E+01  5664   0.397E+00    0.203E+00
DAV:   2    -0.295072234687E+04   -0.76315E-01   -0.98741E-01  6976   0.627E-01    0.890E-01
DAV:   3    -0.295071287789E+04    0.94690E-02   -0.23723E-02  7072   0.145E-01    0.631E-01
DAV:   4    -0.295071100821E+04    0.18697E-02   -0.19921E-02  6864   0.107E-01    0.441E-01
DAV:   5    -0.295070925334E+04    0.17549E-02   -0.17167E-02  6960   0.908E-02    0.208E-01
DAV:   6    -0.295070879253E+04    0.46080E-03   -0.44100E-03  7040   0.493E-02    0.107E-01
DAV:   7    -0.295070868497E+04    0.10756E-03   -0.65285E-04  6784   0.236E-02    0.712E-02
DAV:   8    -0.295070863300E+04    0.51967E-04   -0.88905E-05  6384   0.116E-02    0.421E-02
DAV:   9    -0.295070861448E+04    0.18526E-04   -0.81160E-05  6160   0.118E-02    0.311E-02
DAV:  10    -0.295070860443E+04    0.10047E-04   -0.73658E-05  6448   0.917E-03    0.110E-02
DAV:  11    -0.295070861310E+04   -0.86741E-05   -0.11384E-05  5264   0.629E-03
   2 F= -.29869827E+04 E0= -.29869827E+04  d E =-.196763E-01  mag=     0.0000
       N       E                     dE             d eps       ncg     rms          rms(c)
DAV:   1    -0.295073069896E+04   -0.22095E-01   -0.62579E+00  5696   0.181E+00    0.878E-01
DAV:   2    -0.295074489978E+04   -0.14201E-01   -0.18691E-01  6944   0.276E-01    0.365E-01
DAV:   3    -0.295074294496E+04    0.19548E-02   -0.47187E-03  7056   0.674E-02    0.236E-01
DAV:   4    -0.295074266221E+04    0.28274E-03   -0.46299E-03  6848   0.526E-02    0.166E-01
DAV:   5    -0.295074243386E+04    0.22835E-03   -0.28214E-03  6864   0.359E-02    0.835E-02
DAV:   6    -0.295074236209E+04    0.71772E-04   -0.57597E-04  6896   0.182E-02    0.463E-02
DAV:   7    -0.295074235213E+04    0.99612E-05   -0.11485E-04  6560   0.963E-03    0.287E-02
DAV:   8    -0.295074234562E+04    0.65103E-05   -0.19040E-05  5680   0.494E-03
   3 F= -.29870167E+04 E0= -.29870167E+04  d E =-.536619E-01  mag=     0.0000
       N       E                     dE             d eps       ncg     rms          rms(c)
DAV:   1    -0.295078707019E+04   -0.44718E-01   -0.88591E+00  5632   0.199E+00    0.853E-01
DAV:   2    -0.295080644466E+04   -0.19374E-01   -0.25560E-01  6848   0.308E-01    0.455E-01
DAV:   3    -0.295080549636E+04    0.94830E-03   -0.90887E-03  6976   0.704E-02    0.316E-01
DAV:   4    -0.295080516349E+04    0.33287E-03   -0.34655E-03  6880   0.433E-02    0.226E-01
DAV:   5    -0.295080493591E+04    0.22758E-03   -0.35961E-03  6592   0.352E-02    0.128E-01
DAV:   6    -0.295080478902E+04    0.14689E-03   -0.88581E-04  6880   0.220E-02    0.581E-02
DAV:   7    -0.295080477134E+04    0.17680E-04   -0.27020E-04  6784   0.146E-02    0.386E-02
DAV:   8    -0.295080476672E+04    0.46216E-05   -0.51971E-05  6208   0.610E-03
   4 F= -.29870787E+04 E0= -.29870787E+04  d E =-.620026E-01  mag=     0.0000
       N       E                     dE             d eps       ncg     rms          rms(c)
DAV:   1    -0.295080836657E+04   -0.35952E-02   -0.43908E+00  5648   0.141E+00    0.585E-01
DAV:   2    -0.295081785931E+04   -0.94927E-02   -0.12593E-01  6720   0.219E-01    0.317E-01
DAV:   3    -0.295081740093E+04    0.45837E-03   -0.46015E-03  6976   0.506E-02    0.213E-01
DAV:   4    -0.295081725714E+04    0.14380E-03   -0.20099E-03  6944   0.316E-02    0.162E-01
DAV:   5    -0.295081713021E+04    0.12693E-03   -0.20716E-03  6576   0.258E-02    0.897E-02
DAV:   6    -0.295081705920E+04    0.71006E-04   -0.46154E-04  6560   0.159E-02    0.404E-02
DAV:   7    -0.295081705276E+04    0.64428E-05   -0.12861E-04  6656   0.106E-02    0.263E-02
DAV:   8    -0.295081705417E+04   -0.14110E-05   -0.20657E-05  5856   0.441E-03
   5 F= -.29870907E+04 E0= -.29870907E+04  d E =-.739760E-01  mag=     0.0000
       N       E                     dE             d eps       ncg     rms          rms(c)
DAV:   1    -0.295084038849E+04   -0.23336E-01   -0.72064E+00  5632   0.201E+00    0.106E+00
DAV:   2    -0.295085686518E+04   -0.16477E-01   -0.20360E-01  6720   0.303E-01    0.377E-01
DAV:   3    -0.295085547258E+04    0.13926E-02   -0.45545E-03  7008   0.650E-02    0.250E-01
DAV:   4    -0.295085498520E+04    0.48738E-03   -0.27190E-03  6880   0.541E-02    0.136E-01
DAV:   5    -0.295085494297E+04    0.42224E-04   -0.26280E-03  7056   0.384E-02    0.916E-02
DAV:   6    -0.295085482634E+04    0.11664E-03   -0.73832E-04  6880   0.197E-02    0.447E-02
DAV:   7    -0.295085481142E+04    0.14912E-04   -0.71431E-05  6432   0.768E-03    0.287E-02
DAV:   8    -0.295085480290E+04    0.85273E-05   -0.16757E-05  5344   0.552E-03
   6 F= -.29871276E+04 E0= -.29871276E+04  d E =-.369324E-01  mag=     0.0000
       N       E                     dE             d eps       ncg     rms          rms(c)
DAV:   1    -0.295085551215E+04   -0.70072E-03   -0.12597E+00  5696   0.851E-01    0.439E-01
DAV:   2    -0.295085833719E+04   -0.28250E-02   -0.35498E-02  6656   0.128E-01    0.158E-01
DAV:   3    -0.295085808689E+04    0.25030E-03   -0.90854E-04  7072   0.292E-02    0.109E-01
DAV:   4    -0.295085801548E+04    0.71414E-04   -0.59677E-04  6912   0.226E-02    0.705E-02
DAV:   5    -0.295085797441E+04    0.41072E-04   -0.61656E-04  6816   0.190E-02    0.392E-02
DAV:   6    -0.295085795270E+04    0.21703E-04   -0.16737E-04  6864   0.112E-02    0.209E-02
DAV:   7    -0.295085795029E+04    0.24137E-05   -0.19031E-05  5920   0.451E-03
   7 F= -.29871304E+04 E0= -.29871304E+04  d E =-.397333E-01  mag=     0.0000
       N       E                     dE             d eps       ncg     rms          rms(c)
DAV:   1    -0.295087406343E+04   -0.16111E-01   -0.42997E+00  5632   0.162E+00    0.812E-01
DAV:   2    -0.295088437170E+04   -0.10308E-01   -0.12817E-01  6784   0.249E-01    0.345E-01
DAV:   3    -0.295088364535E+04    0.72635E-03   -0.31313E-03  6944   0.512E-02    0.224E-01
DAV:   4    -0.295088343792E+04    0.20742E-03   -0.15193E-03  6880   0.349E-02    0.141E-01
DAV:   5    -0.295088340643E+04    0.31497E-04   -0.16898E-03  6880   0.279E-02    0.778E-02
DAV:   6    -0.295088333544E+04    0.70985E-04   -0.63094E-04  6976   0.172E-02    0.353E-02
DAV:   7    -0.295088332945E+04    0.59917E-05   -0.72365E-05  6624   0.735E-03
   8 F= -.29871550E+04 E0= -.29871550E+04  d E =-.246226E-01  mag=     0.0000
       N       E                     dE             d eps       ncg     rms          rms(c)
DAV:   1    -0.295088414942E+04   -0.81398E-03   -0.33926E-01  5696   0.455E-01    0.227E-01
DAV:   2    -0.295088496803E+04   -0.81861E-03   -0.10269E-02  6784   0.703E-02    0.962E-02
DAV:   3    -0.295088491315E+04    0.54877E-04   -0.25905E-04  6848   0.153E-02    0.617E-02
DAV:   4    -0.295088489979E+04    0.13362E-04   -0.11424E-04  6672   0.106E-02    0.417E-02
DAV:   5    -0.295088489789E+04    0.19028E-05   -0.11353E-04  6544   0.919E-03    0.207E-02
DAV:   6    -0.295088489550E+04    0.23886E-05   -0.40923E-05  5984   0.590E-03
   9 F= -.29871564E+04 E0= -.29871564E+04  d E =-.259743E-01  mag=     0.0000
       N       E                     dE             d eps       ncg     rms          rms(c)
DAV:   1    -0.295090129084E+04   -0.16393E-01   -0.19662E+00  5632   0.110E+00    0.553E-01
DAV:   2    -0.295090666524E+04   -0.53744E-02   -0.63395E-02  6656   0.173E-01    0.253E-01
DAV:   3    -0.295090624503E+04    0.42021E-03   -0.13827E-03  7008   0.338E-02    0.171E-01
DAV:   4    -0.295090619807E+04    0.46956E-04   -0.10913E-03  6848   0.264E-02    0.122E-01
DAV:   5    -0.295090610791E+04    0.90164E-04   -0.90988E-04  6944   0.201E-02    0.459E-02
DAV:   6    -0.295090609113E+04    0.16782E-04   -0.14752E-04  6624   0.110E-02    0.223E-02
DAV:   7    -0.295090609361E+04   -0.24870E-05   -0.19702E-05  6144   0.435E-03
  10 F= -.29871768E+04 E0= -.29871768E+04  d E =-.203615E-01  mag=     0.0000
       N       E                     dE             d eps       ncg     rms          rms(c)
DAV:   1    -0.295090936614E+04   -0.32750E-02   -0.19343E+00  5632   0.109E+00    0.548E-01
DAV:   2    -0.295091464938E+04   -0.52832E-02   -0.62213E-02  6656   0.171E-01    0.250E-01
DAV:   3    -0.295091424037E+04    0.40901E-03   -0.13734E-03  6992   0.337E-02    0.165E-01
DAV:   4    -0.295091419295E+04    0.47425E-04   -0.10867E-03  6848   0.260E-02    0.123E-01
DAV:   5    -0.295091409747E+04    0.95479E-04   -0.92207E-04  6720   0.202E-02    0.448E-02
DAV:   6    -0.295091408090E+04    0.16564E-04   -0.15414E-04  6688   0.111E-02    0.226E-02
DAV:   7    -0.295091408280E+04   -0.18943E-05   -0.22816E-05  6144   0.469E-03
  11 F= -.29871839E+04 E0= -.29871839E+04  d E =-.275141E-01  mag=     0.0000
       N       E                     dE             d eps       ncg     rms          rms(c)
DAV:   1    -0.295092415553E+04   -0.10075E-01   -0.24885E+00  5632   0.129E+00    0.570E-01
DAV:   2    -0.295092987070E+04   -0.57152E-02   -0.73510E-02  6752   0.202E-01    0.267E-01
DAV:   3    -0.295092936679E+04    0.50392E-03   -0.22498E-03  6944   0.452E-02    0.179E-01
DAV:   4    -0.295092923317E+04    0.13362E-03   -0.11471E-03  6848   0.309E-02    0.127E-01
DAV:   5    -0.295092913469E+04    0.98484E-04   -0.97859E-04  6928   0.253E-02    0.580E-02
DAV:   6    -0.295092909982E+04    0.34863E-04   -0.24151E-04  7008   0.161E-02    0.282E-02
DAV:   7    -0.295092909815E+04    0.16721E-05   -0.65242E-05  6656   0.817E-03
  12 F= -.29871977E+04 E0= -.29871977E+04  d E =-.138296E-01  mag=     0.0000
       N       E                     dE             d eps       ncg     rms          rms(c)
DAV:   1    -0.295092970940E+04   -0.60958E-03   -0.19195E-01  5696   0.360E-01    0.162E-01
DAV:   2    -0.295093015425E+04   -0.44485E-03   -0.57416E-03  6816   0.566E-02    0.741E-02
DAV:   3    -0.295093011424E+04    0.40018E-04   -0.22175E-04  7056   0.139E-02    0.476E-02
DAV:   4    -0.295093010902E+04    0.52208E-05   -0.17572E-04  6656   0.942E-03    0.431E-02
DAV:   5    -0.295093008911E+04    0.19906E-04   -0.12902E-04  6112   0.868E-03    0.148E-02
DAV:   6    -0.295093008726E+04    0.18494E-05   -0.19875E-05  5520   0.599E-03
  13 F= -.29871984E+04 E0= -.29871984E+04  d E =-.144878E-01  mag=     0.0000
       N       E                     dE             d eps       ncg     rms          rms(c)
DAV:   1    -0.295093698032E+04   -0.68912E-02   -0.15306E+00  5664   0.105E+00    0.422E-01
DAV:   2    -0.295094033029E+04   -0.33500E-02   -0.41565E-02  6832   0.155E-01    0.190E-01
DAV:   3    -0.295094001696E+04    0.31333E-03   -0.87242E-04  6912   0.291E-02    0.122E-01
DAV:   4    -0.295093993795E+04    0.79006E-04   -0.75869E-04  6848   0.260E-02    0.854E-02
DAV:   5    -0.295093989615E+04    0.41808E-04   -0.72920E-04  6880   0.189E-02    0.404E-02
DAV:   6    -0.295093987717E+04    0.18974E-04   -0.14917E-04  6736   0.966E-03    0.205E-02
DAV:   7    -0.295093987491E+04    0.22631E-05   -0.16909E-05  5760   0.441E-03
  14 F= -.29872076E+04 E0= -.29872076E+04  d E =-.917149E-02  mag=     0.0000
       N       E                     dE             d eps       ncg     rms          rms(c)
DAV:   1    -0.295094054655E+04   -0.66938E-03   -0.31924E-01  5696   0.478E-01    0.194E-01
DAV:   2    -0.295094124695E+04   -0.70040E-03   -0.87217E-03  6880   0.711E-02    0.874E-02
DAV:   3    -0.295094118077E+04    0.66181E-04   -0.19278E-04  6976   0.141E-02    0.557E-02
DAV:   4    -0.295094116383E+04    0.16944E-04   -0.14422E-04  6720   0.119E-02    0.424E-02
DAV:   5    -0.295094115076E+04    0.13061E-04   -0.13161E-04  6672   0.100E-02    0.173E-02
DAV:   6    -0.295094114787E+04    0.28972E-05   -0.32296E-05  5984   0.549E-03
  15 F= -.29872086E+04 E0= -.29872086E+04  d E =-.101617E-01  mag=     0.0000
       N       E                     dE             d eps       ncg     rms          rms(c)
DAV:   1    -0.295094582328E+04   -0.46725E-02   -0.14301E+00  5632   0.102E+00    0.463E-01
DAV:   2    -0.295094901672E+04   -0.31934E-02   -0.39778E-02  6848   0.154E-01    0.182E-01
DAV:   3    -0.295094871287E+04    0.30385E-03   -0.96391E-04  6880   0.304E-02    0.124E-01
DAV:   4    -0.295094868186E+04    0.31011E-04   -0.10559E-03  6848   0.248E-02    0.955E-02
DAV:   5    -0.295094859577E+04    0.86085E-04   -0.90916E-04  6816   0.201E-02    0.351E-02
DAV:   6    -0.295094858198E+04    0.13793E-04   -0.14071E-04  6688   0.104E-02    0.199E-02
DAV:   7    -0.295094858146E+04    0.52474E-06   -0.14155E-05  5600   0.407E-03
  16 F= -.29872159E+04 E0= -.29872159E+04  d E =-.730930E-02  mag=     0.0000
       N       E                     dE             d eps       ncg     rms          rms(c)
DAV:   1    -0.295094874570E+04   -0.16372E-03   -0.77232E-02  5696   0.237E-01    0.111E-01
DAV:   2    -0.295094892162E+04   -0.17592E-03   -0.21770E-03  6848   0.362E-02    0.419E-02
DAV:   3    -0.295094890495E+04    0.16664E-04   -0.49916E-05  6688   0.764E-03    0.283E-02
DAV:   4    -0.295094890177E+04    0.31845E-05   -0.40453E-05  5920   0.614E-03    0.202E-02
DAV:   5    -0.295094889905E+04    0.27130E-05   -0.40320E-05  5536   0.548E-03
  17 F= -.29872162E+04 E0= -.29872162E+04  d E =-.759750E-02  mag=     0.0000
       N       E                     dE             d eps       ncg     rms          rms(c)
DAV:   1    -0.295095261633E+04   -0.37146E-02   -0.11237E+00  5664   0.904E-01    0.352E-01
DAV:   2    -0.295095529303E+04   -0.26767E-02   -0.32066E-02  6752   0.138E-01    0.169E-01
DAV:   3    -0.295095507914E+04    0.21389E-03   -0.60843E-04  6944   0.249E-02    0.110E-01
DAV:   4    -0.295095501714E+04    0.61999E-04   -0.54340E-04  6784   0.226E-02    0.691E-02
DAV:   5    -0.295095499382E+04    0.23323E-04   -0.36330E-04  6944   0.135E-02    0.313E-02
DAV:   6    -0.295095498573E+04    0.80818E-05   -0.69623E-05  6368   0.752E-03
  18 F= -.29872222E+04 E0= -.29872222E+04  d E =-.606689E-02  mag=     0.0000
       N       E                     dE             d eps       ncg     rms          rms(c)
DAV:   1    -0.295095506998E+04   -0.76164E-04   -0.45556E-01  5664   0.576E-01    0.229E-01
DAV:   2    -0.295095616269E+04   -0.10927E-02   -0.13105E-02  6848   0.878E-02    0.106E-01
DAV:   3    -0.295095607699E+04    0.85695E-04   -0.26185E-04  6912   0.163E-02    0.702E-02
DAV:   4    -0.295095606323E+04    0.13762E-04   -0.29271E-04  6848   0.146E-02    0.513E-02
DAV:   5    -0.295095604248E+04    0.20753E-04   -0.23370E-04  6816   0.971E-03    0.204E-02
DAV:   6    -0.295095603898E+04    0.35010E-05   -0.32051E-05  5536   0.536E-03
  19 F= -.29872233E+04 E0= -.29872233E+04  d E =-.710652E-02  mag=     0.0000
       N       E                     dE             d eps       ncg     rms          rms(c)
DAV:   1    -0.295095957165E+04   -0.35292E-02   -0.49367E-01  5664   0.585E-01    0.228E-01
DAV:   2    -0.295096073778E+04   -0.11661E-02   -0.13778E-02  6784   0.866E-02    0.105E-01
DAV:   3    -0.295096066234E+04    0.75446E-04   -0.26930E-04  6912   0.149E-02    0.726E-02
DAV:   4    -0.295096064605E+04    0.16281E-04   -0.20166E-04  6752   0.124E-02    0.513E-02
DAV:   5    -0.295096063163E+04    0.14426E-04   -0.18444E-04  6816   0.972E-03    0.220E-02
DAV:   6    -0.295096062784E+04    0.37849E-05   -0.34465E-05  5728   0.532E-03
  20 F= -.29872278E+04 E0= -.29872278E+04  d E =-.449766E-02  mag=     0.0000
       N       E                     dE             d eps       ncg     rms          rms(c)
DAV:   1    -0.295095905175E+04    0.15799E-02   -0.30723E+00  5632   0.146E+00    0.563E-01
DAV:   2    -0.295096631374E+04   -0.72620E-02   -0.85729E-02  6784   0.216E-01    0.265E-01
DAV:   3    -0.295096583630E+04    0.47744E-03   -0.16399E-03  6976   0.373E-02    0.185E-01
DAV:   4    -0.295096569468E+04    0.14161E-03   -0.11127E-03  6848   0.312E-02    0.124E-01
DAV:   5    -0.295096561710E+04    0.77587E-04   -0.10314E-03  6880   0.242E-02    0.569E-02
DAV:   6    -0.295096558686E+04    0.30241E-04   -0.22323E-04  6816   0.137E-02    0.257E-02
DAV:   7    -0.295096558548E+04    0.13774E-05   -0.40919E-05  6400   0.615E-03
  21 F= -.29872325E+04 E0= -.29872325E+04  d E =-.922358E-02  mag=     0.0000
       N       E                     dE             d eps       ncg     rms          rms(c)
DAV:   1    -0.295096895232E+04   -0.33655E-02   -0.73182E-01  5664   0.724E-01    0.280E-01
DAV:   2    -0.295097069202E+04   -0.17397E-02   -0.20830E-02  6848   0.111E-01    0.129E-01
DAV:   3    -0.295097055539E+04    0.13664E-03   -0.45896E-04  7008   0.212E-02    0.876E-02
DAV:   4    -0.295097053068E+04    0.24704E-04   -0.33308E-04  6784   0.160E-02    0.649E-02
DAV:   5    -0.295097049769E+04    0.32989E-04   -0.26401E-04  6880   0.132E-02    0.243E-02
DAV:   6    -0.295097049524E+04    0.24477E-05   -0.48150E-05  6400   0.726E-03
  22 F= -.29872372E+04 E0= -.29872372E+04  d E =-.475279E-02  mag=     0.0000
       N       E                     dE             d eps       ncg     rms          rms(c)
DAV:   1    -0.295097074498E+04   -0.24729E-03   -0.54542E-01  5632   0.625E-01    0.242E-01
DAV:   2    -0.295097204012E+04   -0.12951E-02   -0.15535E-02  6880   0.957E-02    0.112E-01
DAV:   3    -0.295097193530E+04    0.10482E-03   -0.33535E-04  6976   0.183E-02    0.753E-02
DAV:   4    -0.295097191586E+04    0.19438E-04   -0.28575E-04  6816   0.147E-02    0.569E-02
DAV:   5    -0.295097188899E+04    0.26869E-04   -0.24396E-04  6784   0.118E-02    0.217E-02
DAV:   6    -0.295097188529E+04    0.36979E-05   -0.44408E-05  6048   0.657E-03
  23 F= -.29872385E+04 E0= -.29872385E+04  d E =-.600593E-02  mag=     0.0000
       N       E                     dE             d eps       ncg     rms          rms(c)
DAV:   1    -0.295097417186E+04   -0.22829E-02   -0.56763E-01  5664   0.644E-01    0.262E-01
DAV:   2    -0.295097551211E+04   -0.13402E-02   -0.16145E-02  6784   0.988E-02    0.125E-01
DAV:   3    -0.295097540565E+04    0.10646E-03   -0.31724E-04  6848   0.176E-02    0.771E-02
DAV:   4    -0.295097537654E+04    0.29107E-04   -0.22418E-04  6752   0.144E-02    0.538E-02
DAV:   5    -0.295097536757E+04    0.89706E-05   -0.19395E-04  6848   0.104E-02    0.249E-02
DAV:   6    -0.295097536246E+04    0.51172E-05   -0.52034E-05  5856   0.562E-03
  24 F= -.29872420E+04 E0= -.29872420E+04  d E =-.352960E-02  mag=     0.0000
       N       E                     dE             d eps       ncg     rms          rms(c)
DAV:   1    -0.295097549257E+04   -0.12500E-03   -0.21883E-01  5696   0.400E-01    0.165E-01
DAV:   2    -0.295097601262E+04   -0.52004E-03   -0.62759E-03  6816   0.616E-02    0.763E-02
DAV:   3    -0.295097597071E+04    0.41906E-04   -0.12193E-04  7008   0.112E-02    0.480E-02
DAV:   4    -0.295097596007E+04    0.10640E-04   -0.94645E-05  6592   0.963E-03    0.335E-02
DAV:   5    -0.295097595489E+04    0.51775E-05   -0.78986E-05  6064   0.715E-03
  25 F= -.29872426E+04 E0= -.29872426E+04  d E =-.415383E-02  mag=     0.0000
       N       E                     dE             d eps       ncg     rms          rms(c)
DAV:   1    -0.295097778417E+04   -0.18241E-02   -0.58507E-01  5632   0.663E-01    0.266E-01
DAV:   2    -0.295097913312E+04   -0.13489E-02   -0.16458E-02  6800   0.101E-01    0.120E-01
DAV:   3    -0.295097901600E+04    0.11712E-03   -0.33830E-04  6880   0.189E-02    0.767E-02
DAV:   4    -0.295097898545E+04    0.30547E-04   -0.27237E-04  6816   0.157E-02    0.521E-02
DAV:   5    -0.295097897199E+04    0.13462E-04   -0.24563E-04  6944   0.113E-02    0.264E-02
DAV:   6    -0.295097896553E+04    0.64596E-05   -0.58456E-05  5856   0.596E-03
  26 F= -.29872459E+04 E0= -.29872459E+04  d E =-.329921E-02  mag=     0.0000
       N       E                     dE             d eps       ncg     rms          rms(c)
DAV:   1    -0.295097889659E+04    0.75395E-04   -0.27191E-01  5664   0.452E-01    0.184E-01
DAV:   2    -0.295097952848E+04   -0.63188E-03   -0.76851E-03  6848   0.693E-02    0.804E-02
DAV:   3    -0.295097947262E+04    0.55860E-04   -0.14320E-04  7040   0.128E-02    0.514E-02
DAV:   4    -0.295097945048E+04    0.22139E-04   -0.10548E-04  6816   0.119E-02    0.265E-02
DAV:   5    -0.295097945000E+04    0.48068E-06   -0.62522E-05  6432   0.732E-03
  27 F= -.29872466E+04 E0= -.29872466E+04  d E =-.397965E-02  mag=     0.0000
       N       E                     dE             d eps       ncg     rms          rms(c)
DAV:   1    -0.295098105919E+04   -0.16087E-02   -0.50291E-01  5632   0.606E-01    0.234E-01
DAV:   2    -0.295098224636E+04   -0.11872E-02   -0.14071E-02  6752   0.915E-02    0.107E-01
DAV:   3    -0.295098216203E+04    0.84332E-04   -0.25178E-04  6912   0.158E-02    0.719E-02
DAV:   4    -0.295098212882E+04    0.33208E-04   -0.18822E-04  6752   0.148E-02    0.316E-02
DAV:   5    -0.295098213298E+04   -0.41574E-05   -0.88990E-05  6816   0.777E-03
  28 F= -.29872497E+04 E0= -.29872497E+04  d E =-.303775E-02  mag=     0.0000
       N       E                     dE             d eps       ncg     rms          rms(c)
DAV:   1    -0.295098122813E+04    0.90069E-03   -0.79721E-01  5632   0.763E-01    0.298E-01
DAV:   2    -0.295098310321E+04   -0.18751E-02   -0.22273E-02  6720   0.115E-01    0.135E-01
DAV:   3    -0.295098296790E+04    0.13531E-03   -0.40169E-04  6944   0.202E-02    0.907E-02
DAV:   4    -0.295098291056E+04    0.57337E-04   -0.29362E-04  6720   0.193E-02    0.381E-02
DAV:   5    -0.295098291675E+04   -0.61875E-05   -0.13476E-04  6784   0.103E-02    0.239E-02
DAV:   6    -0.295098291416E+04    0.25878E-05   -0.55547E-05  5792   0.554E-03
  29 F= -.29872509E+04 E0= -.29872509E+04  d E =-.426428E-02  mag=     0.0000
       N       E                     dE             d eps       ncg     rms          rms(c)
DAV:   1    -0.295098432998E+04   -0.14132E-02   -0.58333E-01  5632   0.646E-01    0.257E-01
DAV:   2    -0.295098574114E+04   -0.14112E-02   -0.16608E-02  6752   0.982E-02    0.116E-01
DAV:   3    -0.295098565168E+04    0.89460E-04   -0.31792E-04  6992   0.167E-02    0.799E-02
DAV:   4    -0.295098563055E+04    0.21134E-04   -0.25564E-04  6752   0.137E-02    0.531E-02
DAV:   5    -0.295098561649E+04    0.14060E-04   -0.24157E-04  6784   0.101E-02    0.233E-02
DAV:   6    -0.295098561227E+04    0.42134E-05   -0.42458E-05  5536   0.540E-03
  30 F= -.29872539E+04 E0= -.29872539E+04  d E =-.301691E-02  mag=     0.0000
       N       E                     dE             d eps       ncg     rms          rms(c)
DAV:   1    -0.295098512313E+04    0.49336E-03   -0.55088E-01  5632   0.628E-01    0.250E-01
DAV:   2    -0.295098645754E+04   -0.13344E-02   -0.15700E-02  6752   0.955E-02    0.112E-01
DAV:   3    -0.295098637188E+04    0.85662E-04   -0.28346E-04  7072   0.161E-02    0.769E-02
DAV:   4    -0.295098633916E+04    0.32717E-04   -0.21042E-04  6752   0.146E-02    0.409E-02
DAV:   5    -0.295098633757E+04    0.15955E-05   -0.16845E-04  6752   0.905E-03    0.225E-02
DAV:   6    -0.295098633317E+04    0.44001E-05   -0.39346E-05  5472   0.500E-03
  31 F= -.29872549E+04 E0= -.29872549E+04  d E =-.404631E-02  mag=     0.0000
       N       E                     dE             d eps       ncg     rms          rms(c)
DAV:   1    -0.295098805402E+04   -0.17164E-02   -0.66848E-01  5632   0.697E-01    0.267E-01
DAV:   2    -0.295098966651E+04   -0.16125E-02   -0.19072E-02  6688   0.107E-01    0.127E-01
DAV:   3    -0.295098955383E+04    0.11267E-03   -0.42574E-04  6912   0.196E-02    0.853E-02
DAV:   4    -0.295098953583E+04    0.17997E-04   -0.31466E-04  6720   0.141E-02    0.672E-02
DAV:   5    -0.295098950065E+04    0.35187E-04   -0.26825E-04  6528   0.127E-02    0.229E-02
DAV:   6    -0.295098949891E+04    0.17415E-05   -0.50479E-05  6368   0.674E-03
  32 F= -.29872583E+04 E0= -.29872583E+04  d E =-.335398E-02  mag=     0.0000
       N       E                     dE             d eps       ncg     rms          rms(c)
DAV:   1    -0.295098934334E+04    0.15731E-03   -0.39656E-01  5632   0.537E-01    0.208E-01
DAV:   2    -0.295099030016E+04   -0.95682E-03   -0.11334E-02  6720   0.825E-02    0.965E-02
DAV:   3    -0.295099023354E+04    0.66619E-04   -0.24038E-04  6880   0.150E-02    0.642E-02
DAV:   4    -0.295099022369E+04    0.98515E-05   -0.21497E-04  6816   0.118E-02    0.512E-02
DAV:   5    -0.295099020278E+04    0.20906E-04   -0.19121E-04  6400   0.995E-03    0.177E-02
DAV:   6    -0.295099020101E+04    0.17759E-05   -0.30961E-05  5504   0.529E-03
  33 F= -.29872591E+04 E0= -.29872591E+04  d E =-.419986E-02  mag=     0.0000
       N       E                     dE             d eps       ncg     rms          rms(c)
DAV:   1    -0.295099171867E+04   -0.15159E-02   -0.85370E-01  5632   0.786E-01    0.296E-01
DAV:   2    -0.295099373088E+04   -0.20122E-02   -0.23662E-02  6688   0.119E-01    0.147E-01
DAV:   3    -0.295099360075E+04    0.13014E-03   -0.57956E-04  6880   0.213E-02    0.960E-02
DAV:   4    -0.295099358669E+04    0.14055E-04   -0.46825E-04  6784   0.152E-02    0.829E-02
DAV:   5    -0.295099353630E+04    0.50394E-04   -0.39050E-04  6464   0.143E-02    0.249E-02
DAV:   6    -0.295099353493E+04    0.13697E-05   -0.67387E-05  6464   0.717E-03
  34 F= -.29872626E+04 E0= -.29872626E+04  d E =-.348295E-02  mag=     0.0000
       N       E                     dE             d eps       ncg     rms          rms(c)
DAV:   1    -0.295099336449E+04    0.17181E-03   -0.30372E-01  5632   0.469E-01    0.180E-01
DAV:   2    -0.295099408653E+04   -0.72204E-03   -0.85094E-03  6720   0.712E-02    0.873E-02
DAV:   3    -0.295099404226E+04    0.44269E-04   -0.21670E-04  6944   0.128E-02    0.563E-02
DAV:   4    -0.295099404069E+04    0.15741E-05   -0.20746E-04  6752   0.955E-03    0.512E-02
DAV:   5    -0.295099402069E+04    0.19994E-04   -0.16609E-04  6176   0.891E-03    0.145E-02
DAV:   6    -0.295099402077E+04   -0.78755E-07   -0.23912E-05  5440   0.458E-03
  35 F= -.29872632E+04 E0= -.29872632E+04  d E =-.405673E-02  mag=     0.0000
       N       E                     dE             d eps       ncg     rms          rms(c)
DAV:   1    -0.295099508024E+04   -0.10595E-02   -0.97798E-01  5632   0.847E-01    0.310E-01
DAV:   2    -0.295099734381E+04   -0.22636E-02   -0.26953E-02  6752   0.128E-01    0.159E-01
DAV:   3    -0.295099718616E+04    0.15765E-03   -0.63484E-04  6976   0.234E-02    0.103E-01
DAV:   4    -0.295099716535E+04    0.20816E-04   -0.52483E-04  6784   0.174E-02    0.881E-02
DAV:   5    -0.295099710418E+04    0.61167E-04   -0.43902E-04  6656   0.157E-02    0.270E-02
DAV:   6    -0.295099710056E+04    0.36234E-05   -0.77252E-05  6656   0.844E-03
  36 F= -.29872665E+04 E0= -.29872665E+04  d E =-.326474E-02  mag=     0.0000
       N       E                     dE             d eps       ncg     rms          rms(c)
DAV:   1    -0.295099700383E+04    0.10035E-03   -0.13759E-01  5632   0.318E-01    0.120E-01
DAV:   2    -0.295099732565E+04   -0.32182E-03   -0.38647E-03  6816   0.482E-02    0.589E-02
DAV:   3    -0.295099730482E+04    0.20834E-04   -0.10195E-04  6928   0.914E-03    0.383E-02
DAV:   4    -0.295099730426E+04    0.55041E-06   -0.10497E-04  5904   0.703E-03    0.350E-02
DAV:   5    -0.295099729453E+04    0.97340E-05   -0.83311E-05  5824   0.670E-03
  37 F= -.29872667E+04 E0= -.29872667E+04  d E =-.352758E-02  mag=     0.0000
       N       E                     dE             d eps       ncg     rms          rms(c)
DAV:   1    -0.295099816477E+04   -0.86051E-03   -0.83747E-01  5632   0.790E-01    0.289E-01
DAV:   2    -0.295100013932E+04   -0.19745E-02   -0.23349E-02  6688   0.119E-01    0.141E-01
DAV:   3    -0.295100000699E+04    0.13233E-03   -0.48614E-04  6912   0.208E-02    0.933E-02
DAV:   4    -0.295099998311E+04    0.23884E-04   -0.35964E-04  6816   0.158E-02    0.737E-02
DAV:   5    -0.295099994293E+04    0.40174E-04   -0.30606E-04  6816   0.138E-02    0.245E-02
DAV:   6    -0.295099994089E+04    0.20394E-05   -0.46870E-05  6272   0.704E-03
  38 F= -.29872695E+04 E0= -.29872695E+04  d E =-.278907E-02  mag=     0.0000
       N       E                     dE             d eps       ncg     rms          rms(c)
DAV:   1    -0.295099985792E+04    0.85009E-04   -0.17051E-01  5632   0.356E-01    0.134E-01
DAV:   2    -0.295100026397E+04   -0.40604E-03   -0.48014E-03  6752   0.539E-02    0.613E-02
DAV:   3    -0.295100023811E+04    0.25851E-04   -0.84614E-05  7008   0.923E-03    0.404E-02
DAV:   4    -0.295100023033E+04    0.77817E-05   -0.60450E-05  6432   0.842E-03    0.253E-02
DAV:   5    -0.295100022898E+04    0.13574E-05   -0.49287E-05  5824   0.582E-03
  39 F= -.29872699E+04 E0= -.29872699E+04  d E =-.314102E-02  mag=     0.0000
       N       E                     dE             d eps       ncg     rms          rms(c)
DAV:   1    -0.295100104411E+04   -0.81378E-03   -0.96297E-01  5632   0.846E-01    0.312E-01
DAV:   2    -0.295100340173E+04   -0.23576E-02   -0.27399E-02  6688   0.128E-01    0.151E-01
DAV:   3    -0.295100324879E+04    0.15294E-03   -0.56707E-04  6944   0.222E-02    0.102E-01
DAV:   4    -0.295100322947E+04    0.19316E-04   -0.49336E-04  6816   0.171E-02    0.821E-02
DAV:   5    -0.295100317758E+04    0.51890E-04   -0.42683E-04  6784   0.145E-02    0.258E-02
DAV:   6    -0.295100317576E+04    0.18151E-05   -0.66506E-05  6304   0.735E-03
  40 F= -.29872728E+04 E0= -.29872728E+04  d E =-.291039E-02  mag=     0.0000
       N       E                     dE             d eps       ncg     rms          rms(c)
DAV:   1    -0.295100284263E+04    0.33495E-03   -0.26603E-01  5632   0.445E-01    0.168E-01
DAV:   2    -0.295100349818E+04   -0.65555E-03   -0.76335E-03  6720   0.674E-02    0.776E-02
DAV:   3    -0.295100345709E+04    0.41083E-04   -0.15225E-04  6976   0.117E-02    0.523E-02
DAV:   4    -0.295100345487E+04    0.22272E-05   -0.16198E-04  6784   0.974E-03    0.427E-02
DAV:   5    -0.295100343957E+04    0.15296E-04   -0.13946E-04  6064   0.791E-03    0.130E-02
DAV:   6    -0.295100343953E+04    0.37835E-07   -0.16060E-05  5216   0.407E-03
  41 F= -.29872730E+04 E0= -.29872730E+04  d E =-.315451E-02  mag=     0.0000
       N       E                     dE             d eps       ncg     rms          rms(c)
DAV:   1    -0.295100437112E+04   -0.93155E-03   -0.62703E-01  5632   0.681E-01    0.239E-01
DAV:   2    -0.295100589793E+04   -0.15268E-02   -0.17542E-02  6624   0.102E-01    0.122E-01
DAV:   3    -0.295100581371E+04    0.84225E-04   -0.34876E-04  6976   0.167E-02    0.816E-02
DAV:   4    -0.295100580208E+04    0.11626E-04   -0.25810E-04  6720   0.124E-02    0.662E-02
DAV:   5    -0.295100577343E+04    0.28657E-04   -0.23417E-04  6400   0.114E-02    0.213E-02
DAV:   6    -0.295100577248E+04    0.94366E-06   -0.38510E-05  5696   0.560E-03
  42 F= -.29872752E+04 E0= -.29872752E+04  d E =-.221653E-02  mag=     0.0000
       N       E                     dE             d eps       ncg     rms          rms(c)
DAV:   1    -0.295100502191E+04    0.75151E-03   -0.74919E-01  5632   0.745E-01    0.263E-01
DAV:   2    -0.295100684897E+04   -0.18271E-02   -0.21017E-02  6624   0.111E-01    0.133E-01
DAV:   3    -0.295100674961E+04    0.99357E-04   -0.43371E-04  6976   0.183E-02    0.888E-02
DAV:   4    -0.295100674234E+04    0.72722E-05   -0.40062E-04  6720   0.142E-02    0.751E-02
DAV:   5    -0.295100670033E+04    0.42011E-04   -0.35782E-04  6464   0.128E-02    0.234E-02
DAV:   6    -0.295100669921E+04    0.11156E-05   -0.51148E-05  5856   0.628E-03
  43 F= -.29872760E+04 E0= -.29872760E+04  d E =-.301496E-02  mag=     0.0000
       N       E                     dE             d eps       ncg     rms          rms(c)
DAV:   1    -0.295100840999E+04   -0.17097E-02   -0.75642E-01  5632   0.751E-01    0.270E-01
DAV:   2    -0.295101018596E+04   -0.17760E-02   -0.20977E-02  6656   0.114E-01    0.138E-01
DAV:   3    -0.295101007275E+04    0.11321E-03   -0.45511E-04  6896   0.206E-02    0.879E-02
DAV:   4    -0.295101005188E+04    0.20865E-04   -0.30718E-04  6848   0.152E-02    0.700E-02
DAV:   5    -0.295101002080E+04    0.31086E-04   -0.27908E-04  6688   0.129E-02    0.263E-02
DAV:   6    -0.295101001712E+04    0.36812E-05   -0.56488E-05  6112   0.700E-03
  44 F= -.29872791E+04 E0= -.29872791E+04  d E =-.311443E-02  mag=     0.0000
       N       E                     dE             d eps       ncg     rms          rms(c)
DAV:   1    -0.295100932546E+04    0.69534E-03   -0.74555E-01  5632   0.746E-01    0.270E-01
DAV:   2    -0.295101108063E+04   -0.17552E-02   -0.20725E-02  6656   0.113E-01    0.137E-01
DAV:   3    -0.295101096703E+04    0.11360E-03   -0.48751E-04  6912   0.210E-02    0.885E-02
DAV:   4    -0.295101094867E+04    0.18362E-04   -0.34953E-04  6720   0.152E-02    0.730E-02
DAV:   5    -0.295101090780E+04    0.40869E-04   -0.30510E-04  6400   0.139E-02    0.257E-02
DAV:   6    -0.295101090490E+04    0.29043E-05   -0.62939E-05  6464   0.771E-03
  45 F= -.29872798E+04 E0= -.29872798E+04  d E =-.379956E-02  mag=     0.0000
       N       E                     dE             d eps       ncg     rms          rms(c)
DAV:   1    -0.295101216464E+04   -0.12568E-02   -0.56764E-01  5632   0.643E-01    0.224E-01
DAV:   2    -0.295101349666E+04   -0.13320E-02   -0.15310E-02  6496   0.945E-02    0.116E-01
DAV:   3    -0.295101342971E+04    0.66953E-04   -0.31366E-04  6816   0.154E-02    0.764E-02
DAV:   4    -0.295101342402E+04    0.56876E-05   -0.22469E-04  6720   0.114E-02    0.618E-02
DAV:   5    -0.295101340422E+04    0.19806E-04   -0.20544E-04  6464   0.106E-02    0.212E-02
DAV:   6    -0.295101340411E+04    0.10600E-06   -0.35459E-05  5760   0.520E-03
  46 F= -.29872822E+04 E0= -.29872822E+04  d E =-.237132E-02  mag=     0.0000
       N       E                     dE             d eps       ncg     rms          rms(c)
DAV:   1    -0.295101100132E+04    0.24029E-02   -0.20382E+00  5632   0.122E+00    0.423E-01
DAV:   2    -0.295101578052E+04   -0.47792E-02   -0.54848E-02  6496   0.179E-01    0.223E-01
DAV:   3    -0.295101552967E+04    0.25085E-03   -0.12260E-03  6912   0.299E-02    0.148E-01
DAV:   4    -0.295101549349E+04    0.36173E-04   -0.80645E-04  6752   0.209E-02    0.120E-01
DAV:   5    -0.295101540798E+04    0.85512E-04   -0.72389E-04  6560   0.206E-02    0.407E-02
DAV:   6    -0.295101540439E+04    0.35899E-05   -0.13008E-04  6752   0.994E-03    0.180E-02
DAV:   7    -0.295101540553E+04   -0.11348E-05   -0.19156E-05  5344   0.443E-03
  47 F= -.29872840E+04 E0= -.29872840E+04  d E =-.412872E-02  mag=     0.0000
       N       E                     dE             d eps       ncg     rms          rms(c)
DAV:   1    -0.295101739008E+04   -0.19857E-02   -0.81185E-01  5632   0.780E-01    0.286E-01
DAV:   2    -0.295101927668E+04   -0.18866E-02   -0.22434E-02  6656   0.118E-01    0.135E-01
DAV:   3    -0.295101914091E+04    0.13577E-03   -0.52155E-04  6912   0.224E-02    0.916E-02
DAV:   4    -0.295101911783E+04    0.23075E-04   -0.36269E-04  6784   0.156E-02    0.715E-02
DAV:   5    -0.295101907363E+04    0.44202E-04   -0.28350E-04  6336   0.145E-02    0.238E-02
DAV:   6    -0.295101907197E+04    0.16590E-05   -0.57771E-05  6784   0.827E-03
  48 F= -.29872876E+04 E0= -.29872876E+04  d E =-.369199E-02  mag=     0.0000
       N       E                     dE             d eps       ncg     rms          rms(c)
DAV:   1    -0.295101902900E+04    0.44637E-04   -0.42421E-01  5632   0.563E-01    0.208E-01
DAV:   2    -0.295102001343E+04   -0.98443E-03   -0.11751E-02  6720   0.856E-02    0.963E-02
DAV:   3    -0.295101994050E+04    0.72926E-04   -0.25330E-04  7040   0.162E-02    0.650E-02
DAV:   4    -0.295101992613E+04    0.14372E-04   -0.18867E-04  6784   0.123E-02    0.495E-02
DAV:   5    -0.295101990391E+04    0.22221E-04   -0.15249E-04  6304   0.109E-02    0.173E-02
DAV:   6    -0.295101990213E+04    0.17787E-05   -0.32476E-05  5664   0.639E-03
  49 F= -.29872885E+04 E0= -.29872885E+04  d E =-.454028E-02  mag=     0.0000
       N       E                     dE             d eps       ncg     rms          rms(c)
DAV:   1    -0.295102130539E+04   -0.14015E-02   -0.62890E-01  5632   0.689E-01    0.254E-01
DAV:   2    -0.295102277462E+04   -0.14692E-02   -0.17332E-02  6720   0.104E-01    0.128E-01
DAV:   3    -0.295102267260E+04    0.10202E-03   -0.35895E-04  6880   0.185E-02    0.809E-02
DAV:   4    -0.295102265040E+04    0.22200E-04   -0.23662E-04  6784   0.139E-02    0.587E-02
DAV:   5    -0.295102263487E+04    0.15526E-04   -0.19151E-04  6784   0.104E-02    0.253E-02
DAV:   6    -0.295102263142E+04    0.34501E-05   -0.39094E-05  5632   0.562E-03
  50 F= -.29872914E+04 E0= -.29872914E+04  d E =-.292116E-02  mag=     0.0000
       N       E                     dE             d eps       ncg     rms          rms(c)
DAV:   1    -0.295102258026E+04    0.54607E-04   -0.24671E-01  5632   0.432E-01    0.162E-01
DAV:   2    -0.295102315988E+04   -0.57962E-03   -0.68467E-03  6752   0.653E-02    0.792E-02
DAV:   3    -0.295102312066E+04    0.39218E-04   -0.14680E-04  6976   0.118E-02    0.507E-02
DAV:   4    -0.295102311559E+04    0.50739E-05   -0.11662E-04  6688   0.912E-03    0.391E-02
DAV:   5    -0.295102310607E+04    0.95253E-05   -0.95354E-05  5824   0.706E-03
  51 F= -.29872920E+04 E0= -.29872920E+04  d E =-.351576E-02  mag=     0.0000
       N       E                     dE             d eps       ncg     rms          rms(c)
DAV:   1    -0.295102428677E+04   -0.11712E-02   -0.58291E-01  5632   0.674E-01    0.235E-01
DAV:   2    -0.295102559469E+04   -0.13079E-02   -0.15655E-02  6752   0.102E-01    0.121E-01
DAV:   3    -0.295102549608E+04    0.98613E-04   -0.34779E-04  6880   0.186E-02    0.736E-02
DAV:   4    -0.295102547564E+04    0.20433E-04   -0.23573E-04  6784   0.139E-02    0.579E-02
DAV:   5    -0.295102545462E+04    0.21021E-04   -0.19579E-04  6496   0.113E-02    0.246E-02
DAV:   6    -0.295102545138E+04    0.32382E-05   -0.40079E-05  5856   0.634E-03
  52 F= -.29872945E+04 E0= -.29872945E+04  d E =-.251802E-02  mag=    -0.0000
       N       E                     dE             d eps       ncg     rms          rms(c)
DAV:   1    -0.295102533352E+04    0.12110E-03   -0.23699E-01  5632   0.430E-01    0.153E-01
DAV:   2    -0.295102587082E+04   -0.53730E-03   -0.64125E-03  6720   0.649E-02    0.744E-02
DAV:   3    -0.295102583050E+04    0.40320E-04   -0.13152E-04  6912   0.119E-02    0.462E-02
DAV:   4    -0.295102582118E+04    0.93140E-05   -0.97055E-05  6752   0.957E-03    0.347E-02
DAV:   5    -0.295102581358E+04    0.75993E-05   -0.84691E-05  5824   0.755E-03
  53 F= -.29872950E+04 E0= -.29872950E+04  d E =-.299018E-02  mag=    -0.0000
       N       E                     dE             d eps       ncg     rms          rms(c)
DAV:   1    -0.295102703887E+04   -0.12177E-02   -0.46519E-01  5632   0.600E-01    0.189E-01
DAV:   2    -0.295102804906E+04   -0.10102E-02   -0.11842E-02  6720   0.874E-02    0.972E-02
DAV:   3    -0.295102798631E+04    0.62746E-04   -0.25258E-04  6848   0.149E-02    0.631E-02
DAV:   4    -0.295102797651E+04    0.97990E-05   -0.17738E-04  6816   0.110E-02    0.497E-02
DAV:   5    -0.295102796051E+04    0.15999E-04   -0.14524E-04  6336   0.947E-03    0.193E-02
DAV:   6    -0.295102795953E+04    0.98633E-06   -0.26025E-05  5792   0.486E-03
  54 F= -.29872972E+04 E0= -.29872972E+04  d E =-.221942E-02  mag=    -0.0000
       N       E                     dE             d eps       ncg     rms          rms(c)
DAV:   1    -0.295102715635E+04    0.80416E-03   -0.10175E+00  5632   0.888E-01    0.281E-01
DAV:   2    -0.295102937899E+04   -0.22226E-02   -0.25916E-02  6688   0.129E-01    0.141E-01
DAV:   3    -0.295102923628E+04    0.14271E-03   -0.50908E-04  6848   0.217E-02    0.928E-02
DAV:   4    -0.295102921065E+04    0.25631E-04   -0.38143E-04  6816   0.168E-02    0.715E-02
DAV:   5    -0.295102917278E+04    0.37867E-04   -0.31309E-04  6720   0.142E-02    0.266E-02
DAV:   6    -0.295102916952E+04    0.32628E-05   -0.54601E-05  6208   0.732E-03
  55 F= -.29872985E+04 E0= -.29872985E+04  d E =-.353800E-02  mag=    -0.0000
       N       E                     dE             d eps       ncg     rms          rms(c)
DAV:   1    -0.295103050780E+04   -0.13350E-02   -0.70619E-01  5632   0.741E-01    0.240E-01
DAV:   2    -0.295103203632E+04   -0.15285E-02   -0.18011E-02  6720   0.109E-01    0.113E-01
DAV:   3    -0.295103192780E+04    0.10852E-03   -0.35701E-04  6944   0.191E-02    0.764E-02
DAV:   4    -0.295103190841E+04    0.19385E-04   -0.27247E-04  6784   0.148E-02    0.569E-02
DAV:   5    -0.295103188093E+04    0.27485E-04   -0.21458E-04  6816   0.128E-02    0.202E-02
DAV:   6    -0.295103187916E+04    0.17647E-05   -0.39294E-05  6176   0.671E-03
  56 F= -.29873013E+04 E0= -.29873013E+04  d E =-.272804E-02  mag=    -0.0000
       N       E                     dE             d eps       ncg     rms          rms(c)
DAV:   1    -0.295103196531E+04   -0.84384E-04   -0.26400E-01  5632   0.453E-01    0.148E-01
DAV:   2    -0.295103253756E+04   -0.57225E-03   -0.67413E-03  6816   0.666E-02    0.680E-02
DAV:   3    -0.295103249687E+04    0.40693E-04   -0.13016E-04  6976   0.118E-02    0.462E-02
DAV:   4    -0.295103248970E+04    0.71668E-05   -0.10671E-04  6768   0.957E-03    0.344E-02
DAV:   5    -0.295103247967E+04    0.10032E-04   -0.86449E-05  5952   0.824E-03    0.125E-02
DAV:   6    -0.295103247928E+04    0.38458E-06   -0.17402E-05  5280   0.445E-03
  57 F= -.29873019E+04 E0= -.29873019E+04  d E =-.333939E-02  mag=    -0.0000
       N       E                     dE             d eps       ncg     rms          rms(c)
DAV:   1    -0.295103387773E+04   -0.13981E-02   -0.41945E-01  5632   0.575E-01    0.193E-01
DAV:   2    -0.295103481877E+04   -0.94104E-03   -0.11138E-02  6752   0.863E-02    0.918E-02
DAV:   3    -0.295103474043E+04    0.78342E-04   -0.22217E-04  6880   0.159E-02    0.615E-02
DAV:   4    -0.295103472554E+04    0.14887E-04   -0.18749E-04  6784   0.133E-02    0.422E-02
DAV:   5    -0.295103471123E+04    0.14314E-04   -0.13429E-04  6624   0.928E-03    0.174E-02
DAV:   6    -0.295103470901E+04    0.22165E-05   -0.22269E-05  5408   0.524E-03
  58 F= -.29873040E+04 E0= -.29873040E+04  d E =-.214817E-02  mag=    -0.0000
       N       E                     dE             d eps       ncg     rms          rms(c)
DAV:   1    -0.295103436896E+04    0.34227E-03   -0.37923E-01  5632   0.547E-01    0.185E-01
DAV:   2    -0.295103521771E+04   -0.84875E-03   -0.10084E-02  6752   0.823E-02    0.868E-02
DAV:   3    -0.295103514475E+04    0.72956E-04   -0.20612E-04  6944   0.156E-02    0.586E-02
DAV:   4    -0.295103512965E+04    0.15099E-04   -0.17562E-04  6816   0.129E-02    0.412E-02
DAV:   5    -0.295103511350E+04    0.16153E-04   -0.13267E-04  6496   0.971E-03    0.166E-02
DAV:   6    -0.295103511098E+04    0.25252E-05   -0.24414E-05  5408   0.566E-03
  59 F= -.29873043E+04 E0= -.29873043E+04  d E =-.247256E-02  mag=    -0.0000
       N       E                     dE             d eps       ncg     rms          rms(c)
DAV:   1    -0.295103593706E+04   -0.82356E-03   -0.19953E-01  5632   0.392E-01    0.122E-01
DAV:   2    -0.295103637909E+04   -0.44202E-03   -0.51006E-03  6720   0.568E-02    0.604E-02
DAV:   3    -0.295103635386E+04    0.25226E-04   -0.83864E-05  6880   0.911E-03    0.412E-02
DAV:   4    -0.295103634720E+04    0.66593E-05   -0.67678E-05  6496   0.878E-03    0.218E-02
DAV:   5    -0.295103634712E+04    0.76718E-07   -0.42063E-05  5760   0.511E-03
  60 F= -.29873055E+04 E0= -.29873055E+04  d E =-.115544E-02  mag=    -0.0000
       N       E                     dE             d eps       ncg     rms          rms(c)
DAV:   1    -0.295103497868E+04    0.13685E-02   -0.14097E+00  5632   0.104E+00    0.323E-01
DAV:   2    -0.295103809420E+04   -0.31155E-02   -0.35997E-02  6752   0.151E-01    0.164E-01
DAV:   3    -0.295103791107E+04    0.18314E-03   -0.66351E-04  6976   0.247E-02    0.113E-01
DAV:   4    -0.295103788364E+04    0.27431E-04   -0.54106E-04  6752   0.204E-02    0.814E-02
DAV:   5    -0.295103784243E+04    0.41201E-04   -0.45945E-04  6720   0.156E-02    0.317E-02
DAV:   6    -0.295103783525E+04    0.71828E-05   -0.72871E-05  6224   0.842E-03
  61 F= -.29873068E+04 E0= -.29873068E+04  d E =-.242888E-02  mag=    -0.0000
       N       E                     dE             d eps       ncg     rms          rms(c)
DAV:   1    -0.295103988492E+04   -0.20425E-02   -0.29823E-01  5632   0.486E-01    0.169E-01
DAV:   2    -0.295104056796E+04   -0.68304E-03   -0.82801E-03  6816   0.748E-02    0.781E-02
DAV:   3    -0.295104051033E+04    0.57630E-04   -0.19921E-04  6848   0.145E-02    0.513E-02
DAV:   4    -0.295104050559E+04    0.47375E-05   -0.20237E-04  6784   0.118E-02    0.427E-02
DAV:   5    -0.295104048666E+04    0.18929E-04   -0.16008E-04  6336   0.904E-03    0.139E-02
DAV:   6    -0.295104048561E+04    0.10527E-05   -0.19723E-05  5280   0.486E-03
  62 F= -.29873093E+04 E0= -.29873093E+04  d E =-.254993E-02  mag=    -0.0000
       N       E                     dE             d eps       ncg     rms          rms(c)
DAV:   1    -0.295104082084E+04   -0.33418E-03   -0.34251E-01  5632   0.521E-01    0.181E-01
DAV:   2    -0.295104159824E+04   -0.77740E-03   -0.94442E-03  6880   0.802E-02    0.837E-02
DAV:   3    -0.295104152655E+04    0.71692E-04   -0.20660E-04  6944   0.157E-02    0.553E-02
DAV:   4    -0.295104150814E+04    0.18406E-04   -0.15325E-04  6848   0.130E-02    0.394E-02
DAV:   5    -0.295104149261E+04    0.15526E-04   -0.12164E-04  6656   0.102E-02    0.159E-02
DAV:   6    -0.295104149017E+04    0.24437E-05   -0.22713E-05  5376   0.562E-03
  63 F= -.29873102E+04 E0= -.29873102E+04  d E =-.344701E-02  mag=    -0.0000
       N       E                     dE             d eps       ncg     rms          rms(c)
DAV:   1    -0.295104301245E+04   -0.15198E-02   -0.25414E-01  5632   0.451E-01    0.149E-01
DAV:   2    -0.295104358773E+04   -0.57528E-03   -0.67847E-03  6784   0.675E-02    0.706E-02
DAV:   3    -0.295104354312E+04    0.44604E-04   -0.12541E-04  6912   0.118E-02    0.460E-02
DAV:   4    -0.295104353164E+04    0.11486E-04   -0.10469E-04  6816   0.111E-02    0.260E-02
DAV:   5    -0.295104352965E+04    0.19883E-05   -0.66950E-05  6288   0.643E-03
  64 F= -.29873121E+04 E0= -.29873121E+04  d E =-.190894E-02  mag=     0.0000
       N       E                     dE             d eps       ncg     rms          rms(c)
DAV:   1    -0.295104377773E+04   -0.24610E-03   -0.25612E-01  5632   0.453E-01    0.151E-01
DAV:   2    -0.295104435466E+04   -0.57693E-03   -0.68556E-03  6784   0.680E-02    0.714E-02
DAV:   3    -0.295104430861E+04    0.46043E-04   -0.13127E-04  6912   0.122E-02    0.464E-02
DAV:   4    -0.295104429804E+04    0.10573E-04   -0.11174E-04  6752   0.113E-02    0.293E-02
DAV:   5    -0.295104429331E+04    0.47282E-05   -0.70954E-05  6240   0.680E-03
  65 F= -.29873128E+04 E0= -.29873128E+04  d E =-.254166E-02  mag=     0.0000
       N       E                     dE             d eps       ncg     rms          rms(c)
DAV:   1    -0.295104590729E+04   -0.16092E-02   -0.36020E-01  5632   0.540E-01    0.176E-01
DAV:   2    -0.295104668076E+04   -0.77347E-03   -0.92027E-03  6720   0.795E-02    0.829E-02
DAV:   3    -0.295104662069E+04    0.60067E-04   -0.19119E-04  6848   0.146E-02    0.532E-02
DAV:   4    -0.295104661309E+04    0.75956E-05   -0.17263E-04  6720   0.120E-02    0.431E-02
DAV:   5    -0.295104659765E+04    0.15444E-04   -0.12130E-04  6368   0.920E-03    0.142E-02
DAV:   6    -0.295104659677E+04    0.87579E-06   -0.19465E-05  5472   0.487E-03
  66 F= -.29873149E+04 E0= -.29873149E+04  d E =-.218257E-02  mag=     0.0000
       N       E                     dE             d eps       ncg     rms          rms(c)
DAV:   1    -0.295104672243E+04   -0.12478E-03   -0.43582E-01  5632   0.594E-01    0.195E-01
DAV:   2    -0.295104766042E+04   -0.93799E-03   -0.11138E-02  6848   0.874E-02    0.902E-02
DAV:   3    -0.295104758525E+04    0.75169E-04   -0.23052E-04  6944   0.162E-02    0.583E-02
DAV:   4    -0.295104757424E+04    0.11006E-04   -0.23104E-04  6784   0.136E-02    0.482E-02
DAV:   5    -0.295104755168E+04    0.22566E-04   -0.17351E-04  6560   0.108E-02    0.156E-02
DAV:   6    -0.295104754975E+04    0.19292E-05   -0.29094E-05  5504   0.588E-03
  67 F= -.29873158E+04 E0= -.29873158E+04  d E =-.300276E-02  mag=    -0.0000
       N       E                     dE             d eps       ncg     rms          rms(c)
DAV:   1    -0.295104894135E+04   -0.13897E-02   -0.36248E-01  5632   0.539E-01    0.167E-01
DAV:   2    -0.295104973796E+04   -0.79662E-03   -0.93673E-03  6784   0.794E-02    0.858E-02
DAV:   3    -0.295104968101E+04    0.56958E-04   -0.20882E-04  6848   0.143E-02    0.557E-02
DAV:   4    -0.295104967580E+04    0.52106E-05   -0.20807E-04  6752   0.113E-02    0.474E-02
DAV:   5    -0.295104965602E+04    0.19772E-04   -0.15769E-04  6240   0.946E-03    0.153E-02
DAV:   6    -0.295104965477E+04    0.12561E-05   -0.25384E-05  5536   0.509E-03
  68 F= -.29873178E+04 E0= -.29873178E+04  d E =-.205105E-02  mag=    -0.0000
       N       E                     dE             d eps       ncg     rms          rms(c)
DAV:   1    -0.295104970838E+04   -0.52353E-04   -0.38924E-01  5632   0.559E-01    0.175E-01
DAV:   2    -0.295105056239E+04   -0.85401E-03   -0.10063E-02  6816   0.823E-02    0.887E-02
DAV:   3    -0.295105049931E+04    0.63085E-04   -0.22201E-04  6944   0.150E-02    0.576E-02
DAV:   4    -0.295105049172E+04    0.75905E-05   -0.22125E-04  6784   0.120E-02    0.489E-02
DAV:   5    -0.295105046893E+04    0.22786E-04   -0.16754E-04  6176   0.102E-02    0.158E-02
DAV:   6    -0.295105046706E+04    0.18684E-05   -0.28558E-05  5504   0.556E-03
  69 F= -.29873186E+04 E0= -.29873186E+04  d E =-.280757E-02  mag=    -0.0000
       N       E                     dE             d eps       ncg     rms          rms(c)
DAV:   1    -0.295105172016E+04   -0.12512E-02   -0.43547E-01  5632   0.591E-01    0.192E-01
DAV:   2    -0.295105268151E+04   -0.96135E-03   -0.11281E-02  6784   0.872E-02    0.898E-02
DAV:   3    -0.295105261137E+04    0.70143E-04   -0.23755E-04  6880   0.159E-02    0.595E-02
DAV:   4    -0.295105260559E+04    0.57800E-05   -0.24371E-04  6816   0.128E-02    0.487E-02
DAV:   5    -0.295105258344E+04    0.22153E-04   -0.18431E-04  6336   0.104E-02    0.157E-02
DAV:   6    -0.295105258222E+04    0.12112E-05   -0.29402E-05  5472   0.540E-03
  70 F= -.29873207E+04 E0= -.29873207E+04  d E =-.212837E-02  mag=     0.0000
       N       E                     dE             d eps       ncg     rms          rms(c)
DAV:   1    -0.295105261266E+04   -0.29227E-04   -0.23001E-01  5632   0.430E-01    0.141E-01
DAV:   2    -0.295105312055E+04   -0.50789E-03   -0.59704E-03  6784   0.635E-02    0.645E-02
DAV:   3    -0.295105308274E+04    0.37809E-04   -0.11922E-04  6912   0.117E-02    0.425E-02
DAV:   4    -0.295105307878E+04    0.39532E-05   -0.12731E-04  6784   0.100E-02    0.343E-02
DAV:   5    -0.295105306752E+04    0.11267E-04   -0.99595E-05  5824   0.789E-03    0.116E-02
DAV:   6    -0.295105306678E+04    0.74226E-06   -0.15325E-05  5216   0.413E-03
  71 F= -.29873212E+04 E0= -.29873212E+04  d E =-.262270E-02  mag=     0.0000
       N       E                     dE             d eps       ncg     rms          rms(c)
DAV:   1    -0.295105427873E+04   -0.12112E-02   -0.53914E-01  5632   0.657E-01    0.201E-01
DAV:   2    -0.295105545051E+04   -0.11718E-02   -0.13675E-02  6752   0.961E-02    0.986E-02
DAV:   3    -0.295105536918E+04    0.81334E-04   -0.26007E-04  6848   0.166E-02    0.659E-02
DAV:   4    -0.295105535251E+04    0.16670E-04   -0.21449E-04  6752   0.144E-02    0.446E-02
DAV:   5    -0.295105533787E+04    0.14639E-04   -0.16346E-04  6880   0.983E-03    0.187E-02
DAV:   6    -0.295105533457E+04    0.33018E-05   -0.25470E-05  5472   0.519E-03
  72 F= -.29873235E+04 E0= -.29873235E+04  d E =-.225000E-02  mag=     0.0000
       N       E                     dE             d eps       ncg     rms          rms(c)
DAV:   1    -0.295105534861E+04   -0.10743E-04   -0.24864E-01  5632   0.446E-01    0.138E-01
DAV:   2    -0.295105588973E+04   -0.54112E-03   -0.63519E-03  6848   0.655E-02    0.664E-02
DAV:   3    -0.295105585145E+04    0.38281E-04   -0.12731E-04  6912   0.117E-02    0.448E-02
DAV:   4    -0.295105584574E+04    0.57110E-05   -0.12479E-04  6720   0.993E-03    0.335E-02
DAV:   5    -0.295105583482E+04    0.10919E-04   -0.10493E-04  5888   0.761E-03    0.127E-02
DAV:   6    -0.295105583342E+04    0.14009E-05   -0.15823E-05  5152   0.420E-03
  73 F= -.29873239E+04 E0= -.29873239E+04  d E =-.273708E-02  mag=     0.0000
       N       E                     dE             d eps       ncg     rms          rms(c)
DAV:   1    -0.295105681988E+04   -0.98506E-03   -0.67408E-01  5632   0.735E-01    0.231E-01
DAV:   2    -0.295105828731E+04   -0.14674E-02   -0.17258E-02  6720   0.108E-01    0.112E-01
DAV:   3    -0.295105818204E+04    0.10527E-03   -0.32570E-04  6912   0.186E-02    0.735E-02
DAV:   4    -0.295105815503E+04    0.27008E-04   -0.26942E-04  6784   0.169E-02    0.471E-02
DAV:   5    -0.295105814470E+04    0.10332E-04   -0.22401E-04  6880   0.111E-02    0.220E-02
DAV:   6    -0.295105814024E+04    0.44634E-05   -0.39189E-05  5536   0.566E-03
  74 F= -.29873262E+04 E0= -.29873262E+04  d E =-.226289E-02  mag=     0.0000
       N       E                     dE             d eps       ncg     rms          rms(c)
DAV:   1    -0.295105813678E+04    0.79188E-05   -0.11435E-01  5632   0.303E-01    0.985E-02
DAV:   2    -0.295105838868E+04   -0.25190E-03   -0.29694E-03  6816   0.449E-02    0.454E-02
DAV:   3    -0.295105837148E+04    0.17198E-04   -0.55668E-05  6752   0.806E-03    0.296E-02
DAV:   4    -0.295105836736E+04    0.41188E-05   -0.46121E-05  6208   0.788E-03    0.177E-02
DAV:   5    -0.295105836665E+04    0.71019E-06   -0.38673E-05  5440   0.499E-03
  75 F= -.29873264E+04 E0= -.29873264E+04  d E =-.247135E-02  mag=     0.0000
       N       E                     dE             d eps       ncg     rms          rms(c)
DAV:   1    -0.295105935294E+04   -0.98557E-03   -0.52995E-01  5632   0.650E-01    0.201E-01
DAV:   2    -0.295106051414E+04   -0.11612E-02   -0.13450E-02  6752   0.940E-02    0.102E-01
DAV:   3    -0.295106044008E+04    0.74062E-04   -0.24634E-04  6912   0.158E-02    0.665E-02
DAV:   4    -0.295106042911E+04    0.10968E-04   -0.21507E-04  6752   0.139E-02    0.470E-02
DAV:   5    -0.295106041773E+04    0.11373E-04   -0.18213E-04  6848   0.947E-03    0.191E-02
DAV:   6    -0.295106041497E+04    0.27613E-05   -0.29614E-05  5440   0.479E-03
  76 F= -.29873284E+04 E0= -.29873284E+04  d E =-.200519E-02  mag=     0.0000
       N       E                     dE             d eps       ncg     rms          rms(c)
DAV:   1    -0.295106032274E+04    0.94997E-04   -0.29209E-01  5632   0.482E-01    0.151E-01
DAV:   2    -0.295106096709E+04   -0.64436E-03   -0.74547E-03  6752   0.699E-02    0.748E-02
DAV:   3    -0.295106092662E+04    0.40471E-04   -0.13690E-04  6848   0.118E-02    0.487E-02
DAV:   4    -0.295106092326E+04    0.33661E-05   -0.14465E-04  6784   0.109E-02    0.368E-02
DAV:   5    -0.295106091369E+04    0.95654E-05   -0.12221E-04  6272   0.732E-03    0.133E-02
DAV:   6    -0.295106091245E+04    0.12371E-05   -0.14643E-05  5184   0.375E-03
  77 F= -.29873289E+04 E0= -.29873289E+04  d E =-.247080E-02  mag=     0.0000
       N       E                     dE             d eps       ncg     rms          rms(c)
DAV:   1    -0.295106204169E+04   -0.11280E-02   -0.63850E-01  5632   0.714E-01    0.231E-01
DAV:   2    -0.295106344795E+04   -0.14063E-02   -0.16368E-02  6784   0.104E-01    0.109E-01
DAV:   3    -0.295106334739E+04    0.10056E-03   -0.29329E-04  6880   0.179E-02    0.731E-02
DAV:   4    -0.295106333072E+04    0.16662E-04   -0.26595E-04  6816   0.162E-02    0.493E-02
DAV:   5    -0.295106331435E+04    0.16377E-04   -0.19884E-04  6784   0.108E-02    0.198E-02
DAV:   6    -0.295106331134E+04    0.30069E-05   -0.27653E-05  5440   0.530E-03
  78 F= -.29873312E+04 E0= -.29873312E+04  d E =-.233995E-02  mag=     0.0000
       N       E                     dE             d eps       ncg     rms          rms(c)
DAV:   1    -0.295106313308E+04    0.18127E-03   -0.30378E-01  5632   0.492E-01    0.161E-01
DAV:   2    -0.295106380495E+04   -0.67188E-03   -0.78218E-03  6848   0.721E-02    0.745E-02
DAV:   3    -0.295106375728E+04    0.47669E-04   -0.13502E-04  7040   0.125E-02    0.496E-02
DAV:   4    -0.295106374617E+04    0.11115E-04   -0.12758E-04  6784   0.123E-02    0.285E-02
DAV:   5    -0.295106374315E+04    0.30182E-05   -0.10190E-04  6464   0.749E-03    0.152E-02
DAV:   6    -0.295106374140E+04    0.17504E-05   -0.15487E-05  5088   0.368E-03
  79 F= -.29873316E+04 E0= -.29873316E+04  d E =-.272953E-02  mag=     0.0000
       N       E                     dE             d eps       ncg     rms          rms(c)
DAV:   1    -0.295106450158E+04   -0.75843E-03   -0.55411E-01  5632   0.661E-01    0.203E-01
DAV:   2    -0.295106572588E+04   -0.12243E-02   -0.13949E-02  6720   0.946E-02    0.100E-01
DAV:   3    -0.295106565699E+04    0.68887E-04   -0.25143E-04  6880   0.151E-02    0.687E-02
DAV:   4    -0.295106565572E+04    0.12708E-05   -0.24350E-04  6752   0.127E-02    0.522E-02
DAV:   5    -0.295106563718E+04    0.18542E-04   -0.20864E-04  6720   0.101E-02    0.177E-02
DAV:   6    -0.295106563577E+04    0.14065E-05   -0.29105E-05  5536   0.482E-03
  80 F= -.29873335E+04 E0= -.29873335E+04  d E =-.186078E-02  mag=     0.0000
       N       E                     dE             d eps       ncg     rms          rms(c)
DAV:   1    -0.295106533008E+04    0.30710E-03   -0.49397E-01  5632   0.624E-01    0.193E-01
DAV:   2    -0.295106642346E+04   -0.10934E-02   -0.12465E-02  6688   0.895E-02    0.937E-02
DAV:   3    -0.295106636264E+04    0.60815E-04   -0.22348E-04  6880   0.143E-02    0.644E-02
DAV:   4    -0.295106636382E+04   -0.11807E-05   -0.24874E-04  6784   0.125E-02    0.495E-02
DAV:   5    -0.295106634540E+04    0.18423E-04   -0.21570E-04  6528   0.977E-03    0.168E-02
DAV:   6    -0.295106634402E+04    0.13832E-05   -0.26219E-05  5376   0.469E-03
  81 F= -.29873341E+04 E0= -.29873341E+04  d E =-.253755E-02  mag=     0.0000
       N       E                     dE             d eps       ncg     rms          rms(c)
DAV:   1    -0.295106743117E+04   -0.10858E-02   -0.64882E-01  5632   0.719E-01    0.238E-01
DAV:   2    -0.295106886703E+04   -0.14359E-02   -0.16864E-02  6784   0.106E-01    0.113E-01
DAV:   3    -0.295106876639E+04    0.10064E-03   -0.37665E-04  6944   0.192E-02    0.746E-02
DAV:   4    -0.295106876024E+04    0.61460E-05   -0.35815E-04  6752   0.147E-02    0.612E-02
DAV:   5    -0.295106872743E+04    0.32811E-04   -0.29453E-04  6528   0.124E-02    0.203E-02
DAV:   6    -0.295106872565E+04    0.17838E-05   -0.46320E-05  5792   0.652E-03
  82 F= -.29873365E+04 E0= -.29873365E+04  d E =-.234378E-02  mag=     0.0000
       N       E                     dE             d eps       ncg     rms          rms(c)
DAV:   1    -0.295106876309E+04   -0.35662E-04   -0.10101E-01  5632   0.284E-01    0.972E-02
DAV:   2    -0.295106898974E+04   -0.22664E-03   -0.26560E-03  6848   0.421E-02    0.433E-02
DAV:   3    -0.295106897485E+04    0.14887E-04   -0.55521E-05  6624   0.774E-03    0.287E-02
DAV:   4    -0.295106897509E+04   -0.24016E-06   -0.59935E-05  5568   0.653E-03    0.234E-02
DAV:   5    -0.295106897102E+04    0.40724E-05   -0.52500E-05  5376   0.546E-03
  83 F= -.29873367E+04 E0= -.29873367E+04  d E =-.257432E-02  mag=     0.0000
       N       E                     dE             d eps       ncg     rms          rms(c)
DAV:   1    -0.295107004589E+04   -0.10708E-02   -0.43216E-01  5632   0.588E-01    0.185E-01
DAV:   2    -0.295107098821E+04   -0.94231E-03   -0.10946E-02  6688   0.857E-02    0.962E-02
DAV:   3    -0.295107092677E+04    0.61439E-04   -0.26991E-04  6848   0.156E-02    0.618E-02
DAV:   4    -0.295107092525E+04    0.15191E-05   -0.25175E-04  6752   0.116E-02    0.539E-02
DAV:   5    -0.295107090298E+04    0.22265E-04   -0.19345E-04  6176   0.102E-02    0.173E-02
DAV:   6    -0.295107090264E+04    0.34721E-06   -0.31682E-05  5568   0.521E-03
  84 F= -.29873386E+04 E0= -.29873386E+04  d E =-.188039E-02  mag=     0.0000
       N       E                     dE             d eps       ncg     rms          rms(c)
DAV:   1    -0.295107089095E+04    0.12033E-04   -0.26192E-01  5632   0.458E-01    0.147E-01
DAV:   2    -0.295107146695E+04   -0.57600E-03   -0.66759E-03  6784   0.669E-02    0.735E-02
DAV:   3    -0.295107142974E+04    0.37211E-04   -0.15249E-04  6848   0.120E-02    0.473E-02
DAV:   4    -0.295107143061E+04   -0.87125E-06   -0.16878E-04  6560   0.956E-03    0.418E-02
DAV:   5    -0.295107141598E+04    0.14624E-04   -0.13254E-04  5856   0.820E-03    0.130E-02
DAV:   6    -0.295107141571E+04    0.27276E-06   -0.18303E-05  5312   0.425E-03
  85 F= -.29873391E+04 E0= -.29873391E+04  d E =-.235372E-02  mag=     0.0000
       N       E                     dE             d eps       ncg     rms          rms(c)
DAV:   1    -0.295107258842E+04   -0.11724E-02   -0.38572E-01  5632   0.557E-01    0.177E-01
DAV:   2    -0.295107341620E+04   -0.82778E-03   -0.95967E-03  6784   0.801E-02    0.872E-02
DAV:   3    -0.295107336171E+04    0.54493E-04   -0.19171E-04  6944   0.138E-02    0.553E-02
DAV:   4    -0.295107336078E+04    0.93092E-06   -0.19033E-04  6688   0.115E-02    0.455E-02
DAV:   5    -0.295107334702E+04    0.13755E-04   -0.15311E-04  6208   0.859E-03    0.160E-02
DAV:   6    -0.295107334619E+04    0.82538E-06   -0.20826E-05  5280   0.407E-03
  86 F= -.29873409E+04 E0= -.29873409E+04  d E =-.185860E-02  mag=     0.0000
       N       E                     dE             d eps       ncg     rms          rms(c)
DAV:   1    -0.295107307312E+04    0.27390E-03   -0.61446E-01  5632   0.703E-01    0.224E-01
DAV:   2    -0.295107439255E+04   -0.13194E-02   -0.15297E-02  6816   0.101E-01    0.110E-01
DAV:   3    -0.295107430544E+04    0.87116E-04   -0.32213E-04  6912   0.177E-02    0.701E-02
DAV:   4    -0.295107430611E+04   -0.67556E-06   -0.33994E-04  6784   0.144E-02    0.602E-02
DAV:   5    -0.295107427852E+04    0.27589E-04   -0.27188E-04  6592   0.114E-02    0.200E-02
DAV:   6    -0.295107427713E+04    0.13964E-05   -0.36319E-05  5472   0.544E-03
  87 F= -.29873418E+04 E0= -.29873418E+04  d E =-.269902E-02  mag=     0.0000
       N       E                     dE             d eps       ncg     rms          rms(c)
DAV:   1    -0.295107518445E+04   -0.90593E-03   -0.44366E-01  5632   0.597E-01    0.185E-01
DAV:   2    -0.295107615250E+04   -0.96805E-03   -0.11079E-02  6752   0.859E-02    0.888E-02
DAV:   3    -0.295107609651E+04    0.55987E-04   -0.20078E-04  6912   0.143E-02    0.577E-02
DAV:   4    -0.295107609337E+04    0.31460E-05   -0.19923E-04  6816   0.127E-02    0.433E-02
DAV:   5    -0.295107608231E+04    0.11053E-04   -0.17072E-04  6560   0.891E-03    0.170E-02
DAV:   6    -0.295107608076E+04    0.15500E-05   -0.22398E-05  5312   0.429E-03
  88 F= -.29873435E+04 E0= -.29873435E+04  d E =-.175675E-02  mag=     0.0000
       N       E                     dE             d eps       ncg     rms          rms(c)
DAV:   1    -0.295107579289E+04    0.28942E-03   -0.44406E-01  5632   0.598E-01    0.185E-01
DAV:   2    -0.295107676064E+04   -0.96775E-03   -0.11082E-02  6752   0.860E-02    0.889E-02
DAV:   3    -0.295107670338E+04    0.57264E-04   -0.20555E-04  6944   0.145E-02    0.580E-02
DAV:   4    -0.295107669963E+04    0.37446E-05   -0.19877E-04  6784   0.126E-02    0.449E-02
DAV:   5    -0.295107668590E+04    0.13730E-04   -0.16981E-04  6464   0.946E-03    0.167E-02
DAV:   6    -0.295107668440E+04    0.14989E-05   -0.23631E-05  5344   0.466E-03
  89 F= -.29873441E+04 E0= -.29873441E+04  d E =-.231363E-02  mag=     0.0000
       N       E                     dE             d eps       ncg     rms          rms(c)
DAV:   1    -0.295107750091E+04   -0.81501E-03   -0.57308E-01  5632   0.679E-01    0.209E-01
DAV:   2    -0.295107874477E+04   -0.12439E-02   -0.14241E-02  6720   0.980E-02    0.965E-02
DAV:   3    -0.295107867026E+04    0.74519E-04   -0.26080E-04  6976   0.165E-02    0.639E-02
DAV:   4    -0.295107866347E+04    0.67856E-05   -0.25015E-04  6816   0.145E-02    0.442E-02
DAV:   5    -0.295107865175E+04    0.11721E-04   -0.20806E-04  6656   0.944E-03    0.191E-02
DAV:   6    -0.295107864907E+04    0.26761E-05   -0.27341E-05  5280   0.461E-03
  90 F= -.29873461E+04 E0= -.29873461E+04  d E =-.198960E-02  mag=     0.0000
       N       E                     dE             d eps       ncg     rms          rms(c)
DAV:   1    -0.295107766552E+04    0.98623E-03   -0.65608E-01  5632   0.727E-01    0.225E-01
DAV:   2    -0.295107909099E+04   -0.14255E-02   -0.16308E-02  6688   0.105E-01    0.103E-01
DAV:   3    -0.295107900449E+04    0.86500E-04   -0.29105E-04  6976   0.177E-02    0.679E-02
DAV:   4    -0.295107899084E+04    0.13651E-04   -0.25620E-04  6720   0.159E-02    0.433E-02
DAV:   5    -0.295107898193E+04    0.89168E-05   -0.20824E-04  6656   0.100E-02    0.210E-02
DAV:   6    -0.295107897835E+04    0.35795E-05   -0.31022E-05  5312   0.494E-03
  91 F= -.29873464E+04 E0= -.29873464E+04  d E =-.234575E-02  mag=     0.0000
       N       E                     dE             d eps       ncg     rms          rms(c)
DAV:   1    -0.295107970228E+04   -0.72036E-03   -0.42002E-01  5632   0.578E-01    0.174E-01
DAV:   2    -0.295108061691E+04   -0.91463E-03   -0.10307E-02  6656   0.824E-02    0.822E-02
DAV:   3    -0.295108057117E+04    0.45742E-04   -0.17065E-04  6912   0.132E-02    0.546E-02
DAV:   4    -0.295108056905E+04    0.21209E-05   -0.17084E-04  6720   0.125E-02    0.358E-02
DAV:   5    -0.295108056384E+04    0.52106E-05   -0.14334E-04  6464   0.792E-03    0.163E-02
DAV:   6    -0.295108056236E+04    0.14763E-05   -0.19804E-05  5216   0.393E-03
  92 F= -.29873480E+04 E0= -.29873480E+04  d E =-.158138E-02  mag=     0.0000
       N       E                     dE             d eps       ncg     rms          rms(c)
DAV:   1    -0.295107954664E+04    0.10172E-02   -0.94820E-01  5632   0.869E-01    0.260E-01
DAV:   2    -0.295108160467E+04   -0.20580E-02   -0.23222E-02  6688   0.124E-01    0.124E-01
DAV:   3    -0.295108149711E+04    0.10756E-03   -0.38739E-04  6976   0.201E-02    0.831E-02
DAV:   4    -0.295108148725E+04    0.98635E-05   -0.35936E-04  6752   0.188E-02    0.547E-02
DAV:   5    -0.295108147094E+04    0.16315E-04   -0.29241E-04  6816   0.123E-02    0.242E-02
DAV:   6    -0.295108146618E+04    0.47605E-05   -0.42011E-05  5472   0.610E-03
  93 F= -.29873489E+04 E0= -.29873489E+04  d E =-.248152E-02  mag=     0.0000
       N       E                     dE             d eps       ncg     rms          rms(c)
DAV:   1    -0.295108306042E+04   -0.15895E-02   -0.36650E-01  5632   0.545E-01    0.187E-01
DAV:   2    -0.295108386834E+04   -0.80793E-03   -0.95431E-03  6784   0.815E-02    0.833E-02
DAV:   3    -0.295108380650E+04    0.61846E-04   -0.19751E-04  6944   0.151E-02    0.536E-02
DAV:   4    -0.295108379845E+04    0.80441E-05   -0.18454E-04  6816   0.131E-02    0.358E-02
DAV:   5    -0.295108379079E+04    0.76624E-05   -0.14791E-04  6688   0.831E-03    0.169E-02
DAV:   6    -0.295108378891E+04    0.18819E-05   -0.21982E-05  5280   0.433E-03
  94 F= -.29873512E+04 E0= -.29873512E+04  d E =-.224689E-02  mag=     0.0000
       N       E                     dE             d eps       ncg     rms          rms(c)
DAV:   1    -0.295108393532E+04   -0.14453E-03   -0.20561E-01  5632   0.408E-01    0.140E-01
DAV:   2    -0.295108438827E+04   -0.45295E-03   -0.53532E-03  6816   0.611E-02    0.621E-02
DAV:   3    -0.295108435198E+04    0.36293E-04   -0.10979E-04  6912   0.115E-02    0.405E-02
DAV:   4    -0.295108434601E+04    0.59729E-05   -0.90621E-05  6784   0.977E-03    0.276E-02
DAV:   5    -0.295108434015E+04    0.58544E-05   -0.64661E-05  5760   0.668E-03
  95 F= -.29873517E+04 E0= -.29873517E+04  d E =-.274149E-02  mag=    -0.0000
       N       E                     dE             d eps       ncg     rms          rms(c)
DAV:   1    -0.295108563705E+04   -0.12910E-02   -0.28617E-01  5632   0.481E-01    0.162E-01
DAV:   2    -0.295108625546E+04   -0.61841E-03   -0.72350E-03  6720   0.708E-02    0.740E-02
DAV:   3    -0.295108621144E+04    0.44028E-04   -0.13912E-04  6912   0.128E-02    0.477E-02
DAV:   4    -0.295108620386E+04    0.75788E-05   -0.11159E-04  6784   0.115E-02    0.290E-02
DAV:   5    -0.295108620092E+04    0.29394E-05   -0.69773E-05  6048   0.708E-03
  96 F= -.29873535E+04 E0= -.29873535E+04  d E =-.182657E-02  mag=     0.0000
       N       E                     dE             d eps       ncg     rms          rms(c)
DAV:   1    -0.295108624617E+04   -0.42317E-04   -0.34791E-01  5632   0.531E-01    0.181E-01
DAV:   2    -0.295108699624E+04   -0.75007E-03   -0.88133E-03  6752   0.783E-02    0.814E-02
DAV:   3    -0.295108694158E+04    0.54656E-04   -0.17011E-04  6944   0.143E-02    0.525E-02
DAV:   4    -0.295108692897E+04    0.12611E-04   -0.13170E-04  6752   0.131E-02    0.300E-02
DAV:   5    -0.295108692660E+04    0.23673E-05   -0.85007E-05  6496   0.805E-03
  97 F= -.29873542E+04 E0= -.29873542E+04  d E =-.251457E-02  mag=     0.0000
       N       E                     dE             d eps       ncg     rms          rms(c)
DAV:   1    -0.295108803886E+04   -0.11099E-02   -0.31259E-01  5632   0.503E-01    0.165E-01
DAV:   2    -0.295108870245E+04   -0.66359E-03   -0.77247E-03  6752   0.730E-02    0.740E-02
DAV:   3    -0.295108866141E+04    0.41038E-04   -0.14884E-04  6880   0.127E-02    0.485E-02
DAV:   4    -0.295108865940E+04    0.20069E-05   -0.12399E-04  6784   0.110E-02    0.335E-02
DAV:   5    -0.295108865407E+04    0.53319E-05   -0.87239E-05  5984   0.708E-03
  98 F= -.29873561E+04 E0= -.29873561E+04  d E =-.189049E-02  mag=     0.0000
       N       E                     dE             d eps       ncg     rms          rms(c)
DAV:   1    -0.295108836717E+04    0.29224E-03   -0.59632E-01  5632   0.695E-01    0.228E-01
DAV:   2    -0.295108962842E+04   -0.12613E-02   -0.14698E-02  6752   0.101E-01    0.102E-01
DAV:   3    -0.295108954597E+04    0.82446E-04   -0.28837E-04  6976   0.178E-02    0.674E-02
DAV:   4    -0.295108953988E+04    0.60984E-05   -0.24771E-04  6784   0.150E-02    0.490E-02
DAV:   5    -0.295108952333E+04    0.16549E-04   -0.18628E-04  6816   0.106E-02    0.194E-02
DAV:   6    -0.295108952079E+04    0.25392E-05   -0.27689E-05  5344   0.556E-03
  99 F= -.29873572E+04 E0= -.29873572E+04  d E =-.298247E-02  mag=    -0.0000
       N       E                     dE             d eps       ncg     rms          rms(c)
DAV:   1    -0.295109031251E+04   -0.78918E-03   -0.48607E-01  5632   0.628E-01    0.205E-01
DAV:   2    -0.295109135295E+04   -0.10404E-02   -0.12123E-02  6752   0.921E-02    0.942E-02
DAV:   3    -0.295109128103E+04    0.71914E-04   -0.25970E-04  6912   0.165E-02    0.613E-02
DAV:   4    -0.295109128115E+04   -0.11502E-06   -0.26759E-04  6816   0.133E-02    0.504E-02
DAV:   5    -0.295109125961E+04    0.21540E-04   -0.20790E-04  6336   0.101E-02    0.165E-02
DAV:   6    -0.295109125932E+04    0.29168E-06   -0.28162E-05  5344   0.529E-03
 100 F= -.29873593E+04 E0= -.29873593E+04  d E =-.214047E-02  mag=     0.0000
       N       E                     dE             d eps       ncg     rms          rms(c)
DAV:   1    -0.295109048436E+04    0.77525E-03   -0.42804E-01  5632   0.589E-01    0.194E-01
DAV:   2    -0.295109140022E+04   -0.91586E-03   -0.10671E-02  6784   0.864E-02    0.874E-02
DAV:   3    -0.295109133521E+04    0.65008E-04   -0.20390E-04  7008   0.153E-02    0.562E-02
DAV:   4    -0.295109132849E+04    0.67169E-05   -0.19464E-04  6752   0.135E-02    0.404E-02
DAV:   5    -0.295109131748E+04    0.11015E-04   -0.15181E-04  6528   0.896E-03    0.164E-02
DAV:   6    -0.295109131632E+04    0.11561E-05   -0.20652E-05  5248   0.461E-03
 101 F= -.29873597E+04 E0= -.29873597E+04  d E =-.257478E-02  mag=    -0.0000
       N       E                     dE             d eps       ncg     rms          rms(c)
DAV:   1    -0.295109185561E+04   -0.53813E-03   -0.37470E-01  5632   0.545E-01    0.174E-01
DAV:   2    -0.295109265530E+04   -0.79969E-03   -0.90898E-03  6688   0.783E-02    0.828E-02
DAV:   3    -0.295109261436E+04    0.40939E-04   -0.19025E-04  6944   0.132E-02    0.542E-02
DAV:   4    -0.295109261992E+04   -0.55620E-05   -0.19980E-04  6624   0.105E-02    0.461E-02
DAV:   5    -0.295109260637E+04    0.13558E-04   -0.15943E-04  5824   0.858E-03    0.144E-02
DAV:   6    -0.295109260703E+04   -0.66066E-06   -0.21822E-05  5280   0.434E-03
 102 F= -.29873613E+04 E0= -.29873613E+04  d E =-.161536E-02  mag=     0.0000
       N       E                     dE             d eps       ncg     rms          rms(c)
DAV:   1    -0.295109161404E+04    0.99232E-03   -0.75202E-01  5632   0.773E-01    0.246E-01
DAV:   2    -0.295109321469E+04   -0.16006E-02   -0.18218E-02  6688   0.111E-01    0.117E-01
DAV:   3    -0.295109312953E+04    0.85155E-04   -0.37391E-04  6944   0.187E-02    0.766E-02
DAV:   4    -0.295109313704E+04   -0.75047E-05   -0.38598E-04  6816   0.151E-02    0.648E-02
DAV:   5    -0.295109310787E+04    0.29171E-04   -0.31018E-04  6496   0.122E-02    0.205E-02
DAV:   6    -0.295109310713E+04    0.73161E-06   -0.44013E-05  5632   0.618E-03
 103 F= -.29873623E+04 E0= -.29873623E+04  d E =-.257551E-02  mag=     0.0000
       N       E                     dE             d eps       ncg     rms          rms(c)
DAV:   1    -0.295109469704E+04   -0.15892E-02   -0.38290E-01  5632   0.557E-01    0.195E-01
DAV:   2    -0.295109551115E+04   -0.81411E-03   -0.97244E-03  6752   0.833E-02    0.862E-02
DAV:   3    -0.295109544319E+04    0.67960E-04   -0.25839E-04  6912   0.164E-02    0.555E-02
DAV:   4    -0.295109544437E+04   -0.11832E-05   -0.28977E-04  6752   0.125E-02    0.493E-02
DAV:   5    -0.295109542109E+04    0.23288E-04   -0.20176E-04  6016   0.985E-03    0.143E-02
DAV:   6    -0.295109542156E+04   -0.47201E-06   -0.24838E-05  5280   0.522E-03
 104 F= -.29873648E+04 E0= -.29873648E+04  d E =-.246215E-02  mag=     0.0000
       N       E                     dE             d eps       ncg     rms          rms(c)
DAV:   1    -0.295109548893E+04   -0.67843E-04   -0.21400E-01  5632   0.416E-01    0.146E-01
DAV:   2    -0.295109594457E+04   -0.45564E-03   -0.54263E-03  6880   0.623E-02    0.633E-02
DAV:   3    -0.295109590476E+04    0.39807E-04   -0.12345E-04  6912   0.121E-02    0.404E-02
DAV:   4    -0.295109590211E+04    0.26494E-05   -0.12474E-04  6752   0.977E-03    0.332E-02
DAV:   5    -0.295109589234E+04    0.97720E-05   -0.92774E-05  5472   0.719E-03
 105 F= -.29873653E+04 E0= -.29873653E+04  d E =-.304346E-02  mag=     0.0000
       N       E                     dE             d eps       ncg     rms          rms(c)
DAV:   1    -0.295109710169E+04   -0.11996E-02   -0.41027E-01  5632   0.577E-01    0.185E-01
DAV:   2    -0.295109795470E+04   -0.85301E-03   -0.99949E-03  6784   0.839E-02    0.860E-02
DAV:   3    -0.295109789289E+04    0.61809E-04   -0.24270E-04  6880   0.155E-02    0.573E-02
DAV:   4    -0.295109789081E+04    0.20747E-05   -0.22412E-04  6752   0.117E-02    0.469E-02
DAV:   5    -0.295109787189E+04    0.18923E-04   -0.16362E-04  6208   0.947E-03    0.151E-02
DAV:   6    -0.295109787155E+04    0.34116E-06   -0.25344E-05  5312   0.490E-03
 106 F= -.29873675E+04 E0= -.29873675E+04  d E =-.213101E-02  mag=     0.0000
       N       E                     dE             d eps       ncg     rms          rms(c)
DAV:   1    -0.295109771137E+04    0.16052E-03   -0.31943E-01  5632   0.509E-01    0.164E-01
DAV:   2    -0.295109837907E+04   -0.66770E-03   -0.78100E-03  6784   0.741E-02    0.759E-02
DAV:   3    -0.295109833106E+04    0.48007E-04   -0.20649E-04  6880   0.138E-02    0.504E-02
DAV:   4    -0.295109833061E+04    0.45000E-06   -0.22201E-04  6688   0.104E-02    0.438E-02
DAV:   5    -0.295109831193E+04    0.18675E-04   -0.15567E-04  6016   0.883E-03    0.127E-02
DAV:   6    -0.295109831204E+04   -0.10867E-06   -0.19268E-05  5248   0.456E-03
 107 F= -.29873681E+04 E0= -.29873681E+04  d E =-.270566E-02  mag=     0.0000
[...]
 445 F= -.29885551E+04 E0= -.29885551E+04  d E =-.124464E-02  mag=     0.0000
       N       E                     dE             d eps       ncg     rms          rms(c)
DAV:   1    -0.295162844131E+04    0.63366E-04   -0.32337E-02  5696   0.162E-01    0.538E-02
DAV:   2    -0.295162851304E+04   -0.71739E-04   -0.85507E-04  6880   0.245E-02    0.228E-02
DAV:   3    -0.295162850762E+04    0.54231E-05   -0.14720E-05  5280   0.469E-03    0.143E-02
DAV:   4    -0.295162850640E+04    0.12224E-05   -0.13378E-05  4928   0.503E-03    0.565E-03
DAV:   5    -0.295162850722E+04   -0.82591E-06   -0.72465E-06  4928   0.273E-03
 446 F= -.29885552E+04 E0= -.29885552E+04  d E =-.133034E-02  mag=     0.0000
       N       E                     dE             d eps       ncg     rms          rms(c)
DAV:   1    -0.295162903832E+04   -0.53192E-03   -0.18068E-01  5632   0.387E-01    0.121E-01
DAV:   2    -0.295162941839E+04   -0.38008E-03   -0.46119E-03  6816   0.579E-02    0.547E-02
DAV:   3    -0.295162938432E+04    0.34070E-04   -0.10172E-04  6944   0.113E-02    0.347E-02
DAV:   4    -0.295162937390E+04    0.10425E-04   -0.69407E-05  6784   0.965E-03    0.197E-02
DAV:   5    -0.295162937263E+04    0.12740E-05   -0.42748E-05  5632   0.591E-03
 447 F= -.29885562E+04 E0= -.29885562E+04  d E =-.101489E-02  mag=     0.0000
       N       E                     dE             d eps       ncg     rms          rms(c)
DAV:   1    -0.295162935484E+04    0.19062E-04   -0.53146E-02  5696   0.210E-01    0.692E-02
DAV:   2    -0.295162946560E+04   -0.11076E-03   -0.13740E-03  6816   0.318E-02    0.297E-02
DAV:   3    -0.295162945489E+04    0.10712E-04   -0.30105E-05  6080   0.659E-03    0.186E-02
DAV:   4    -0.295162945041E+04    0.44838E-05   -0.19006E-05  4960   0.630E-03    0.751E-03
DAV:   5    -0.295162945084E+04   -0.43371E-06   -0.10250E-05  4960   0.377E-03
 448 F= -.29885564E+04 E0= -.29885564E+04  d E =-.117370E-02  mag=     0.0000
       N       E                     dE             d eps       ncg     rms          rms(c)
DAV:   1    -0.295162994217E+04   -0.49176E-03   -0.23516E-01  5632   0.443E-01    0.131E-01
DAV:   2    -0.295163042888E+04   -0.48672E-03   -0.58338E-03  6752   0.647E-02    0.595E-02
DAV:   3    -0.295163038946E+04    0.39425E-04   -0.11272E-04  6976   0.115E-02    0.381E-02
DAV:   4    -0.295163037855E+04    0.10910E-04   -0.79071E-05  6688   0.104E-02    0.196E-02
DAV:   5    -0.295163037877E+04   -0.22235E-06   -0.40698E-05  5824   0.581E-03
 449 F= -.29885574E+04 E0= -.29885574E+04  d E =-.100702E-02  mag=     0.0000
       N       E                     dE             d eps       ncg     rms          rms(c)
DAV:   1    -0.295163035850E+04    0.20050E-04   -0.52853E-02  5696   0.210E-01    0.656E-02
DAV:   2    -0.295163046746E+04   -0.10897E-03   -0.13285E-03  6848   0.310E-02    0.284E-02
DAV:   3    -0.295163045854E+04    0.89197E-05   -0.25144E-05  5760   0.586E-03    0.178E-02
DAV:   4    -0.295163045594E+04    0.26042E-05   -0.18705E-05  5120   0.577E-03    0.861E-03
DAV:   5    -0.295163045655E+04   -0.61112E-06   -0.10525E-05  4992   0.332E-03
 450 F= -.29885575E+04 E0= -.29885575E+04  d E =-.112145E-02  mag=     0.0000
       N       E                     dE             d eps       ncg     rms          rms(c)
DAV:   1    -0.295163083822E+04   -0.38228E-03   -0.19270E-01  5632   0.400E-01    0.114E-01
DAV:   2    -0.295163124121E+04   -0.40299E-03   -0.47667E-03  6656   0.583E-02    0.533E-02
DAV:   3    -0.295163121185E+04    0.29362E-04   -0.90679E-05  6912   0.102E-02    0.345E-02
DAV:   4    -0.295163120423E+04    0.76168E-05   -0.63122E-05  6528   0.915E-03    0.206E-02
DAV:   5    -0.295163120290E+04    0.13295E-05   -0.38256E-05  5664   0.557E-03
 451 F= -.29885584E+04 E0= -.29885584E+04  d E =-.884142E-03  mag=     0.0000
       N       E                     dE             d eps       ncg     rms          rms(c)
DAV:   1    -0.295163110588E+04    0.98355E-04   -0.10688E-01  5632   0.298E-01    0.872E-02
DAV:   2    -0.295163132756E+04   -0.22168E-03   -0.26566E-03  6848   0.436E-02    0.398E-02
DAV:   3    -0.295163131105E+04    0.16514E-04   -0.50955E-05  6816   0.788E-03    0.253E-02
DAV:   4    -0.295163130546E+04    0.55844E-05   -0.32889E-05  6208   0.737E-03    0.124E-02
DAV:   5    -0.295163130571E+04   -0.24575E-06   -0.15432E-05  4992   0.424E-03
 452 F= -.29885586E+04 E0= -.29885586E+04  d E =-.108955E-02  mag=     0.0000
       N       E                     dE             d eps       ncg     rms          rms(c)
DAV:   1    -0.295163175954E+04   -0.45408E-03   -0.20520E-01  5632   0.413E-01    0.124E-01
DAV:   2    -0.295163218442E+04   -0.42488E-03   -0.51109E-03  6752   0.607E-02    0.551E-02
DAV:   3    -0.295163214841E+04    0.36009E-04   -0.99802E-05  6944   0.111E-02    0.353E-02
DAV:   4    -0.295163213685E+04    0.11560E-04   -0.68389E-05  6656   0.101E-02    0.163E-02
DAV:   5    -0.295163213744E+04   -0.58889E-06   -0.31290E-05  5760   0.546E-03
 453 F= -.29885595E+04 E0= -.29885595E+04  d E =-.928952E-03  mag=     0.0000
       N       E                     dE             d eps       ncg     rms          rms(c)
DAV:   1    -0.295163211710E+04    0.19752E-04   -0.53683E-02  5696   0.211E-01    0.668E-02
DAV:   2    -0.295163222749E+04   -0.11039E-03   -0.13492E-03  6784   0.313E-02    0.283E-02
DAV:   3    -0.295163221775E+04    0.97424E-05   -0.26104E-05  5792   0.609E-03    0.178E-02
DAV:   4    -0.295163221458E+04    0.31758E-05   -0.18982E-05  5024   0.595E-03    0.955E-03
DAV:   5    -0.295163221493E+04   -0.35350E-06   -0.12549E-05  4992   0.356E-03
 454 F= -.29885596E+04 E0= -.29885596E+04  d E =-.105606E-02  mag=     0.0000
       N       E                     dE             d eps       ncg     rms          rms(c)
DAV:   1    -0.295163266832E+04   -0.45375E-03   -0.23300E-01  5632   0.439E-01    0.123E-01
DAV:   2    -0.295163314708E+04   -0.47876E-03   -0.57028E-03  6752   0.639E-02    0.581E-02
DAV:   3    -0.295163311087E+04    0.36210E-04   -0.11285E-04  6944   0.114E-02    0.377E-02
DAV:   4    -0.295163309993E+04    0.10947E-04   -0.74149E-05  6752   0.100E-02    0.199E-02
DAV:   5    -0.295163309948E+04    0.44261E-06   -0.40567E-05  5952   0.576E-03
 455 F= -.29885606E+04 E0= -.29885606E+04  d E =-.904237E-03  mag=     0.0000
       N       E                     dE             d eps       ncg     rms          rms(c)
DAV:   1    -0.295163313188E+04   -0.31949E-04   -0.38566E-02  5696   0.178E-01    0.533E-02
DAV:   2    -0.295163321014E+04   -0.78260E-04   -0.95726E-04  6752   0.263E-02    0.237E-02
DAV:   3    -0.295163320401E+04    0.61280E-05   -0.18555E-05  5440   0.503E-03    0.151E-02
DAV:   4    -0.295163320197E+04    0.20339E-05   -0.13512E-05  4896   0.498E-03    0.681E-03
DAV:   5    -0.295163320241E+04   -0.43149E-06   -0.74032E-06  4992   0.285E-03
 456 F= -.29885607E+04 E0= -.29885607E+04  d E =-.101514E-02  mag=     0.0000
       N       E                     dE             d eps       ncg     rms          rms(c)
DAV:   1    -0.295163368475E+04   -0.48278E-03   -0.23626E-01  5632   0.441E-01    0.128E-01
DAV:   2    -0.295163416636E+04   -0.48161E-03   -0.58075E-03  6752   0.648E-02    0.585E-02
DAV:   3    -0.295163412646E+04    0.39907E-04   -0.11485E-04  6912   0.118E-02    0.375E-02
DAV:   4    -0.295163411183E+04    0.14629E-04   -0.75629E-05  6720   0.108E-02    0.179E-02
DAV:   5    -0.295163411215E+04   -0.32590E-06   -0.44245E-05  5984   0.634E-03
 457 F= -.29885615E+04 E0= -.29885615E+04  d E =-.854779E-03  mag=     0.0000
       N       E                     dE             d eps       ncg     rms          rms(c)
DAV:   1    -0.295163413932E+04   -0.27491E-04   -0.13268E-02  5824   0.105E-01    0.342E-02
DAV:   2    -0.295163416569E+04   -0.26366E-04   -0.33568E-04  6816   0.157E-02    0.141E-02
DAV:   3    -0.295163416325E+04    0.24328E-05   -0.69280E-06  4960   0.345E-03    0.910E-03
DAV:   4    -0.295163416267E+04    0.58702E-06   -0.64166E-06  4800   0.345E-03    0.690E-03
DAV:   5    -0.295163416238E+04    0.28469E-06   -0.51428E-06  4832   0.251E-03
 458 F= -.29885616E+04 E0= -.29885616E+04  d E =-.891823E-03  mag=     0.0000
       N       E                     dE             d eps       ncg     rms          rms(c)
DAV:   1    -0.295163449188E+04   -0.32921E-03   -0.24334E-01  5632   0.447E-01    0.120E-01
DAV:   2    -0.295163498556E+04   -0.49368E-03   -0.58074E-03  6720   0.641E-02    0.576E-02
DAV:   3    -0.295163494958E+04    0.35978E-04   -0.10079E-04  6944   0.107E-02    0.372E-02
DAV:   4    -0.295163493458E+04    0.15005E-04   -0.69432E-05  6624   0.104E-02    0.140E-02
DAV:   5    -0.295163493600E+04   -0.14206E-05   -0.25459E-05  5568   0.540E-03
 459 F= -.29885623E+04 E0= -.29885623E+04  d E =-.791534E-03  mag=     0.0000
       N       E                     dE             d eps       ncg     rms          rms(c)
DAV:   1    -0.295163494316E+04   -0.85823E-05   -0.30596E-02  5696   0.159E-01    0.463E-02
DAV:   2    -0.295163500492E+04   -0.61766E-04   -0.74429E-04  6784   0.230E-02    0.208E-02
DAV:   3    -0.295163500055E+04    0.43754E-05   -0.16716E-05  5216   0.438E-03    0.145E-02
DAV:   4    -0.295163499981E+04    0.74034E-06   -0.12715E-05  4800   0.339E-03    0.108E-02
DAV:   5    -0.295163499894E+04    0.87207E-06   -0.88649E-06  4768   0.336E-03
 460 F= -.29885624E+04 E0= -.29885624E+04  d E =-.860752E-03  mag=     0.0000
       N       E                     dE             d eps       ncg     rms          rms(c)
DAV:   1    -0.295163525568E+04   -0.25587E-03   -0.27831E-01  5632   0.481E-01    0.138E-01
DAV:   2    -0.295163582399E+04   -0.56831E-03   -0.67783E-03  6688   0.698E-02    0.625E-02
DAV:   3    -0.295163577765E+04    0.46340E-04   -0.12961E-04  6912   0.125E-02    0.401E-02
DAV:   4    -0.295163575980E+04    0.17850E-04   -0.81503E-05  6720   0.114E-02    0.143E-02
DAV:   5    -0.295163576151E+04   -0.17094E-05   -0.27286E-05  5696   0.597E-03
 461 F= -.29885632E+04 E0= -.29885632E+04  d E =-.808615E-03  mag=     0.0000
       N       E                     dE             d eps       ncg     rms          rms(c)
DAV:   1    -0.295163576113E+04   -0.13271E-05   -0.80802E-03  5888   0.818E-02    0.279E-02
DAV:   2    -0.295163577751E+04   -0.16384E-04   -0.20596E-04  6816   0.123E-02    0.123E-02
DAV:   3    -0.295163577643E+04    0.10796E-05   -0.87043E-06  4960   0.306E-03    0.906E-03
DAV:   4    -0.295163577596E+04    0.47183E-06   -0.49560E-06  4704   0.212E-03    0.598E-03
DAV:   5    -0.295163577589E+04    0.74855E-07   -0.19840E-06  4704   0.232E-03
 462 F= -.29885632E+04 E0= -.29885632E+04  d E =-.830736E-03  mag=     0.0000
       N       E                     dE             d eps       ncg     rms          rms(c)
DAV:   1    -0.295163612189E+04   -0.34593E-03   -0.20972E-01  5632   0.418E-01    0.117E-01
DAV:   2    -0.295163655139E+04   -0.42950E-03   -0.51161E-03  6720   0.608E-02    0.550E-02
DAV:   3    -0.295163651598E+04    0.35406E-04   -0.95844E-05  6944   0.106E-02    0.356E-02
DAV:   4    -0.295163650323E+04    0.12755E-04   -0.64489E-05  6656   0.982E-03    0.134E-02
DAV:   5    -0.295163650451E+04   -0.12798E-05   -0.23080E-05  5472   0.512E-03
 463 F= -.29885639E+04 E0= -.29885639E+04  d E =-.698982E-03  mag=     0.0000
       N       E                     dE             d eps       ncg     rms          rms(c)
DAV:   1    -0.295163652124E+04   -0.18014E-04   -0.12099E-02  5824   0.100E-01    0.319E-02
DAV:   2    -0.295163654561E+04   -0.24367E-04   -0.30307E-04  6752   0.149E-02    0.138E-02
DAV:   3    -0.295163654365E+04    0.19653E-05   -0.70853E-06  5024   0.307E-03    0.921E-03
DAV:   4    -0.295163654345E+04    0.19465E-06   -0.60408E-06  4768   0.249E-03    0.757E-03
DAV:   5    -0.295163654304E+04    0.41293E-06   -0.36817E-06  4832   0.226E-03
 464 F= -.29885640E+04 E0= -.29885640E+04  d E =-.730279E-03  mag=     0.0000
       N       E                     dE             d eps       ncg     rms          rms(c)
DAV:   1    -0.295163691808E+04   -0.37463E-03   -0.15451E-01  5632   0.358E-01    0.101E-01
DAV:   2    -0.295163723226E+04   -0.31419E-03   -0.37247E-03  6720   0.516E-02    0.466E-02
DAV:   3    -0.295163720702E+04    0.25246E-04   -0.67030E-05  6848   0.903E-03    0.302E-02
DAV:   4    -0.295163719849E+04    0.85330E-05   -0.49017E-05  6464   0.875E-03    0.139E-02
DAV:   5    -0.295163719906E+04   -0.57893E-06   -0.25753E-05  5216   0.476E-03
 465 F= -.29885646E+04 E0= -.29885646E+04  d E =-.613915E-03  mag=     0.0000
       N       E                     dE             d eps       ncg     rms          rms(c)
DAV:   1    -0.295163724056E+04   -0.42072E-04   -0.34775E-02  5696   0.170E-01    0.506E-02
DAV:   2    -0.295163731065E+04   -0.70093E-04   -0.84776E-04  6752   0.247E-02    0.221E-02
DAV:   3    -0.295163730483E+04    0.58234E-05   -0.14221E-05  5216   0.461E-03    0.141E-02
DAV:   4    -0.295163730277E+04    0.20563E-05   -0.12301E-05  4928   0.513E-03    0.470E-03
DAV:   5    -0.295163730336E+04   -0.58656E-06   -0.61812E-06  4800   0.272E-03
 466 F= -.29885647E+04 E0= -.29885647E+04  d E =-.698099E-03  mag=     0.0000
       N       E                     dE             d eps       ncg     rms          rms(c)
DAV:   1    -0.295163769243E+04   -0.38966E-03   -0.15576E-01  5632   0.360E-01    0.104E-01
DAV:   2    -0.295163801454E+04   -0.32211E-03   -0.38406E-03  6720   0.526E-02    0.480E-02
DAV:   3    -0.295163798762E+04    0.26921E-04   -0.74755E-05  6912   0.932E-03    0.307E-02
DAV:   4    -0.295163798018E+04    0.74449E-05   -0.55878E-05  6528   0.832E-03    0.189E-02
DAV:   5    -0.295163797847E+04    0.17046E-05   -0.38288E-05  5376   0.508E-03
 467 F= -.29885653E+04 E0= -.29885653E+04  d E =-.628535E-03  mag=     0.0000
       N       E                     dE             d eps       ncg     rms          rms(c)
DAV:   1    -0.295163800928E+04   -0.29102E-04   -0.14792E-02  5760   0.111E-01    0.346E-02
DAV:   2    -0.295163803933E+04   -0.30048E-04   -0.37053E-04  6848   0.164E-02    0.150E-02
DAV:   3    -0.295163803660E+04    0.27273E-05   -0.66255E-06  4928   0.320E-03    0.936E-03
DAV:   4    -0.295163803575E+04    0.85426E-06   -0.59360E-06  4800   0.347E-03    0.467E-03
DAV:   5    -0.295163803594E+04   -0.19727E-06   -0.38601E-06  4800   0.200E-03
 468 F= -.29885653E+04 E0= -.29885653E+04  d E =-.671611E-03  mag=     0.0000
       N       E                     dE             d eps       ncg     rms          rms(c)
DAV:   1    -0.295163842748E+04   -0.39173E-03   -0.15716E-01  5632   0.362E-01    0.103E-01
DAV:   2    -0.295163875111E+04   -0.32363E-03   -0.38426E-03  6688   0.528E-02    0.482E-02
DAV:   3    -0.295163872524E+04    0.25865E-04   -0.77494E-05  6912   0.954E-03    0.308E-02
DAV:   4    -0.295163871865E+04    0.65953E-05   -0.56028E-05  6464   0.839E-03    0.195E-02
DAV:   5    -0.295163871686E+04    0.17817E-05   -0.38522E-05  5312   0.525E-03
 469 F= -.29885660E+04 E0= -.29885660E+04  d E =-.605215E-03  mag=     0.0000
       N       E                     dE             d eps       ncg     rms          rms(c)
DAV:   1    -0.295163875437E+04   -0.35720E-04   -0.10115E-02  5824   0.917E-02    0.290E-02
DAV:   2    -0.295163877486E+04   -0.20498E-04   -0.25354E-04  6848   0.137E-02    0.125E-02
DAV:   3    -0.295163877319E+04    0.16745E-05   -0.47779E-06  4960   0.282E-03    0.775E-03
DAV:   4    -0.295163877278E+04    0.40868E-06   -0.39554E-06  4800   0.308E-03    0.352E-03
DAV:   5    -0.295163877302E+04   -0.24366E-06   -0.26930E-06  4832   0.177E-03
 470 F= -.29885660E+04 E0= -.29885660E+04  d E =-.642161E-03  mag=     0.0000
       N       E                     dE             d eps       ncg     rms          rms(c)
DAV:   1    -0.295163915037E+04   -0.37759E-03   -0.15675E-01  5632   0.361E-01    0.105E-01
DAV:   2    -0.295163946736E+04   -0.31699E-03   -0.37895E-03  6720   0.526E-02    0.476E-02
DAV:   3    -0.295163944065E+04    0.26705E-04   -0.78113E-05  6912   0.955E-03    0.302E-02
DAV:   4    -0.295163943382E+04    0.68315E-05   -0.56324E-05  6560   0.817E-03    0.189E-02
DAV:   5    -0.295163943206E+04    0.17611E-05   -0.36197E-05  5312   0.494E-03
 471 F= -.29885666E+04 E0= -.29885666E+04  d E =-.624732E-03  mag=     0.0000
       N       E                     dE             d eps       ncg     rms          rms(c)
DAV:   1    -0.295163945836E+04   -0.24537E-04   -0.13928E-02  5760   0.108E-01    0.341E-02
DAV:   2    -0.295163948609E+04   -0.27729E-04   -0.34322E-04  6848   0.159E-02    0.144E-02
DAV:   3    -0.295163948361E+04    0.24711E-05   -0.65689E-06  4960   0.317E-03    0.886E-03
DAV:   4    -0.295163948287E+04    0.74226E-06   -0.55792E-06  4768   0.327E-03    0.433E-03
DAV:   5    -0.295163948306E+04   -0.18970E-06   -0.33523E-06  4832   0.187E-03
 472 F= -.29885667E+04 E0= -.29885667E+04  d E =-.665518E-03  mag=     0.0000
       N       E                     dE             d eps       ncg     rms          rms(c)
DAV:   1    -0.295163982566E+04   -0.34279E-03   -0.14746E-01  5632   0.350E-01    0.975E-02
DAV:   2    -0.295164012233E+04   -0.29667E-03   -0.35189E-03  6688   0.505E-02    0.453E-02
DAV:   3    -0.295164009788E+04    0.24451E-04   -0.70099E-05  6848   0.910E-03    0.289E-02
DAV:   4    -0.295164009059E+04    0.72838E-05   -0.48116E-05  6560   0.813E-03    0.159E-02
DAV:   5    -0.295164008995E+04    0.64360E-06   -0.29471E-05  5312   0.475E-03
 473 F= -.29885672E+04 E0= -.29885672E+04  d E =-.545889E-03  mag=     0.0000
       N       E                     dE             d eps       ncg     rms          rms(c)
DAV:   1    -0.295164012042E+04   -0.29826E-04   -0.12781E-02  5824   0.103E-01    0.315E-02
DAV:   2    -0.295164014563E+04   -0.25207E-04   -0.31126E-04  6752   0.151E-02    0.136E-02
DAV:   3    -0.295164014340E+04    0.22231E-05   -0.57919E-06  4928   0.301E-03    0.838E-03
DAV:   4    -0.295164014271E+04    0.69372E-06   -0.47530E-06  4672   0.320E-03    0.364E-03
DAV:   5    -0.295164014298E+04   -0.27008E-06   -0.29284E-06  4896   0.181E-03
 474 F= -.29885672E+04 E0= -.29885672E+04  d E =-.580946E-03  mag=     0.0000
       N       E                     dE             d eps       ncg     rms          rms(c)
DAV:   1    -0.295164050290E+04   -0.36019E-03   -0.14538E-01  5632   0.345E-01    0.970E-02
DAV:   2    -0.295164079358E+04   -0.29069E-03   -0.34355E-03  6720   0.496E-02    0.439E-02
DAV:   3    -0.295164077102E+04    0.22567E-04   -0.65869E-05  6912   0.876E-03    0.281E-02
DAV:   4    -0.295164076401E+04    0.70095E-05   -0.45551E-05  6464   0.800E-03    0.127E-02
DAV:   5    -0.295164076452E+04   -0.51281E-06   -0.21887E-05  5184   0.421E-03
 475 F= -.29885678E+04 E0= -.29885678E+04  d E =-.516676E-03  mag=     0.0000
       N       E                     dE             d eps       ncg     rms          rms(c)
DAV:   1    -0.295164081346E+04   -0.49453E-04   -0.15585E-02  5760   0.113E-01    0.347E-02
DAV:   2    -0.295164084439E+04   -0.30935E-04   -0.37471E-04  6816   0.164E-02    0.146E-02
DAV:   3    -0.295164084199E+04    0.24011E-05   -0.66732E-06  4960   0.311E-03    0.904E-03
DAV:   4    -0.295164084145E+04    0.54232E-06   -0.60769E-06  4800   0.322E-03    0.427E-03
DAV:   5    -0.295164084170E+04   -0.25000E-06   -0.33213E-06  4864   0.172E-03
 476 F= -.29885678E+04 E0= -.29885678E+04  d E =-.559501E-03  mag=     0.0000
       N       E                     dE             d eps       ncg     rms          rms(c)
DAV:   1    -0.295164124105E+04   -0.39960E-03   -0.13393E-01  5632   0.332E-01    0.951E-02
DAV:   2    -0.295164151195E+04   -0.27090E-03   -0.32203E-03  6720   0.482E-02    0.433E-02
DAV:   3    -0.295164148890E+04    0.23043E-04   -0.61619E-05  6848   0.856E-03    0.273E-02
DAV:   4    -0.295164148197E+04    0.69290E-05   -0.45147E-05  6368   0.805E-03    0.104E-02
DAV:   5    -0.295164148283E+04   -0.85752E-06   -0.16627E-05  5120   0.404E-03
 477 F= -.29885683E+04 E0= -.29885683E+04  d E =-.535667E-03  mag=     0.0000
