       N       E                     dE             d eps       ncg     rms          rms(c)
DAV:   1     0.191368530452E+05    0.19137E+05   -0.81553E+05  6208   0.108E+03
DAV:   2     0.259119640861E+03   -0.18878E+05   -0.18120E+05  7872   0.283E+02
DAV:   3    -0.308058232878E+04   -0.33397E+04   -0.33190E+04  6976   0.125E+02
DAV:   4    -0.318034660109E+04   -0.99764E+02   -0.99337E+02  7056   0.245E+01
DAV:   5    -0.318270860945E+04   -0.23620E+01   -0.23584E+01  7552   0.343E+00    0.199E+02
DAV:   6    -0.157129273611E+04    0.16114E+04   -0.31472E+03  6640   0.449E+01    0.915E+01
DAV:   7    -0.170572593534E+04   -0.13443E+03   -0.31276E+02  7152   0.148E+01    0.651E+01
DAV:   8    -0.171529380945E+04   -0.95679E+01   -0.75932E+01  7280   0.664E+00    0.469E+01
DAV:   9    -0.182997596731E+04   -0.11468E+03   -0.53023E+01  7424   0.656E+00    0.409E+01
DAV:  10    -0.195890102792E+04   -0.12893E+03   -0.81962E+01  7344   0.658E+00    0.348E+01
DAV:  11    -0.215730331987E+04   -0.19840E+03   -0.59913E+01  7088   0.616E+00    0.290E+01
DAV:  12    -0.233451071948E+04   -0.17721E+03   -0.55790E+01  6912   0.564E+00    0.247E+01
DAV:  13    -0.266829678395E+04   -0.33379E+03   -0.22169E+02  6688   0.103E+01    0.188E+01
DAV:  14    -0.286839758649E+04   -0.20010E+03   -0.16116E+02  6896   0.809E+00    0.137E+01
DAV:  15    -0.293275585361E+04   -0.64358E+02   -0.37121E+01  7088   0.382E+00    0.112E+01
DAV:  16    -0.296179662533E+04   -0.29041E+02   -0.11761E+01  6832   0.235E+00    0.935E+00
DAV:  17    -0.297629133550E+04   -0.14495E+02   -0.42438E+00  6928   0.152E+00    0.771E+00
DAV:  18    -0.298525868216E+04   -0.89673E+01   -0.22502E+00  6928   0.113E+00    0.642E+00
DAV:  19    -0.299113621998E+04   -0.58775E+01   -0.14118E+00  6816   0.925E-01    0.556E+00
DAV:  20    -0.299563340797E+04   -0.44972E+01   -0.12318E+00  6752   0.824E-01    0.455E+00
DAV:  21    -0.299957902497E+04   -0.39456E+01   -0.11799E+00  6736   0.726E-01    0.306E+00
DAV:  22    -0.300325937296E+04   -0.36803E+01   -0.85494E-01  6672   0.567E-01    0.210E+00
DAV:  23    -0.300396378934E+04   -0.70442E+00   -0.15581E-01  6640   0.309E-01    0.144E+00
DAV:  24    -0.300501485089E+04   -0.10511E+01   -0.94581E-02  6752   0.306E-01    0.975E-01
DAV:  25    -0.300673457025E+04   -0.17197E+01   -0.47647E-02  6832   0.229E-01    0.595E-01
DAV:  26    -0.300802483204E+04   -0.12903E+01   -0.18781E-02  6928   0.126E-01    0.405E-01
DAV:  27    -0.300928563381E+04   -0.12608E+01   -0.18887E-02  6928   0.114E-01    0.284E-01
DAV:  28    -0.300986838383E+04   -0.58275E+00   -0.70477E-03  7248   0.792E-02    0.203E-01
DAV:  29    -0.301019334986E+04   -0.32497E+00   -0.35366E-03  7072   0.567E-02    0.130E-01
DAV:  30    -0.301037337274E+04   -0.18002E+00   -0.23902E-03  7152   0.405E-02    0.650E-02
DAV:  31    -0.301041265647E+04   -0.39284E-01   -0.60067E-04  7104   0.229E-02    0.477E-02
DAV:  32    -0.301042587700E+04   -0.13221E-01   -0.18175E-04  7152   0.128E-02    0.295E-02
DAV:  33    -0.301043413410E+04   -0.82571E-02   -0.11069E-04  6432   0.905E-03    0.191E-02
DAV:  34    -0.301043760820E+04   -0.34741E-02   -0.44785E-05  6192   0.586E-03    0.146E-02
DAV:  35    -0.301043970127E+04   -0.20931E-02   -0.12457E-05  5440   0.333E-03    0.103E-02
DAV:  36    -0.301044268592E+04   -0.29847E-02   -0.30211E-05  5792   0.440E-03    0.717E-03
DAV:  37    -0.301044376861E+04   -0.10827E-02   -0.68013E-06  5168   0.250E-03    0.566E-03
DAV:  38    -0.301044469108E+04   -0.92247E-03   -0.63498E-06  5168   0.198E-03    0.382E-03
DAV:  39    -0.301044527052E+04   -0.57944E-03   -0.36767E-06  5040   0.161E-03    0.238E-03
DAV:  40    -0.301044557727E+04   -0.30675E-03   -0.25275E-06  5040   0.124E-03    0.149E-03
DAV:  41    -0.301044567076E+04   -0.93490E-04   -0.99667E-07  5040   0.820E-04    0.110E-03
DAV:  42    -0.301044572562E+04   -0.54858E-04   -0.61492E-07  5024   0.618E-04    0.742E-04
DAV:  43    -0.301044575851E+04   -0.32892E-04   -0.38693E-07  5040   0.516E-04    0.513E-04
DAV:  44    -0.301044576944E+04   -0.10932E-04   -0.18045E-07  5040   0.380E-04    0.387E-04
DAV:  45    -0.301044577425E+04   -0.48025E-05   -0.70630E-08  5008   0.249E-04
   1 F= -.30502223E+04 E0= -.30502223E+04  d E =-.305022E+04  mag=    -0.0000
       N       E                     dE             d eps       ncg     rms          rms(c)
DAV:   1    -0.300399239211E+04    0.64534E+01   -0.14338E+03  5824   0.208E+01    0.897E+01
DAV:   2    -0.301188692416E+04   -0.78945E+01   -0.97777E+01  6816   0.537E+00    0.439E+01
DAV:   3    -0.301112413821E+04    0.76279E+00   -0.41239E+00  6896   0.201E+00    0.344E+01
DAV:   4    -0.301129681183E+04   -0.17267E+00   -0.16224E+00  7232   0.107E+00    0.208E+01
DAV:   5    -0.301098455008E+04    0.31226E+00   -0.16089E+00  7632   0.105E+00    0.101E+01
DAV:   6    -0.301088558247E+04    0.98968E-01   -0.45964E-01  7488   0.680E-01    0.154E+00
DAV:   7    -0.301087659891E+04    0.89836E-02   -0.14334E-01  6880   0.302E-01    0.130E+00
DAV:   8    -0.301087374287E+04    0.28560E-02   -0.82584E-03  7008   0.815E-02    0.139E+00
DAV:   9    -0.301087180473E+04    0.19381E-02   -0.88124E-03  6976   0.982E-02    0.870E-01
DAV:  10    -0.301087158051E+04    0.22422E-03   -0.42662E-03  7088   0.636E-02    0.264E-01
DAV:  11    -0.301087144566E+04    0.13484E-03   -0.10137E-03  7040   0.341E-02    0.148E-01
DAV:  12    -0.301087154009E+04   -0.94423E-04   -0.15748E-04  6912   0.121E-02    0.905E-02
DAV:  13    -0.301087174510E+04   -0.20501E-03   -0.61007E-05  6208   0.146E-02    0.521E-02
DAV:  14    -0.301087206756E+04   -0.32247E-03   -0.14766E-04  6560   0.255E-02    0.277E-02
DAV:  15    -0.301087218031E+04   -0.11275E-03   -0.93978E-05  6576   0.111E-02    0.168E-02
DAV:  16    -0.301087223491E+04   -0.54597E-04   -0.20418E-05  6096   0.443E-03    0.123E-02
DAV:  17    -0.301087235714E+04   -0.12223E-03   -0.32999E-06  4800   0.447E-03    0.829E-03
DAV:  18    -0.301087260884E+04   -0.25170E-03   -0.10997E-05  4896   0.917E-03    0.564E-03
DAV:  19    -0.301087269235E+04   -0.83517E-04   -0.14492E-05  5552   0.458E-03    0.383E-03
DAV:  20    -0.301087272488E+04   -0.32525E-04   -0.30902E-06  4992   0.190E-03    0.344E-03
DAV:  21    -0.301087274999E+04   -0.25109E-04   -0.52726E-07  4832   0.766E-04    0.291E-03
DAV:  22    -0.301087278569E+04   -0.35703E-04   -0.41283E-07  4832   0.683E-04    0.177E-03
DAV:  23    -0.301087282642E+04   -0.40729E-04   -0.65116E-07  4832   0.761E-04    0.123E-03
DAV:  24    -0.301087283502E+04   -0.86022E-05   -0.13716E-07  4992   0.379E-04
   2 F= -.30507471E+04 E0= -.30507471E+04  d E =-.524812E+00  mag=    -0.0000
       N       E                     dE             d eps       ncg     rms          rms(c)
DAV:   1    -0.301208856933E+04   -0.12157E+01   -0.42767E+02  5760   0.116E+01    0.295E+01
DAV:   2    -0.301382107145E+04   -0.17325E+01   -0.24362E+01  6976   0.292E+00    0.113E+01
DAV:   3    -0.301356804197E+04    0.25303E+00   -0.11731E+00  6976   0.866E-01    0.756E+00
DAV:   4    -0.301353071428E+04    0.37328E-01   -0.52915E-01  6960   0.566E-01    0.566E+00
DAV:   5    -0.301348405143E+04    0.46663E-01   -0.10404E-01  6912   0.339E-01    0.360E+00
DAV:   6    -0.301348883927E+04   -0.47878E-02   -0.83871E-02  7808   0.366E-01    0.166E+00
DAV:   7    -0.301347301287E+04    0.15826E-01   -0.66851E-02  7104   0.246E-01    0.620E-01
DAV:   8    -0.301346902669E+04    0.39862E-02   -0.24207E-02  7008   0.136E-01    0.284E-01
DAV:   9    -0.301346901893E+04    0.77671E-05   -0.25224E-03  6848   0.402E-02    0.189E-01
DAV:  10    -0.301346906532E+04   -0.46394E-04   -0.68710E-04  6944   0.278E-02    0.125E-01
DAV:  11    -0.301346911400E+04   -0.48678E-04   -0.44752E-04  6880   0.267E-02    0.661E-02
DAV:  12    -0.301346919185E+04   -0.77856E-04   -0.24488E-04  6976   0.164E-02    0.270E-02
DAV:  13    -0.301346927055E+04   -0.78700E-04   -0.26546E-05  6048   0.787E-03    0.173E-02
DAV:  14    -0.301346937527E+04   -0.10471E-03   -0.10450E-05  5184   0.665E-03    0.101E-02
DAV:  15    -0.301346950869E+04   -0.13342E-03   -0.13735E-05  5408   0.912E-03    0.837E-03
DAV:  16    -0.301346954628E+04   -0.37594E-04   -0.13377E-05  5216   0.395E-03    0.522E-03
DAV:  17    -0.301346959293E+04   -0.46650E-04   -0.21389E-06  4864   0.321E-03    0.381E-03
DAV:  18    -0.301346964022E+04   -0.47291E-04   -0.30533E-06  4960   0.332E-03    0.330E-03
DAV:  19    -0.301346967539E+04   -0.35169E-04   -0.30174E-06  4864   0.226E-03    0.250E-03
DAV:  20    -0.301346969324E+04   -0.17851E-04   -0.78426E-07  4896   0.103E-03    0.153E-03
DAV:  21    -0.301346970965E+04   -0.16413E-04   -0.47251E-07  4896   0.718E-04    0.104E-03
DAV:  22    -0.301346971836E+04   -0.87036E-05   -0.20495E-07  4896   0.464E-04
   3 F= -.30533389E+04 E0= -.30533389E+04  d E =-.311659E+01  mag=    -0.0000
       N       E                     dE             d eps       ncg     rms          rms(c)
DAV:   1    -0.301225749385E+04    0.12122E+01   -0.51609E+02  5760   0.170E+01    0.127E+01
DAV:   2    -0.301379672100E+04   -0.15392E+01   -0.20654E+01  7232   0.308E+00    0.616E+00
DAV:   3    -0.301361647243E+04    0.18025E+00   -0.60251E-01  7136   0.701E-01    0.425E+00
DAV:   4    -0.301357555037E+04    0.40922E-01   -0.35297E-01  7360   0.601E-01    0.318E+00
DAV:   5    -0.301351999003E+04    0.55560E-01   -0.28863E-01  7456   0.542E-01    0.133E+00
DAV:   6    -0.301350422761E+04    0.15762E-01   -0.92556E-02  7312   0.318E-01    0.686E-01
DAV:   7    -0.301350189896E+04    0.23287E-02   -0.33612E-02  7200   0.184E-01    0.463E-01
DAV:   8    -0.301350037669E+04    0.15223E-02   -0.49327E-03  7168   0.897E-02    0.272E-01
DAV:   9    -0.301349987628E+04    0.50041E-03   -0.29642E-03  7136   0.626E-02    0.213E-01
DAV:  10    -0.301349932556E+04    0.55071E-03   -0.13753E-03  7040   0.479E-02    0.838E-02
DAV:  11    -0.301349921257E+04    0.11300E-03   -0.30062E-04  7008   0.317E-02    0.434E-02
DAV:  12    -0.301349920158E+04    0.10987E-04   -0.13776E-04  7232   0.279E-02    0.311E-02
DAV:  13    -0.301349926482E+04   -0.63243E-04   -0.19353E-04  6912   0.174E-02    0.306E-02
DAV:  14    -0.301349931456E+04   -0.49735E-04   -0.11105E-05  5312   0.162E-02    0.179E-02
DAV:  15    -0.301349941150E+04   -0.96937E-04   -0.56624E-05  6752   0.218E-02    0.103E-02
DAV:  16    -0.301349944460E+04   -0.33103E-04   -0.57937E-05  6784   0.700E-03    0.968E-03
DAV:  17    -0.301349947617E+04   -0.31572E-04   -0.11822E-06  4832   0.403E-03    0.751E-03
DAV:  18    -0.301349955855E+04   -0.82377E-04   -0.34455E-06  4864   0.742E-03    0.347E-03
DAV:  19    -0.301349960061E+04   -0.42062E-04   -0.10886E-05  5056   0.407E-03    0.377E-03
DAV:  20    -0.301349960571E+04   -0.50986E-05   -0.30819E-06  5056   0.154E-03
   4 F= -.30533715E+04 E0= -.30533715E+04  d E =-.326086E-01  mag=    -0.0000
       N       E                     dE             d eps       ncg     rms          rms(c)
DAV:   1    -0.301411918907E+04   -0.61959E+00   -0.11703E+02  5792   0.784E+00    0.640E+00
DAV:   2    -0.301445767477E+04   -0.33849E+00   -0.46279E+00  7040   0.142E+00    0.251E+00
DAV:   3    -0.301441046331E+04    0.47211E-01   -0.12692E-01  7168   0.366E-01    0.150E+00
DAV:   4    -0.301440172251E+04    0.87408E-02   -0.85202E-02  7072   0.321E-01    0.125E+00
DAV:   5    -0.301439065160E+04    0.11071E-01   -0.44734E-02  7136   0.229E-01    0.456E-01
DAV:   6    -0.301438899111E+04    0.16605E-02   -0.10182E-02  7200   0.108E-01    0.310E-01
DAV:   7    -0.301438845765E+04    0.53346E-03   -0.29433E-03  7040   0.543E-02    0.204E-01
DAV:   8    -0.301438810920E+04    0.34845E-03   -0.57600E-04  6944   0.423E-02    0.109E-01
DAV:   9    -0.301438797648E+04    0.13273E-03   -0.81413E-04  7008   0.388E-02    0.903E-02
DAV:  10    -0.301438782091E+04    0.15556E-03   -0.42201E-04  7104   0.254E-02    0.291E-02
DAV:  11    -0.301438780880E+04    0.12116E-04   -0.85739E-05  6896   0.121E-02    0.246E-02
DAV:  12    -0.301438780363E+04    0.51634E-05   -0.99251E-06  5200   0.575E-03
   5 F= -.30542590E+04 E0= -.30542590E+04  d E =-.920075E+00  mag=    -0.0000
       N       E                     dE             d eps       ncg     rms          rms(c)
DAV:   1    -0.301425978242E+04    0.12803E+00   -0.20718E+02  5760   0.104E+01    0.577E+00
DAV:   2    -0.301483192079E+04   -0.57214E+00   -0.72230E+00  6976   0.183E+00    0.362E+00
DAV:   3    -0.301478242997E+04    0.49491E-01   -0.28714E-01  7104   0.509E-01    0.224E+00
DAV:   4    -0.301477374599E+04    0.86840E-02   -0.80663E-02  6912   0.320E-01    0.207E+00
DAV:   5    -0.301474680389E+04    0.26942E-01   -0.72076E-02  7264   0.310E-01    0.807E-01
DAV:   6    -0.301474260424E+04    0.41996E-02   -0.31194E-02  7136   0.211E-01    0.430E-01
DAV:   7    -0.301474157231E+04    0.10319E-02   -0.11612E-02  7040   0.110E-01    0.318E-01
DAV:   8    -0.301474105702E+04    0.51529E-03   -0.15046E-03  7104   0.432E-02    0.219E-01
DAV:   9    -0.301474066037E+04    0.39664E-03   -0.62044E-04  7680   0.436E-02    0.142E-01
DAV:  10    -0.301474043439E+04    0.22599E-03   -0.71664E-04  7328   0.430E-02    0.690E-02
DAV:  11    -0.301474037857E+04    0.55816E-04   -0.36818E-04  7264   0.297E-02    0.411E-02
DAV:  12    -0.301474039565E+04   -0.17073E-04   -0.12569E-04  7072   0.140E-02    0.367E-02
DAV:  13    -0.301474040688E+04   -0.11234E-04   -0.12349E-05  5408   0.546E-03    0.271E-02
DAV:  14    -0.301474045992E+04   -0.53042E-04   -0.39394E-05  6400   0.172E-02    0.135E-02
DAV:  15    -0.301474051805E+04   -0.58123E-04   -0.31233E-05  6304   0.134E-02    0.139E-02
DAV:  16    -0.301474053458E+04   -0.16530E-04   -0.30588E-05  6464   0.525E-03    0.774E-03
DAV:  17    -0.301474055306E+04   -0.18486E-04   -0.12689E-06  4768   0.277E-03    0.589E-03
DAV:  18    -0.301474059088E+04   -0.37814E-04   -0.27083E-06  4800   0.452E-03    0.302E-03
DAV:  19    -0.301474061211E+04   -0.21232E-04   -0.42889E-06  4896   0.274E-03    0.333E-03
DAV:  20    -0.301474062320E+04   -0.11091E-04   -0.77653E-07  4864   0.112E-03    0.223E-03
DAV:  21    -0.301474064267E+04   -0.19473E-04   -0.52913E-07  4864   0.139E-03    0.107E-03
DAV:  22    -0.301474065797E+04   -0.15293E-04   -0.41772E-07  4896   0.143E-03    0.814E-04
DAV:  23    -0.301474066400E+04   -0.60355E-05   -0.51402E-07  4864   0.732E-04
   6 F= -.30545998E+04 E0= -.30545998E+04  d E =-.340865E+00  mag=    -0.0000
       N       E                     dE             d eps       ncg     rms          rms(c)
DAV:   1    -0.301482073715E+04   -0.80079E-01   -0.23810E+01  5760   0.363E+00    0.176E+00
DAV:   2    -0.301488130987E+04   -0.60573E-01   -0.80366E-01  6944   0.641E-01    0.107E+00
DAV:   3    -0.301487693469E+04    0.43752E-02   -0.39138E-02  7008   0.175E-01    0.611E-01
DAV:   4    -0.301487544279E+04    0.14919E-02   -0.10032E-02  6976   0.115E-01    0.596E-01
DAV:   5    -0.301487295520E+04    0.24876E-02   -0.81870E-03  6912   0.992E-02    0.234E-01
DAV:   6    -0.301487241590E+04    0.53930E-03   -0.25425E-03  7088   0.653E-02    0.138E-01
DAV:   7    -0.301487232377E+04    0.92130E-04   -0.13297E-03  7072   0.361E-02    0.103E-01
DAV:   8    -0.301487226612E+04    0.57653E-04   -0.15548E-04  6912   0.146E-02    0.646E-02
DAV:   9    -0.301487222380E+04    0.42313E-04   -0.83743E-05  6784   0.176E-02    0.413E-02
DAV:  10    -0.301487220344E+04    0.20365E-04   -0.93739E-05  7008   0.141E-02    0.195E-02
DAV:  11    -0.301487220302E+04    0.42137E-06   -0.37283E-05  6624   0.875E-03
   7 F= -.30547355E+04 E0= -.30547355E+04  d E =-.476505E+00  mag=    -0.0000
       N       E                     dE             d eps       ncg     rms          rms(c)
DAV:   1    -0.301499098283E+04   -0.11878E+00   -0.15914E+02  5760   0.915E+00    0.451E+00
DAV:   2    -0.301537818394E+04   -0.38720E+00   -0.47770E+00  7008   0.151E+00    0.259E+00
DAV:   3    -0.301534448578E+04    0.33698E-01   -0.14245E-01  7136   0.352E-01    0.156E+00
DAV:   4    -0.301533694321E+04    0.75426E-02   -0.63227E-02  6912   0.239E-01    0.149E+00
DAV:   5    -0.301532015791E+04    0.16785E-01   -0.59057E-02  7056   0.230E-01    0.476E-01
DAV:   6    -0.301531954963E+04    0.60827E-03   -0.19270E-02  7152   0.123E-01    0.280E-01
DAV:   7    -0.301531875805E+04    0.79158E-03   -0.38863E-03  6912   0.598E-02    0.177E-01
DAV:   8    -0.301531859910E+04    0.15895E-03   -0.56841E-04  6976   0.222E-02    0.116E-01
DAV:   9    -0.301531849947E+04    0.99629E-04   -0.25746E-04  6912   0.192E-02    0.713E-02
DAV:  10    -0.301531844454E+04    0.54930E-04   -0.17051E-04  7040   0.165E-02    0.249E-02
DAV:  11    -0.301531844833E+04   -0.37876E-05   -0.56962E-05  6912   0.989E-03
   8 F= -.30551666E+04 E0= -.30551666E+04  d E =-.431109E+00  mag=    -0.0000
       N       E                     dE             d eps       ncg     rms          rms(c)
DAV:   1    -0.301531830941E+04    0.13514E-03   -0.11121E+00  5824   0.760E-01    0.316E-01
DAV:   2    -0.301532074585E+04   -0.24364E-02   -0.30454E-02  7008   0.119E-01    0.194E-01
DAV:   3    -0.301532054487E+04    0.20098E-03   -0.93707E-04  7040   0.279E-02    0.109E-01
DAV:   4    -0.301532049934E+04    0.45530E-04   -0.46030E-04  6944   0.202E-02    0.104E-01
DAV:   5    -0.301532043825E+04    0.61088E-04   -0.37204E-04  6944   0.174E-02    0.330E-02
DAV:   6    -0.301532044357E+04   -0.53162E-05   -0.97795E-05  6880   0.882E-03
   9 F= -.30551698E+04 E0= -.30551698E+04  d E =-.434369E+00  mag=    -0.0000
       N       E                     dE             d eps       ncg     rms          rms(c)
DAV:   1    -0.301555749667E+04   -0.23706E+00   -0.11912E+02  5760   0.790E+00    0.357E+00
DAV:   2    -0.301582147026E+04   -0.26397E+00   -0.31897E+00  6944   0.124E+00    0.226E+00
DAV:   3    -0.301579974401E+04    0.21726E-01   -0.12674E-01  7056   0.341E-01    0.129E+00
DAV:   4    -0.301579604140E+04    0.37026E-02   -0.61870E-02  6912   0.230E-01    0.134E+00
DAV:   5    -0.301578232548E+04    0.13716E-01   -0.42996E-02  6976   0.191E-01    0.451E-01
DAV:   6    -0.301578190254E+04    0.42294E-03   -0.14196E-02  7072   0.120E-01    0.285E-01
DAV:   7    -0.301578107648E+04    0.82606E-03   -0.46134E-03  7072   0.694E-02    0.156E-01
DAV:   8    -0.301578096927E+04    0.10721E-03   -0.43129E-04  7008   0.238E-02    0.966E-02
DAV:   9    -0.301578089668E+04    0.72595E-04   -0.21819E-04  6960   0.198E-02    0.617E-02
DAV:  10    -0.301578087123E+04    0.25444E-04   -0.14517E-04  7200   0.159E-02    0.263E-02
DAV:  11    -0.301578087831E+04   -0.70804E-05   -0.35731E-05  6432   0.120E-02
  10 F= -.30556133E+04 E0= -.30556133E+04  d E =-.443449E+00  mag=    -0.0000
       N       E                     dE             d eps       ncg     rms          rms(c)
DAV:   1    -0.301579484573E+04   -0.13974E-01   -0.17196E+01  5760   0.304E+00    0.121E+00
DAV:   2    -0.301583077853E+04   -0.35933E-01   -0.43906E-01  6976   0.473E-01    0.803E-01
DAV:   3    -0.301582782789E+04    0.29506E-02   -0.16860E-02  7104   0.125E-01    0.437E-01
DAV:   4    -0.301582723478E+04    0.59311E-03   -0.86152E-03  6880   0.889E-02    0.463E-01
DAV:   5    -0.301582538191E+04    0.18529E-02   -0.60548E-03  6880   0.743E-02    0.150E-01
DAV:   6    -0.301582532725E+04    0.54664E-04   -0.18655E-03  7040   0.445E-02    0.979E-02
DAV:   7    -0.301582524586E+04    0.81390E-04   -0.56674E-04  6976   0.249E-02    0.589E-02
DAV:   8    -0.301582523973E+04    0.61264E-05   -0.54236E-05  6624   0.917E-03
  11 F= -.30556512E+04 E0= -.30556512E+04  d E =-.481419E+00  mag=    -0.0000
       N       E                     dE             d eps       ncg     rms          rms(c)
DAV:   1    -0.301588759162E+04   -0.62346E-01   -0.96638E+01  5760   0.765E+00    0.354E+00
DAV:   2    -0.301612736774E+04   -0.23978E+00   -0.29535E+00  7040   0.129E+00    0.212E+00
DAV:   3    -0.301610492254E+04    0.22445E-01   -0.10902E-01  7104   0.339E-01    0.117E+00
DAV:   4    -0.301610049823E+04    0.44243E-02   -0.61413E-02  6880   0.243E-01    0.126E+00
DAV:   5    -0.301608541320E+04    0.15085E-01   -0.44892E-02  7104   0.232E-01    0.395E-01
DAV:   6    -0.301608461404E+04    0.79916E-03   -0.15481E-02  7040   0.128E-01    0.240E-01
DAV:   7    -0.301608400730E+04    0.60674E-03   -0.30539E-03  7072   0.650E-02    0.156E-01
DAV:   8    -0.301608378907E+04    0.21822E-03   -0.39571E-04  6960   0.299E-02    0.995E-02
DAV:   9    -0.301608362723E+04    0.16184E-03   -0.23119E-04  7168   0.279E-02    0.576E-02
DAV:  10    -0.301608356714E+04    0.60091E-04   -0.18121E-04  7104   0.227E-02    0.277E-02
DAV:  11    -0.301608355079E+04    0.16350E-04   -0.59423E-05  7264   0.168E-02    0.183E-02
DAV:  12    -0.301608356103E+04   -0.10235E-04   -0.45553E-05  6912   0.880E-03    0.199E-02
DAV:  13    -0.301608356498E+04   -0.39506E-05   -0.28349E-06  4960   0.254E-03
  12 F= -.30558869E+04 E0= -.30558869E+04  d E =-.235652E+00  mag=    -0.0000
       N       E                     dE             d eps       ncg     rms          rms(c)
DAV:   1    -0.301608370129E+04   -0.14027E-03   -0.20243E+00  5824   0.111E+00    0.471E-01
DAV:   2    -0.301608852349E+04   -0.48222E-02   -0.59613E-02  7104   0.184E-01    0.286E-01
DAV:   3    -0.301608811073E+04    0.41276E-03   -0.21967E-03  7072   0.474E-02    0.152E-01
DAV:   4    -0.301608802943E+04    0.81304E-04   -0.12793E-03  6880   0.353E-02    0.166E-01
DAV:   5    -0.301608778224E+04    0.24719E-03   -0.91070E-04  6880   0.315E-02    0.517E-02
DAV:   6    -0.301608777573E+04    0.65134E-05   -0.27688E-04  7040   0.165E-02    0.321E-02
DAV:   7    -0.301608776905E+04    0.66760E-05   -0.48260E-05  6976   0.820E-03
  13 F= -.30558944E+04 E0= -.30558944E+04  d E =-.243129E+00  mag=    -0.0000
       N       E                     dE             d eps       ncg     rms          rms(c)
DAV:   1    -0.301621357912E+04   -0.12580E+00   -0.51468E+01  5760   0.531E+00    0.250E+00
DAV:   2    -0.301634455893E+04   -0.13098E+00   -0.15335E+00  6992   0.850E-01    0.153E+00
DAV:   3    -0.301633583429E+04    0.87246E-02   -0.47581E-02  7056   0.189E-01    0.858E-01
DAV:   4    -0.301633443533E+04    0.13990E-02   -0.24798E-02  6848   0.141E-01    0.884E-01
DAV:   5    -0.301632901828E+04    0.54171E-02   -0.23214E-02  6944   0.126E-01    0.288E-01
DAV:   6    -0.301632870104E+04    0.31724E-03   -0.59203E-03  6944   0.612E-02    0.156E-01
DAV:   7    -0.301632852351E+04    0.17753E-03   -0.73513E-04  7040   0.280E-02    0.105E-01
DAV:   8    -0.301632848731E+04    0.36195E-04   -0.15142E-04  7008   0.105E-02    0.645E-02
DAV:   9    -0.301632846772E+04    0.19594E-04   -0.99508E-05  6624   0.975E-03    0.364E-02
DAV:  10    -0.301632846272E+04    0.50039E-05   -0.48779E-05  6592   0.786E-03
  14 F= -.30561163E+04 E0= -.30561163E+04  d E =-.221889E+00  mag=    -0.0000
       N       E                     dE             d eps       ncg     rms          rms(c)
DAV:   1    -0.301632016712E+04    0.83006E-02   -0.29521E+01  5760   0.398E+00    0.182E+00
DAV:   2    -0.301639444837E+04   -0.74281E-01   -0.87039E-01  6976   0.627E-01    0.112E+00
DAV:   3    -0.301638959565E+04    0.48527E-02   -0.26052E-02  7008   0.139E-01    0.626E-01
DAV:   4    -0.301638883692E+04    0.75873E-03   -0.13932E-02  6880   0.105E-01    0.652E-01
DAV:   5    -0.301638583705E+04    0.29999E-02   -0.13140E-02  6880   0.939E-02    0.210E-01
DAV:   6    -0.301638567283E+04    0.16422E-03   -0.32993E-03  6880   0.458E-02    0.116E-01
DAV:   7    -0.301638557865E+04    0.94188E-04   -0.42975E-04  6976   0.213E-02    0.810E-02
DAV:   8    -0.301638556373E+04    0.14912E-04   -0.83189E-05  6880   0.811E-03    0.498E-02
DAV:   9    -0.301638555668E+04    0.70533E-05   -0.53239E-05  6304   0.723E-03
  15 F= -.30561591E+04 E0= -.30561591E+04  d E =-.264747E+00  mag=    -0.0000
       N       E                     dE             d eps       ncg     rms          rms(c)
DAV:   1    -0.301641980442E+04   -0.34241E-01   -0.59933E+01  5760   0.576E+00    0.245E+00
DAV:   2    -0.301656989665E+04   -0.15009E+00   -0.17702E+00  7040   0.943E-01    0.124E+00
DAV:   3    -0.301655971444E+04    0.10182E-01   -0.38517E-02  7200   0.187E-01    0.824E-01
DAV:   4    -0.301655772164E+04    0.19928E-02   -0.21436E-02  6912   0.140E-01    0.716E-01
DAV:   5    -0.301655296362E+04    0.47580E-02   -0.20824E-02  6912   0.133E-01    0.268E-01
DAV:   6    -0.301655241613E+04    0.54749E-03   -0.54334E-03  7008   0.790E-02    0.141E-01
DAV:   7    -0.301655229405E+04    0.12208E-03   -0.12657E-03  7104   0.382E-02    0.118E-01
DAV:   8    -0.301655218122E+04    0.11283E-03   -0.16119E-04  7040   0.152E-02    0.675E-02
DAV:   9    -0.301655210771E+04    0.73514E-04   -0.12154E-04  6496   0.165E-02    0.383E-02
DAV:  10    -0.301655208480E+04    0.22913E-04   -0.71222E-05  7136   0.125E-02    0.165E-02
DAV:  11    -0.301655208330E+04    0.14916E-05   -0.19053E-05  5824   0.921E-03
  16 F= -.30563088E+04 E0= -.30563088E+04  d E =-.149675E+00  mag=    -0.0000
       N       E                     dE             d eps       ncg     rms          rms(c)
DAV:   1    -0.301655409023E+04   -0.20054E-02   -0.88374E-01  5824   0.710E-01    0.280E-01
DAV:   2    -0.301655619855E+04   -0.21083E-02   -0.25358E-02  7104   0.114E-01    0.144E-01
DAV:   3    -0.301655604739E+04    0.15115E-03   -0.54681E-04  7136   0.231E-02    0.940E-02
DAV:   4    -0.301655601350E+04    0.33894E-04   -0.30373E-04  7104   0.184E-02    0.819E-02
DAV:   5    -0.301655595083E+04    0.62665E-04   -0.32211E-04  6912   0.183E-02    0.312E-02
DAV:   6    -0.301655594598E+04    0.48520E-05   -0.92023E-05  7040   0.108E-02
  17 F= -.30563106E+04 E0= -.30563106E+04  d E =-.151500E+00  mag=    -0.0000
       N       E                     dE             d eps       ncg     rms          rms(c)
DAV:   1    -0.301660914320E+04   -0.53192E-01   -0.42933E+01  5760   0.492E+00    0.213E+00
DAV:   2    -0.301671392520E+04   -0.10478E+00   -0.12758E+00  7072   0.816E-01    0.126E+00
DAV:   3    -0.301670617998E+04    0.77452E-02   -0.33713E-02  7168   0.182E-01    0.750E-01
DAV:   4    -0.301670445488E+04    0.17251E-02   -0.14320E-02  7040   0.126E-01    0.725E-01
DAV:   5    -0.301670041537E+04    0.40395E-02   -0.13189E-02  7104   0.121E-01    0.226E-01
DAV:   6    -0.301670017595E+04    0.23942E-03   -0.35624E-03  7088   0.706E-02    0.139E-01
DAV:   7    -0.301670011353E+04    0.62418E-04   -0.11564E-03  7040   0.369E-02    0.115E-01
DAV:   8    -0.301670004537E+04    0.68165E-04   -0.14858E-04  7040   0.154E-02    0.676E-02
DAV:   9    -0.301670002027E+04    0.25103E-04   -0.14201E-04  6688   0.141E-02    0.438E-02
DAV:  10    -0.301670000482E+04    0.15447E-04   -0.80600E-05  6848   0.112E-02    0.158E-02
DAV:  11    -0.301670000989E+04   -0.50731E-05   -0.16442E-05  5408   0.753E-03
  18 F= -.30564414E+04 E0= -.30564414E+04  d E =-.130754E+00  mag=    -0.0000
       N       E                     dE             d eps       ncg     rms          rms(c)
DAV:   1    -0.301670245793E+04   -0.24531E-02   -0.11307E+00  5792   0.796E-01    0.332E-01
DAV:   2    -0.301670513428E+04   -0.26763E-02   -0.32924E-02  7024   0.131E-01    0.199E-01
DAV:   3    -0.301670493194E+04    0.20234E-03   -0.86310E-04  7136   0.293E-02    0.118E-01
DAV:   4    -0.301670488116E+04    0.50780E-04   -0.37199E-04  7008   0.210E-02    0.113E-01
DAV:   5    -0.301670478301E+04    0.98149E-04   -0.36210E-04  6912   0.214E-02    0.357E-02
DAV:   6    -0.301670477985E+04    0.31583E-05   -0.10617E-04  7072   0.124E-02    0.226E-02
DAV:   7    -0.301670478225E+04   -0.23966E-05   -0.33094E-05  6848   0.645E-03
  19 F= -.30564440E+04 E0= -.30564440E+04  d E =-.133375E+00  mag=    -0.0000
       N       E                     dE             d eps       ncg     rms          rms(c)
DAV:   1    -0.301673769015E+04   -0.32910E-01   -0.34730E+01  5760   0.446E+00    0.193E+00
DAV:   2    -0.301682645206E+04   -0.88762E-01   -0.10436E+00  6944   0.738E-01    0.117E+00
DAV:   3    -0.301682063673E+04    0.58153E-02   -0.25039E-02  7072   0.152E-01    0.651E-01
DAV:   4    -0.301681956983E+04    0.10669E-02   -0.11113E-02  6976   0.112E-01    0.674E-01
DAV:   5    -0.301681640012E+04    0.31697E-02   -0.10195E-02  7008   0.103E-01    0.194E-01
DAV:   6    -0.301681627778E+04    0.12234E-03   -0.24403E-03  7104   0.501E-02    0.115E-01
DAV:   7    -0.301681622813E+04    0.49652E-04   -0.48128E-04  7008   0.242E-02    0.848E-02
DAV:   8    -0.301681619292E+04    0.35211E-04   -0.76373E-05  6784   0.981E-03    0.483E-02
DAV:   9    -0.301681618657E+04    0.63492E-05   -0.79395E-05  6464   0.991E-03
  20 F= -.30565454E+04 E0= -.30565454E+04  d E =-.101435E+00  mag=    -0.0000
       N       E                     dE             d eps       ncg     rms          rms(c)
DAV:   1    -0.301681788351E+04   -0.16906E-02   -0.17428E+00  5792   0.998E-01    0.416E-01
DAV:   2    -0.301682230302E+04   -0.44195E-02   -0.52051E-02  6944   0.164E-01    0.265E-01
DAV:   3    -0.301682201237E+04    0.29065E-03   -0.12463E-03  7040   0.342E-02    0.144E-01
DAV:   4    -0.301682196309E+04    0.49283E-04   -0.58385E-04  7072   0.261E-02    0.153E-01
DAV:   5    -0.301682180598E+04    0.15711E-03   -0.52940E-04  6976   0.244E-02    0.424E-02
DAV:   6    -0.301682180571E+04    0.27166E-06   -0.12980E-04  7040   0.123E-02    0.264E-02
DAV:   7    -0.301682180788E+04   -0.21738E-05   -0.25344E-05  6368   0.598E-03
  21 F= -.30565488E+04 E0= -.30565488E+04  d E =-.104833E+00  mag=    -0.0000
       N       E                     dE             d eps       ncg     rms          rms(c)
DAV:   1    -0.301683822006E+04   -0.16414E-01   -0.33050E+01  5760   0.436E+00    0.196E+00
DAV:   2    -0.301692348763E+04   -0.85268E-01   -0.10052E+00  6912   0.728E-01    0.125E+00
DAV:   3    -0.301691717187E+04    0.63158E-02   -0.27436E-02  6976   0.162E-01    0.643E-01
DAV:   4    -0.301691564664E+04    0.15252E-02   -0.10408E-02  6912   0.114E-01    0.655E-01
DAV:   5    -0.301691314033E+04    0.25063E-02   -0.10462E-02  6912   0.106E-01    0.217E-01
DAV:   6    -0.301691292225E+04    0.21808E-03   -0.33416E-03  6960   0.544E-02    0.119E-01
DAV:   7    -0.301691282308E+04    0.99173E-04   -0.56269E-04  6976   0.275E-02    0.867E-02
DAV:   8    -0.301691278896E+04    0.34119E-04   -0.11887E-04  6896   0.133E-02    0.500E-02
DAV:   9    -0.301691277606E+04    0.12901E-04   -0.69457E-05  6304   0.109E-02    0.319E-02
DAV:  10    -0.301691276937E+04    0.66842E-05   -0.35009E-05  6144   0.106E-02
  22 F= -.30566313E+04 E0= -.30566313E+04  d E =-.824796E-01  mag=    -0.0000
       N       E                     dE             d eps       ncg     rms          rms(c)
DAV:   1    -0.301691371111E+04   -0.93505E-03   -0.67028E-01  5792   0.623E-01    0.267E-01
DAV:   2    -0.301691542014E+04   -0.17090E-02   -0.20204E-02  7008   0.104E-01    0.174E-01
DAV:   3    -0.301691529745E+04    0.12269E-03   -0.54576E-04  6944   0.233E-02    0.911E-02
DAV:   4    -0.301691526749E+04    0.29966E-04   -0.20986E-04  6880   0.167E-02    0.915E-02
DAV:   5    -0.301691522327E+04    0.44216E-04   -0.21850E-04  6688   0.170E-02    0.302E-02
DAV:   6    -0.301691522232E+04    0.95041E-06   -0.76842E-05  6976   0.888E-03
  23 F= -.30566326E+04 E0= -.30566326E+04  d E =-.837283E-01  mag=    -0.0000
       N       E                     dE             d eps       ncg     rms          rms(c)
DAV:   1    -0.301693003582E+04   -0.14813E-01   -0.30763E+01  5760   0.423E+00    0.184E+00
DAV:   2    -0.301700685657E+04   -0.76821E-01   -0.91680E-01  6944   0.704E-01    0.112E+00
DAV:   3    -0.301700152574E+04    0.53308E-02   -0.26816E-02  6976   0.161E-01    0.599E-01
DAV:   4    -0.301700006375E+04    0.14620E-02   -0.10295E-02  6912   0.108E-01    0.604E-01
DAV:   5    -0.301699765676E+04    0.24070E-02   -0.10491E-02  6944   0.106E-01    0.226E-01
DAV:   6    -0.301699728913E+04    0.36763E-03   -0.37659E-03  7008   0.595E-02    0.115E-01
DAV:   7    -0.301699715811E+04    0.13102E-03   -0.73533E-04  7008   0.317E-02    0.823E-02
DAV:   8    -0.301699711020E+04    0.47907E-04   -0.12706E-04  6944   0.147E-02    0.468E-02
DAV:   9    -0.301699708497E+04    0.25232E-04   -0.54140E-05  6560   0.128E-02    0.249E-02
DAV:  10    -0.301699708022E+04    0.47554E-05   -0.38721E-05  6848   0.933E-03
  24 F= -.30567052E+04 E0= -.30567052E+04  d E =-.725934E-01  mag=    -0.0000
       N       E                     dE             d eps       ncg     rms          rms(c)
DAV:   1    -0.301699821542E+04   -0.11305E-02   -0.10001E+00  5792   0.762E-01    0.319E-01
DAV:   2    -0.301700067352E+04   -0.24581E-02   -0.29493E-02  6976   0.127E-01    0.198E-01
DAV:   3    -0.301700050128E+04    0.17224E-03   -0.85385E-04  7040   0.290E-02    0.106E-01
DAV:   4    -0.301700044713E+04    0.54149E-04   -0.32456E-04  6976   0.198E-02    0.107E-01
DAV:   5    -0.301700036756E+04    0.79567E-04   -0.34941E-04  6688   0.210E-02    0.396E-02
DAV:   6    -0.301700035707E+04    0.10494E-04   -0.13267E-04  7008   0.120E-02    0.213E-02
DAV:   7    -0.301700035447E+04    0.25978E-05   -0.28375E-05  6688   0.627E-03
  25 F= -.30567068E+04 E0= -.30567068E+04  d E =-.742007E-01  mag=    -0.0000
       N       E                     dE             d eps       ncg     rms          rms(c)
DAV:   1    -0.301702301477E+04   -0.22658E-01   -0.24268E+01  5760   0.377E+00    0.158E+00
DAV:   2    -0.301708181845E+04   -0.58804E-01   -0.68846E-01  6912   0.600E-01    0.866E-01
DAV:   3    -0.301707817766E+04    0.36408E-02   -0.15978E-02  7008   0.119E-01    0.502E-01
DAV:   4    -0.301707746565E+04    0.71201E-03   -0.74841E-03  6944   0.868E-02    0.483E-01
DAV:   5    -0.301707598547E+04    0.14802E-02   -0.75502E-03  6944   0.806E-02    0.179E-01
DAV:   6    -0.301707580786E+04    0.17761E-03   -0.21820E-03  6944   0.420E-02    0.899E-02
DAV:   7    -0.301707574131E+04    0.66553E-04   -0.35957E-04  7040   0.208E-02    0.696E-02
DAV:   8    -0.301707571376E+04    0.27551E-04   -0.67363E-05  6592   0.938E-03    0.370E-02
DAV:   9    -0.301707570342E+04    0.10333E-04   -0.34444E-05  6048   0.773E-03    0.208E-02
DAV:  10    -0.301707570021E+04    0.32171E-05   -0.13567E-05  5472   0.631E-03
  26 F= -.30567747E+04 E0= -.30567747E+04  d E =-.679323E-01  mag=    -0.0000
       N       E                     dE             d eps       ncg     rms          rms(c)
DAV:   1    -0.301707242436E+04    0.32791E-02   -0.74257E+00  5760   0.209E+00    0.852E-01
DAV:   2    -0.301709028063E+04   -0.17856E-01   -0.20934E-01  6912   0.332E-01    0.477E-01
DAV:   3    -0.301708915955E+04    0.11211E-02   -0.48640E-03  6960   0.662E-02    0.273E-01
DAV:   4    -0.301708894065E+04    0.21890E-03   -0.23220E-03  6912   0.490E-02    0.266E-01
DAV:   5    -0.301708847932E+04    0.46133E-03   -0.23422E-03  6848   0.460E-02    0.981E-02
DAV:   6    -0.301708842248E+04    0.56832E-04   -0.67899E-04  6912   0.240E-02    0.497E-02
DAV:   7    -0.301708840199E+04    0.20493E-04   -0.11127E-04  6944   0.118E-02    0.390E-02
DAV:   8    -0.301708839352E+04    0.84684E-05   -0.19748E-05  6144   0.571E-03
  27 F= -.30567833E+04 E0= -.30567833E+04  d E =-.765356E-01  mag=    -0.0000
       N       E                     dE             d eps       ncg     rms          rms(c)
DAV:   1    -0.301710134569E+04   -0.12944E-01   -0.26537E+01  5760   0.395E+00    0.159E+00
DAV:   2    -0.301716639945E+04   -0.65054E-01   -0.76005E-01  6944   0.630E-01    0.825E-01
DAV:   3    -0.301716284737E+04    0.35521E-02   -0.15689E-02  7072   0.116E-01    0.526E-01
DAV:   4    -0.301716179505E+04    0.10523E-02   -0.66893E-03  6944   0.834E-02    0.450E-01
DAV:   5    -0.301716055338E+04    0.12417E-02   -0.72957E-03  6976   0.822E-02    0.171E-01
DAV:   6    -0.301716033021E+04    0.22317E-03   -0.19866E-03  6944   0.450E-02    0.902E-02
DAV:   7    -0.301716026458E+04    0.65633E-04   -0.47105E-04  7040   0.246E-02    0.737E-02
DAV:   8    -0.301716022884E+04    0.35737E-04   -0.75338E-05  6560   0.115E-02    0.387E-02
DAV:   9    -0.301716021268E+04    0.16165E-04   -0.37520E-05  6112   0.112E-02    0.178E-02
DAV:  10    -0.301716021443E+04   -0.17505E-05   -0.25587E-05  6048   0.756E-03
  28 F= -.30568482E+04 E0= -.30568482E+04  d E =-.648738E-01  mag=    -0.0000
       N       E                     dE             d eps       ncg     rms          rms(c)
DAV:   1    -0.301715696970E+04    0.32430E-02   -0.66719E+00  5760   0.198E+00    0.775E-01
DAV:   2    -0.301717317734E+04   -0.16208E-01   -0.19009E-01  6944   0.316E-01    0.409E-01
DAV:   3    -0.301717227743E+04    0.89991E-03   -0.39220E-03  7072   0.586E-02    0.260E-01
DAV:   4    -0.301717200968E+04    0.26776E-03   -0.17321E-03  6976   0.431E-02    0.224E-01
DAV:   5    -0.301717168535E+04    0.32433E-03   -0.18924E-03  6976   0.432E-02    0.845E-02
DAV:   6    -0.301717162930E+04    0.56044E-04   -0.51219E-04  6944   0.236E-02    0.453E-02
DAV:   7    -0.301717161618E+04    0.13124E-04   -0.11975E-04  7008   0.126E-02    0.373E-02
DAV:   8    -0.301717161055E+04    0.56316E-05   -0.18090E-05  5888   0.635E-03
  29 F= -.30568561E+04 E0= -.30568561E+04  d E =-.728076E-01  mag=    -0.0000
       N       E                     dE             d eps       ncg     rms          rms(c)
DAV:   1    -0.301718325496E+04   -0.11639E-01   -0.26575E+01  5760   0.403E+00    0.165E+00
DAV:   2    -0.301725018212E+04   -0.66927E-01   -0.77992E-01  6912   0.648E-01    0.847E-01
DAV:   3    -0.301724632468E+04    0.38574E-02   -0.14601E-02  7040   0.115E-01    0.546E-01
DAV:   4    -0.301724514118E+04    0.11835E-02   -0.75450E-03  6976   0.929E-02    0.434E-01
DAV:   5    -0.301724410210E+04    0.10391E-02   -0.64851E-03  7008   0.811E-02    0.152E-01
DAV:   6    -0.301724397490E+04    0.12720E-03   -0.16017E-03  7008   0.402E-02    0.952E-02
DAV:   7    -0.301724393172E+04    0.43180E-04   -0.32317E-04  6912   0.192E-02    0.717E-02
DAV:   8    -0.301724390553E+04    0.26190E-04   -0.67356E-05  6336   0.986E-03    0.401E-02
DAV:   9    -0.301724389499E+04    0.10538E-04   -0.54101E-05  6208   0.960E-03    0.254E-02
DAV:  10    -0.301724389033E+04    0.46613E-05   -0.26358E-05  6048   0.749E-03
  30 F= -.30569204E+04 E0= -.30569204E+04  d E =-.642955E-01  mag=    -0.0000
       N       E                     dE             d eps       ncg     rms          rms(c)
DAV:   1    -0.301724165343E+04    0.22416E-02   -0.54328E+00  5760   0.182E+00    0.729E-01
DAV:   2    -0.301725516697E+04   -0.13514E-01   -0.15813E-01  6912   0.292E-01    0.379E-01
DAV:   3    -0.301725437631E+04    0.79066E-03   -0.29610E-03  7008   0.520E-02    0.242E-01
DAV:   4    -0.301725411203E+04    0.26428E-03   -0.15380E-03  6944   0.429E-02    0.192E-01
DAV:   5    -0.301725390220E+04    0.20983E-03   -0.13198E-03  6976   0.381E-02    0.669E-02
DAV:   6    -0.301725387725E+04    0.24948E-04   -0.33231E-04  6976   0.189E-02    0.434E-02
DAV:   7    -0.301725386955E+04    0.77027E-05   -0.62828E-05  6944   0.868E-03
  31 F= -.30569268E+04 E0= -.30569268E+04  d E =-.706769E-01  mag=    -0.0000
       N       E                     dE             d eps       ncg     rms          rms(c)
DAV:   1    -0.301725866025E+04   -0.47830E-02   -0.23324E+01  5760   0.382E+00    0.156E+00
DAV:   2    -0.301731822374E+04   -0.59563E-01   -0.69471E-01  6944   0.617E-01    0.824E-01
DAV:   3    -0.301731483607E+04    0.33877E-02   -0.13180E-02  7072   0.109E-01    0.513E-01
DAV:   4    -0.301731389699E+04    0.93908E-03   -0.63487E-03  6976   0.866E-02    0.432E-01
DAV:   5    -0.301731283229E+04    0.10647E-02   -0.51567E-03  7040   0.761E-02    0.136E-01
DAV:   6    -0.301731276262E+04    0.69669E-04   -0.12051E-03  7104   0.370E-02    0.869E-02
DAV:   7    -0.301731273962E+04    0.22997E-04   -0.23790E-04  6976   0.163E-02    0.656E-02
DAV:   8    -0.301731271661E+04    0.23012E-04   -0.52705E-05  6176   0.939E-03    0.367E-02
DAV:   9    -0.301731271095E+04    0.56630E-05   -0.53942E-05  6208   0.102E-02
  32 F= -.30569789E+04 E0= -.30569789E+04  d E =-.521471E-01  mag=    -0.0000
       N       E                     dE             d eps       ncg     rms          rms(c)
DAV:   1    -0.301731373362E+04   -0.10170E-02   -0.15321E+00  5760   0.980E-01    0.392E-01
DAV:   2    -0.301731762227E+04   -0.38886E-02   -0.45500E-02  6944   0.159E-01    0.212E-01
DAV:   3    -0.301731739722E+04    0.22505E-03   -0.88596E-04  7072   0.293E-02    0.130E-01
DAV:   4    -0.301731733771E+04    0.59507E-04   -0.43017E-04  7008   0.237E-02    0.114E-01
DAV:   5    -0.301731725915E+04    0.78567E-04   -0.36839E-04  6976   0.222E-02    0.353E-02
DAV:   6    -0.301731725723E+04    0.19182E-05   -0.10047E-04  7072   0.113E-02    0.232E-02
DAV:   7    -0.301731725683E+04    0.39395E-06   -0.17305E-05  5632   0.480E-03
  33 F= -.30569818E+04 E0= -.30569818E+04  d E =-.549838E-01  mag=    -0.0000
       N       E                     dE             d eps       ncg     rms          rms(c)
DAV:   1    -0.301733278962E+04   -0.15532E-01   -0.20927E+01  5760   0.359E+00    0.141E+00
DAV:   2    -0.301738336090E+04   -0.50571E-01   -0.59433E-01  6912   0.572E-01    0.754E-01
DAV:   3    -0.301738052907E+04    0.28318E-02   -0.12215E-02  7040   0.104E-01    0.464E-01
DAV:   4    -0.301737972439E+04    0.80468E-03   -0.48469E-03  6944   0.741E-02    0.406E-01
DAV:   5    -0.301737870155E+04    0.10228E-02   -0.49702E-03  6912   0.705E-02    0.136E-01
DAV:   6    -0.301737859764E+04    0.10392E-03   -0.12635E-03  7072   0.377E-02    0.779E-02
DAV:   7    -0.301737857094E+04    0.26695E-04   -0.30924E-04  6976   0.192E-02    0.626E-02
DAV:   8    -0.301737854592E+04    0.25020E-04   -0.57334E-05  6432   0.893E-03    0.348E-02
DAV:   9    -0.301737853945E+04    0.64694E-05   -0.35302E-05  6048   0.853E-03
  34 F= -.30570381E+04 E0= -.30570381E+04  d E =-.563808E-01  mag=    -0.0000
       N       E                     dE             d eps       ncg     rms          rms(c)
DAV:   1    -0.301737723370E+04    0.13122E-02   -0.64851E+00  5760   0.200E+00    0.771E-01
DAV:   2    -0.301739285249E+04   -0.15619E-01   -0.18393E-01  6912   0.320E-01    0.421E-01
DAV:   3    -0.301739196112E+04    0.89137E-03   -0.38174E-03  7136   0.588E-02    0.257E-01
DAV:   4    -0.301739170624E+04    0.25488E-03   -0.15365E-03  6912   0.422E-02    0.229E-01
DAV:   5    -0.301739137072E+04    0.33551E-03   -0.15841E-03  6880   0.411E-02    0.758E-02
DAV:   6    -0.301739134281E+04    0.27915E-04   -0.41564E-04  7040   0.224E-02    0.439E-02
DAV:   7    -0.301739133900E+04    0.38105E-05   -0.10287E-04  6976   0.115E-02    0.359E-02
DAV:   8    -0.301739133580E+04    0.31992E-05   -0.18302E-05  5760   0.563E-03
  35 F= -.30570482E+04 E0= -.30570482E+04  d E =-.664683E-01  mag=    -0.0000
       N       E                     dE             d eps       ncg     rms          rms(c)
DAV:   1    -0.301741241108E+04   -0.21072E-01   -0.18679E+01  5760   0.339E+00    0.127E+00
DAV:   2    -0.301745398170E+04   -0.41571E-01   -0.49504E-01  6912   0.529E-01    0.693E-01
DAV:   3    -0.301745129939E+04    0.26823E-02   -0.11090E-02  7136   0.105E-01    0.418E-01
DAV:   4    -0.301745040911E+04    0.89028E-03   -0.37451E-03  6976   0.691E-02    0.362E-01
DAV:   5    -0.301744954238E+04    0.86673E-03   -0.39818E-03  6976   0.727E-02    0.130E-01
DAV:   6    -0.301744949178E+04    0.50600E-04   -0.14298E-03  7040   0.397E-02    0.768E-02
DAV:   7    -0.301744944414E+04    0.47643E-04   -0.30999E-04  7008   0.197E-02    0.573E-02
DAV:   8    -0.301744942306E+04    0.21074E-04   -0.50734E-05  6496   0.893E-03    0.319E-02
DAV:   9    -0.301744941667E+04    0.63983E-05   -0.26113E-05  5856   0.830E-03
  36 F= -.30571004E+04 E0= -.30571004E+04  d E =-.522084E-01  mag=    -0.0000
       N       E                     dE             d eps       ncg     rms          rms(c)
DAV:   1    -0.301744153899E+04    0.78841E-02   -0.14476E+01  5760   0.298E+00    0.111E+00
DAV:   2    -0.301747360019E+04   -0.32061E-01   -0.38236E-01  6912   0.465E-01    0.608E-01
DAV:   3    -0.301747148797E+04    0.21122E-02   -0.85846E-03  7136   0.923E-02    0.367E-01
DAV:   4    -0.301747075640E+04    0.73157E-03   -0.29066E-03  6912   0.615E-02    0.318E-01
DAV:   5    -0.301747004470E+04    0.71170E-03   -0.30733E-03  6976   0.663E-02    0.111E-01
DAV:   6    -0.301747000443E+04    0.40269E-04   -0.11161E-03  6944   0.362E-02    0.672E-02
DAV:   7    -0.301746996855E+04    0.35886E-04   -0.24137E-04  6944   0.177E-02    0.511E-02
DAV:   8    -0.301746995015E+04    0.18400E-04   -0.38552E-05  6496   0.829E-03    0.289E-02
DAV:   9    -0.301746994386E+04    0.62920E-05   -0.21986E-05  5792   0.833E-03
  37 F= -.30571158E+04 E0= -.30571158E+04  d E =-.675963E-01  mag=    -0.0000
       N       E                     dE             d eps       ncg     rms          rms(c)
DAV:   1    -0.301748384834E+04   -0.13898E-01   -0.19169E+01  5760   0.341E+00    0.129E+00
DAV:   2    -0.301752722993E+04   -0.43382E-01   -0.50748E-01  6880   0.527E-01    0.709E-01
DAV:   3    -0.301752456938E+04    0.26605E-02   -0.10641E-02  7040   0.976E-02    0.428E-01
DAV:   4    -0.301752371931E+04    0.85007E-03   -0.35704E-03  6944   0.652E-02    0.365E-01
DAV:   5    -0.301752300119E+04    0.71812E-03   -0.38523E-03  6944   0.654E-02    0.117E-01
DAV:   6    -0.301752302992E+04   -0.28734E-04   -0.10615E-03  7008   0.324E-02    0.728E-02
DAV:   7    -0.301752299905E+04    0.30878E-04   -0.21177E-04  6976   0.156E-02    0.540E-02
DAV:   8    -0.301752298675E+04    0.12297E-04   -0.32550E-05  6240   0.660E-03    0.273E-02
DAV:   9    -0.301752298533E+04    0.14224E-05   -0.23323E-05  5856   0.656E-03
  38 F= -.30571621E+04 E0= -.30571621E+04  d E =-.462821E-01  mag=    -0.0000
       N       E                     dE             d eps       ncg     rms          rms(c)
DAV:   1    -0.301750498423E+04    0.18003E-01   -0.19964E+01  5760   0.348E+00    0.132E+00
DAV:   2    -0.301755021670E+04   -0.45232E-01   -0.52950E-01  6880   0.539E-01    0.723E-01
DAV:   3    -0.301754743267E+04    0.27840E-02   -0.11094E-02  7040   0.100E-01    0.438E-01
DAV:   4    -0.301754652875E+04    0.90392E-03   -0.37216E-03  6944   0.666E-02    0.372E-01
DAV:   5    -0.301754577112E+04    0.75763E-03   -0.39734E-03  6944   0.675E-02    0.121E-01
DAV:   6    -0.301754579796E+04   -0.26842E-04   -0.11360E-03  6976   0.342E-02    0.747E-02
DAV:   7    -0.301754576426E+04    0.33699E-04   -0.23201E-04  6976   0.164E-02    0.553E-02
DAV:   8    -0.301754575040E+04    0.13855E-04   -0.33712E-05  6208   0.701E-03    0.284E-02
DAV:   9    -0.301754574873E+04    0.16703E-05   -0.25037E-05  5984   0.745E-03
  39 F= -.30571780E+04 E0= -.30571780E+04  d E =-.621780E-01  mag=     0.0000
       N       E                     dE             d eps       ncg     rms          rms(c)
DAV:   1    -0.301755006533E+04   -0.43149E-02   -0.24923E+01  5760   0.390E+00    0.152E+00
DAV:   2    -0.301760708460E+04   -0.57019E-01   -0.67091E-01  6880   0.610E-01    0.812E-01
DAV:   3    -0.301760381559E+04    0.32690E-02   -0.14418E-02  7008   0.113E-01    0.506E-01
DAV:   4    -0.301760273583E+04    0.10798E-02   -0.44691E-03  6944   0.718E-02    0.420E-01
DAV:   5    -0.301760174894E+04    0.98689E-03   -0.47333E-03  6944   0.693E-02    0.146E-01
DAV:   6    -0.301760174444E+04    0.45022E-05   -0.13205E-03  7072   0.390E-02    0.845E-02
DAV:   7    -0.301760170779E+04    0.36647E-04   -0.32015E-04  6976   0.199E-02    0.614E-02
DAV:   8    -0.301760168852E+04    0.19279E-04   -0.46696E-05  6368   0.792E-03    0.334E-02
DAV:   9    -0.301760168755E+04    0.96450E-06   -0.40664E-05  6080   0.819E-03
  40 F= -.30572261E+04 E0= -.30572261E+04  d E =-.481254E-01  mag=     0.0000
       N       E                     dE             d eps       ncg     rms          rms(c)
DAV:   1    -0.301759291835E+04    0.87702E-02   -0.10969E+01  5760   0.259E+00    0.992E-01
DAV:   2    -0.301761792164E+04   -0.25003E-01   -0.29495E-01  6912   0.405E-01    0.535E-01
DAV:   3    -0.301761645342E+04    0.14682E-02   -0.62305E-03  6976   0.752E-02    0.334E-01
DAV:   4    -0.301761597019E+04    0.48323E-03   -0.19675E-03  7008   0.477E-02    0.277E-01
DAV:   5    -0.301761554315E+04    0.42704E-03   -0.20703E-03  6944   0.471E-02    0.944E-02
DAV:   6    -0.301761554180E+04    0.13444E-05   -0.59026E-04  7072   0.272E-02    0.567E-02
DAV:   7    -0.301761552919E+04    0.12610E-04   -0.14879E-04  6976   0.138E-02    0.414E-02
DAV:   8    -0.301761552323E+04    0.59613E-05   -0.19117E-05  5824   0.560E-03
  41 F= -.30572348E+04 E0= -.30572348E+04  d E =-.567954E-01  mag=     0.0000
       N       E                     dE             d eps       ncg     rms          rms(c)
DAV:   1    -0.301760730180E+04    0.82274E-02   -0.31149E+01  5760   0.443E+00    0.171E+00
DAV:   2    -0.301767830144E+04   -0.71000E-01   -0.83888E-01  6944   0.691E-01    0.894E-01
DAV:   3    -0.301767372684E+04    0.45746E-02   -0.17290E-02  7104   0.130E-01    0.570E-01
DAV:   4    -0.301767260589E+04    0.11210E-02   -0.73417E-03  6976   0.928E-02    0.494E-01
DAV:   5    -0.301767089112E+04    0.17148E-02   -0.74986E-03  7232   0.924E-02    0.181E-01
DAV:   6    -0.301767080504E+04    0.86084E-04   -0.24326E-03  6976   0.502E-02    0.102E-01
DAV:   7    -0.301767072996E+04    0.75074E-04   -0.46939E-04  6912   0.239E-02    0.756E-02
DAV:   8    -0.301767069713E+04    0.32831E-04   -0.68199E-05  6688   0.101E-02    0.426E-02
DAV:   9    -0.301767068739E+04    0.97450E-05   -0.50232E-05  6304   0.966E-03
  42 F= -.30572804E+04 E0= -.30572804E+04  d E =-.455890E-01  mag=     0.0000
       N       E                     dE             d eps       ncg     rms          rms(c)
DAV:   1    -0.301767138447E+04   -0.68734E-03   -0.17213E+00  5760   0.104E+00    0.390E-01
DAV:   2    -0.301767526139E+04   -0.38769E-02   -0.46086E-02  6944   0.163E-01    0.209E-01
DAV:   3    -0.301767500415E+04    0.25725E-03   -0.94360E-04  7136   0.311E-02    0.130E-01
DAV:   4    -0.301767493380E+04    0.70350E-04   -0.37504E-04  7008   0.223E-02    0.115E-01
DAV:   5    -0.301767484501E+04    0.88789E-04   -0.37658E-04  6752   0.231E-02    0.386E-02
DAV:   6    -0.301767484423E+04    0.77434E-06   -0.13301E-04  6976   0.130E-02    0.239E-02
DAV:   7    -0.301767484329E+04    0.94523E-06   -0.29487E-05  6592   0.607E-03
  43 F= -.30572823E+04 E0= -.30572823E+04  d E =-.474989E-01  mag=     0.0000
       N       E                     dE             d eps       ncg     rms          rms(c)
DAV:   1    -0.301768185330E+04   -0.70091E-02   -0.16704E+01  5760   0.326E+00    0.124E+00
DAV:   2    -0.301771933974E+04   -0.37486E-01   -0.44601E-01  6944   0.510E-01    0.632E-01
DAV:   3    -0.301771686324E+04    0.24765E-02   -0.97244E-03  7104   0.961E-02    0.407E-01
DAV:   4    -0.301771635939E+04    0.50385E-03   -0.46204E-03  6848   0.715E-02    0.360E-01
DAV:   5    -0.301771537730E+04    0.98208E-03   -0.46032E-03  6944   0.704E-02    0.124E-01
DAV:   6    -0.301771531718E+04    0.60125E-04   -0.12499E-03  7008   0.373E-02    0.711E-02
DAV:   7    -0.301771529085E+04    0.26326E-04   -0.26230E-04  7040   0.179E-02    0.591E-02
DAV:   8    -0.301771526893E+04    0.21925E-04   -0.37887E-05  6432   0.786E-03    0.313E-02
DAV:   9    -0.301771525838E+04    0.10541E-04   -0.26870E-05  6016   0.778E-03    0.173E-02
DAV:  10    -0.301771525575E+04    0.26317E-05   -0.10657E-05  5216   0.650E-03
  44 F= -.30573155E+04 E0= -.30573155E+04  d E =-.331777E-01  mag=     0.0000
       N       E                     dE             d eps       ncg     rms          rms(c)
DAV:   1    -0.301771619949E+04   -0.94111E-03   -0.17754E+00  5760   0.106E+00    0.397E-01
DAV:   2    -0.301772014351E+04   -0.39440E-02   -0.47140E-02  6976   0.166E-01    0.203E-01
DAV:   3    -0.301771987169E+04    0.27181E-03   -0.10128E-03  7072   0.314E-02    0.130E-01
DAV:   4    -0.301771981924E+04    0.52455E-04   -0.50370E-04  6912   0.242E-02    0.116E-01
DAV:   5    -0.301771971049E+04    0.10875E-03   -0.49729E-04  6592   0.242E-02    0.390E-02
DAV:   6    -0.301771970385E+04    0.66326E-05   -0.13754E-04  6944   0.132E-02    0.231E-02
DAV:   7    -0.301771970228E+04    0.15731E-05   -0.29220E-05  6560   0.617E-03
  45 F= -.30573176E+04 E0= -.30573176E+04  d E =-.352679E-01  mag=     0.0000
       N       E                     dE             d eps       ncg     rms          rms(c)
DAV:   1    -0.301772112959E+04   -0.14257E-02   -0.18143E+01  5760   0.340E+00    0.126E+00
DAV:   2    -0.301776194743E+04   -0.40818E-01   -0.48302E-01  7008   0.527E-01    0.647E-01
DAV:   3    -0.301775947511E+04    0.24723E-02   -0.10540E-02  7040   0.980E-02    0.418E-01
DAV:   4    -0.301775902973E+04    0.44538E-03   -0.48792E-03  6912   0.689E-02    0.370E-01
DAV:   5    -0.301775800415E+04    0.10256E-02   -0.47146E-03  6912   0.655E-02    0.129E-01
DAV:   6    -0.301775792855E+04    0.75603E-04   -0.12471E-03  7008   0.379E-02    0.724E-02
DAV:   7    -0.301775790641E+04    0.22134E-04   -0.30907E-04  6976   0.195E-02    0.545E-02
DAV:   8    -0.301775788580E+04    0.20613E-04   -0.38630E-05  6336   0.793E-03    0.304E-02
DAV:   9    -0.301775787749E+04    0.83132E-05   -0.27217E-05  6048   0.737E-03
  46 F= -.30573471E+04 E0= -.30573471E+04  d E =-.295732E-01  mag=     0.0000
       N       E                     dE             d eps       ncg     rms          rms(c)
DAV:   1    -0.301775888488E+04   -0.99907E-03   -0.13227E+00  5760   0.917E-01    0.336E-01
DAV:   2    -0.301776184808E+04   -0.29632E-02   -0.35186E-02  6912   0.143E-01    0.176E-01
DAV:   3    -0.301776166383E+04    0.18424E-03   -0.80483E-04  7072   0.275E-02    0.112E-01
DAV:   4    -0.301776162858E+04    0.35255E-04   -0.36195E-04  6816   0.194E-02    0.101E-01
DAV:   5    -0.301776154993E+04    0.78649E-04   -0.35415E-04  6592   0.192E-02    0.345E-02
DAV:   6    -0.301776154529E+04    0.46384E-05   -0.97341E-05  7008   0.114E-02
  47 F= -.30573485E+04 E0= -.30573485E+04  d E =-.309233E-01  mag=     0.0000
       N       E                     dE             d eps       ncg     rms          rms(c)
DAV:   1    -0.301776640433E+04   -0.48544E-02   -0.17489E+01  5760   0.333E+00    0.130E+00
DAV:   2    -0.301780448425E+04   -0.38080E-01   -0.46278E-01  6976   0.520E-01    0.701E-01
DAV:   3    -0.301780175132E+04    0.27329E-02   -0.10525E-02  7136   0.101E-01    0.423E-01
DAV:   4    -0.301780119869E+04    0.55263E-03   -0.47509E-03  7008   0.751E-02    0.395E-01
DAV:   5    -0.301780007010E+04    0.11286E-02   -0.42321E-03  7136   0.695E-02    0.125E-01
DAV:   6    -0.301780004483E+04    0.25273E-04   -0.13857E-03  7040   0.386E-02    0.846E-02
DAV:   7    -0.301779999804E+04    0.46792E-04   -0.31534E-04  6944   0.188E-02    0.582E-02
DAV:   8    -0.301779997907E+04    0.18969E-04   -0.37886E-05  6240   0.729E-03    0.350E-02
DAV:   9    -0.301779997435E+04    0.47141E-05   -0.28457E-05  5984   0.712E-03
  48 F= -.30573766E+04 E0= -.30573766E+04  d E =-.281467E-01  mag=     0.0000
       N       E                     dE             d eps       ncg     rms          rms(c)
DAV:   1    -0.301780125790E+04   -0.12788E-02   -0.42724E-01  5824   0.521E-01    0.201E-01
DAV:   2    -0.301780219108E+04   -0.93318E-03   -0.11353E-02  7040   0.824E-02    0.112E-01
DAV:   3    -0.301780212151E+04    0.69568E-04   -0.27684E-04  7136   0.169E-02    0.669E-02
DAV:   4    -0.301780210539E+04    0.16119E-04   -0.11022E-04  6976   0.121E-02    0.630E-02
DAV:   5    -0.301780207989E+04    0.25501E-04   -0.10406E-04  6464   0.123E-02    0.190E-02
DAV:   6    -0.301780208250E+04   -0.26143E-05   -0.36052E-05  6560   0.714E-03
  49 F= -.30573771E+04 E0= -.30573771E+04  d E =-.286520E-01  mag=     0.0000
       N       E                     dE             d eps       ncg     rms          rms(c)
DAV:   1    -0.301780718917E+04   -0.51093E-02   -0.12831E+01  5760   0.287E+00    0.113E+00
DAV:   2    -0.301783466109E+04   -0.27472E-01   -0.33565E-01  6944   0.448E-01    0.604E-01
DAV:   3    -0.301783264170E+04    0.20194E-02   -0.78174E-03  7072   0.874E-02    0.358E-01
DAV:   4    -0.301783228142E+04    0.36029E-03   -0.34990E-03  7008   0.664E-02    0.339E-01
DAV:   5    -0.301783148465E+04    0.79676E-03   -0.30027E-03  6944   0.593E-02    0.105E-01
DAV:   6    -0.301783147704E+04    0.76140E-05   -0.89397E-04  7040   0.326E-02    0.691E-02
DAV:   7    -0.301783145427E+04    0.22773E-04   -0.22178E-04  6944   0.152E-02    0.520E-02
DAV:   8    -0.301783144032E+04    0.13948E-04   -0.30671E-05  6016   0.630E-03    0.303E-02
DAV:   9    -0.301783143701E+04    0.33122E-05   -0.21082E-05  5824   0.646E-03
  50 F= -.30573984E+04 E0= -.30573984E+04  d E =-.212191E-01  mag=    -0.0000
       N       E                     dE             d eps       ncg     rms          rms(c)
DAV:   1    -0.301783223338E+04   -0.79307E-03   -0.12677E-01  5824   0.286E-01    0.112E-01
DAV:   2    -0.301783251095E+04   -0.27756E-03   -0.33617E-03  7104   0.454E-02    0.624E-02
DAV:   3    -0.301783249087E+04    0.20075E-04   -0.84831E-05  7072   0.973E-03    0.369E-02
DAV:   4    -0.301783248767E+04    0.32068E-05   -0.33029E-05  6080   0.723E-03    0.354E-02
DAV:   5    -0.301783248165E+04    0.60138E-05   -0.30989E-05  6048   0.775E-03
  51 F= -.30573986E+04 E0= -.30573986E+04  d E =-.214577E-01  mag=    -0.0000
       N       E                     dE             d eps       ncg     rms          rms(c)
DAV:   1    -0.301783979385E+04   -0.73062E-02   -0.10048E+01  5760   0.256E+00    0.964E-01
DAV:   2    -0.301786054224E+04   -0.20748E-01   -0.25385E-01  6912   0.392E-01    0.495E-01
DAV:   3    -0.301785899795E+04    0.15443E-02   -0.59074E-03  7104   0.749E-02    0.309E-01
DAV:   4    -0.301785870496E+04    0.29299E-03   -0.26488E-03  6944   0.543E-02    0.267E-01
DAV:   5    -0.301785823404E+04    0.47092E-03   -0.24156E-03  6880   0.475E-02    0.974E-02
DAV:   6    -0.301785818816E+04    0.45883E-04   -0.67436E-04  7040   0.265E-02    0.583E-02
DAV:   7    -0.301785816316E+04    0.25000E-04   -0.15506E-04  6976   0.135E-02    0.428E-02
DAV:   8    -0.301785815329E+04    0.98752E-05   -0.22667E-05  6048   0.532E-03
  52 F= -.30574180E+04 E0= -.30574180E+04  d E =-.194467E-01  mag=    -0.0000
       N       E                     dE             d eps       ncg     rms          rms(c)
DAV:   1    -0.301785921708E+04   -0.10539E-02   -0.38412E-01  5760   0.500E-01    0.194E-01
DAV:   2    -0.301786002930E+04   -0.81223E-03   -0.99011E-03  7072   0.776E-02    0.970E-02
DAV:   3    -0.301785996951E+04    0.59791E-04   -0.23666E-04  7040   0.154E-02    0.616E-02
DAV:   4    -0.301785995788E+04    0.11634E-04   -0.10096E-04  6912   0.107E-02    0.514E-02
DAV:   5    -0.301785994176E+04    0.16115E-04   -0.98009E-05  6272   0.101E-02    0.210E-02
DAV:   6    -0.301785994046E+04    0.13080E-05   -0.33483E-05  6016   0.623E-03
  53 F= -.30574186E+04 E0= -.30574186E+04  d E =-.200198E-01  mag=    -0.0000
       N       E                     dE             d eps       ncg     rms          rms(c)
DAV:   1    -0.301786299652E+04   -0.30548E-02   -0.10868E+01  5760   0.269E+00    0.998E-01
DAV:   2    -0.301788561524E+04   -0.22619E-01   -0.27763E-01  6976   0.413E-01    0.452E-01
DAV:   3    -0.301788385053E+04    0.17647E-02   -0.59674E-03  7072   0.769E-02    0.314E-01
DAV:   4    -0.301788359963E+04    0.25090E-03   -0.33501E-03  6976   0.584E-02    0.247E-01
DAV:   5    -0.301788301527E+04    0.58435E-03   -0.28083E-03  6912   0.513E-02    0.937E-02
DAV:   6    -0.301788295301E+04    0.62262E-04   -0.64942E-04  6912   0.278E-02    0.500E-02
DAV:   7    -0.301788294611E+04    0.69002E-05   -0.13359E-04  7072   0.124E-02    0.387E-02
DAV:   8    -0.301788293716E+04    0.89465E-05   -0.18097E-05  5856   0.542E-03
  54 F= -.30574336E+04 E0= -.30574336E+04  d E =-.149575E-01  mag=    -0.0000
       N       E                     dE             d eps       ncg     rms          rms(c)
DAV:   1    -0.301788284538E+04    0.10074E-03   -0.12171E-03  6784   0.289E-02    0.106E-02
DAV:   2    -0.301788284963E+04   -0.42496E-05   -0.34676E-05  6560   0.584E-03    0.107E-02
DAV:   3    -0.301788284993E+04   -0.30728E-06   -0.36284E-06  4992   0.218E-03    0.652E-03
DAV:   4    -0.301788285098E+04   -0.10477E-05   -0.44990E-07  4800   0.104E-03    0.472E-03
DAV:   5    -0.301788285438E+04   -0.33958E-05   -0.84146E-07  4704   0.221E-03
  55 F= -.30574336E+04 E0= -.30574336E+04  d E =-.149625E-01  mag=    -0.0000
       N       E                     dE             d eps       ncg     rms          rms(c)
DAV:   1    -0.301789145474E+04   -0.86038E-02   -0.73217E+00  5760   0.222E+00    0.822E-01
DAV:   2    -0.301790709163E+04   -0.15637E-01   -0.19210E-01  6944   0.345E-01    0.470E-01
DAV:   3    -0.301790587441E+04    0.12172E-02   -0.51542E-03  7008   0.704E-02    0.268E-01
DAV:   4    -0.301790553771E+04    0.33669E-03   -0.20626E-03  6912   0.489E-02    0.246E-01
DAV:   5    -0.301790517373E+04    0.36398E-03   -0.19548E-03  6880   0.451E-02    0.979E-02
DAV:   6    -0.301790512653E+04    0.47204E-04   -0.69994E-04  6976   0.256E-02    0.523E-02
DAV:   7    -0.301790510164E+04    0.24885E-04   -0.13670E-04  7008   0.131E-02    0.350E-02
DAV:   8    -0.301790509623E+04    0.54088E-05   -0.16301E-05  5632   0.490E-03
  56 F= -.30574479E+04 E0= -.30574479E+04  d E =-.143080E-01  mag=    -0.0000
       N       E                     dE             d eps       ncg     rms          rms(c)
DAV:   1    -0.301790666135E+04   -0.15597E-02   -0.32473E-01  5824   0.467E-01    0.178E-01
DAV:   2    -0.301790736829E+04   -0.70694E-03   -0.86933E-03  7072   0.735E-02    0.996E-02
DAV:   3    -0.301790731457E+04    0.53715E-04   -0.23982E-04  6960   0.156E-02    0.581E-02
DAV:   4    -0.301790729963E+04    0.14948E-04   -0.94505E-05  6784   0.107E-02    0.520E-02
DAV:   5    -0.301790728391E+04    0.15713E-04   -0.91727E-05  6304   0.105E-02    0.230E-02
DAV:   6    -0.301790728160E+04    0.23115E-05   -0.37316E-05  6048   0.647E-03
  57 F= -.30574484E+04 E0= -.30574484E+04  d E =-.148262E-01  mag=    -0.0000
       N       E                     dE             d eps       ncg     rms          rms(c)
DAV:   1    -0.301791756197E+04   -0.10278E-01   -0.54848E+00  5760   0.192E+00    0.681E-01
DAV:   2    -0.301792902267E+04   -0.11461E-01   -0.13971E-01  6944   0.295E-01    0.448E-01
DAV:   3    -0.301792813500E+04    0.88768E-03   -0.40767E-03  6976   0.613E-02    0.229E-01
DAV:   4    -0.301792792220E+04    0.21280E-03   -0.16036E-03  6880   0.430E-02    0.232E-01
DAV:   5    -0.301792765114E+04    0.27106E-03   -0.14985E-03  6976   0.377E-02    0.839E-02
DAV:   6    -0.301792762170E+04    0.29443E-04   -0.45847E-04  7008   0.202E-02    0.452E-02
DAV:   7    -0.301792760798E+04    0.13717E-04   -0.98771E-05  7008   0.108E-02    0.320E-02
DAV:   8    -0.301792760515E+04    0.28363E-05   -0.13869E-05  5536   0.413E-03
  58 F= -.30574620E+04 E0= -.30574620E+04  d E =-.135801E-01  mag=    -0.0000
       N       E                     dE             d eps       ncg     rms          rms(c)
DAV:   1    -0.301793018366E+04   -0.25757E-02   -0.18580E+00  5760   0.112E+00    0.399E-01
DAV:   2    -0.301793408941E+04   -0.39057E-02   -0.47575E-02  7008   0.172E-01    0.261E-01
DAV:   3    -0.301793379106E+04    0.29835E-03   -0.13904E-03  6848   0.359E-02    0.134E-01
DAV:   4    -0.301793372030E+04    0.70760E-04   -0.55135E-04  6864   0.251E-02    0.135E-01
DAV:   5    -0.301793363000E+04    0.90292E-04   -0.52867E-04  6848   0.224E-02    0.524E-02
DAV:   6    -0.301793361517E+04    0.14837E-04   -0.17596E-04  6912   0.125E-02    0.264E-02
DAV:   7    -0.301793361044E+04    0.47272E-05   -0.34923E-05  6240   0.677E-03
  59 F= -.30574641E+04 E0= -.30574641E+04  d E =-.156649E-01  mag=     0.0000
       N       E                     dE             d eps       ncg     rms          rms(c)
DAV:   1    -0.301794212132E+04   -0.85061E-02   -0.54416E+00  5760   0.191E+00    0.649E-01
DAV:   2    -0.301795289437E+04   -0.10773E-01   -0.13171E-01  7008   0.288E-01    0.379E-01
DAV:   3    -0.301795204835E+04    0.84602E-03   -0.34750E-03  6976   0.580E-02    0.212E-01
DAV:   4    -0.301795183887E+04    0.20947E-03   -0.15595E-03  6976   0.419E-02    0.199E-01
DAV:   5    -0.301795157459E+04    0.26429E-03   -0.12487E-03  6880   0.355E-02    0.734E-02
DAV:   6    -0.301795155165E+04    0.22942E-04   -0.38557E-04  6976   0.198E-02    0.434E-02
DAV:   7    -0.301795153961E+04    0.12034E-04   -0.97239E-05  7008   0.108E-02    0.296E-02
DAV:   8    -0.301795153607E+04    0.35454E-05   -0.14364E-05  5408   0.435E-03
  60 F= -.30574757E+04 E0= -.30574757E+04  d E =-.116138E-01  mag=     0.0000
       N       E                     dE             d eps       ncg     rms          rms(c)
DAV:   1    -0.301795359188E+04   -0.20523E-02   -0.72547E-01  5760   0.698E-01    0.241E-01
DAV:   2    -0.301795503421E+04   -0.14423E-02   -0.17659E-02  7008   0.106E-01    0.138E-01
DAV:   3    -0.301795492101E+04    0.11320E-03   -0.47366E-04  6912   0.215E-02    0.777E-02
DAV:   4    -0.301795489362E+04    0.27390E-04   -0.21531E-04  6880   0.155E-02    0.724E-02
DAV:   5    -0.301795485968E+04    0.33938E-04   -0.18160E-04  6464   0.135E-02    0.300E-02
DAV:   6    -0.301795485506E+04    0.46218E-05   -0.62997E-05  6400   0.802E-03
  61 F= -.30574767E+04 E0= -.30574767E+04  d E =-.126307E-01  mag=     0.0000
       N       E                     dE             d eps       ncg     rms          rms(c)
DAV:   1    -0.301796165361E+04   -0.67939E-02   -0.48036E+00  5760   0.183E+00    0.618E-01
DAV:   2    -0.301797129672E+04   -0.96431E-02   -0.11801E-01  7008   0.276E-01    0.305E-01
DAV:   3    -0.301797048820E+04    0.80852E-03   -0.26820E-03  7072   0.534E-02    0.193E-01
DAV:   4    -0.301797033836E+04    0.14984E-03   -0.14221E-03  6976   0.403E-02    0.165E-01
DAV:   5    -0.301797012583E+04    0.21253E-03   -0.10357E-03  6912   0.329E-02    0.620E-02
DAV:   6    -0.301797010717E+04    0.18659E-04   -0.31096E-04  6976   0.186E-02    0.392E-02
DAV:   7    -0.301797010083E+04    0.63414E-05   -0.80519E-05  6976   0.942E-03
  62 F= -.30574868E+04 E0= -.30574868E+04  d E =-.101140E-01  mag=     0.0000
       N       E                     dE             d eps       ncg     rms          rms(c)
DAV:   1    -0.301797119881E+04   -0.10916E-02   -0.31193E-01  5824   0.467E-01    0.165E-01
DAV:   2    -0.301797183568E+04   -0.63686E-03   -0.77496E-03  7072   0.704E-02    0.742E-02
DAV:   3    -0.301797178514E+04    0.50536E-04   -0.16316E-04  6976   0.140E-02    0.474E-02
DAV:   4    -0.301797177609E+04    0.90566E-05   -0.84923E-05  7008   0.111E-02    0.385E-02
DAV:   5    -0.301797176517E+04    0.10912E-04   -0.51957E-05  6128   0.902E-03    0.142E-02
DAV:   6    -0.301797176585E+04   -0.67556E-06   -0.16841E-05  5408   0.539E-03
  63 F= -.30574872E+04 E0= -.30574872E+04  d E =-.104723E-01  mag=    -0.0000
       N       E                     dE             d eps       ncg     rms          rms(c)
DAV:   1    -0.301797698093E+04   -0.52158E-02   -0.45786E+00  5760   0.180E+00    0.578E-01
DAV:   2    -0.301798677468E+04   -0.97937E-02   -0.11540E-01  6976   0.269E-01    0.303E-01
DAV:   3    -0.301798617365E+04    0.60102E-03   -0.23180E-03  7040   0.463E-02    0.192E-01
DAV:   4    -0.301798608857E+04    0.85086E-04   -0.12831E-03  6880   0.373E-02    0.171E-01
DAV:   5    -0.301798588071E+04    0.20785E-03   -0.10996E-03  6880   0.313E-02    0.597E-02
DAV:   6    -0.301798586433E+04    0.16383E-04   -0.25265E-04  6848   0.158E-02    0.357E-02
DAV:   7    -0.301798586089E+04    0.34429E-05   -0.58629E-05  6944   0.797E-03
  64 F= -.30574966E+04 E0= -.30574966E+04  d E =-.937988E-02  mag=     0.0000
       N       E                     dE             d eps       ncg     rms          rms(c)
DAV:   1    -0.301798705566E+04   -0.11913E-02   -0.16340E+00  5760   0.108E+00    0.352E-01
DAV:   2    -0.301799057340E+04   -0.35177E-02   -0.41464E-02  6944   0.161E-01    0.178E-01
DAV:   3    -0.301799036673E+04    0.20667E-03   -0.80530E-04  7104   0.276E-02    0.112E-01
DAV:   4    -0.301799032844E+04    0.38288E-04   -0.41771E-04  6912   0.225E-02    0.960E-02
DAV:   5    -0.301799027157E+04    0.56875E-04   -0.33217E-04  6912   0.182E-02    0.338E-02
DAV:   6    -0.301799026669E+04    0.48743E-05   -0.80251E-05  6656   0.951E-03
  65 F= -.30574981E+04 E0= -.30574981E+04  d E =-.109708E-01  mag=    -0.0000
       N       E                     dE             d eps       ncg     rms          rms(c)
DAV:   1    -0.301799464645E+04   -0.43749E-02   -0.48624E+00  5760   0.187E+00    0.641E-01
DAV:   2    -0.301800546770E+04   -0.10821E-01   -0.12919E-01  6976   0.289E-01    0.334E-01
DAV:   3    -0.301800476512E+04    0.70257E-03   -0.29987E-03  6976   0.544E-02    0.210E-01
DAV:   4    -0.301800470051E+04    0.64616E-04   -0.17062E-03  6912   0.412E-02    0.194E-01
DAV:   5    -0.301800436103E+04    0.33948E-03   -0.13981E-03  6880   0.356E-02    0.638E-02
DAV:   6    -0.301800434490E+04    0.16123E-04   -0.32624E-04  6976   0.190E-02    0.388E-02
DAV:   7    -0.301800433987E+04    0.50393E-05   -0.76452E-05  7040   0.939E-03
  66 F= -.30575076E+04 E0= -.30575076E+04  d E =-.945574E-02  mag=    -0.0000
       N       E                     dE             d eps       ncg     rms          rms(c)
DAV:   1    -0.301800515049E+04   -0.80558E-03   -0.26912E-01  5824   0.441E-01    0.159E-01
DAV:   2    -0.301800576095E+04   -0.61046E-03   -0.72909E-03  7008   0.684E-02    0.748E-02
DAV:   3    -0.301800572442E+04    0.36521E-04   -0.14991E-04  7104   0.127E-02    0.461E-02
DAV:   4    -0.301800571423E+04    0.10190E-04   -0.69188E-05  6880   0.101E-02    0.357E-02
DAV:   5    -0.301800570906E+04    0.51780E-05   -0.48394E-05  6208   0.804E-03
  67 F= -.30575079E+04 E0= -.30575079E+04  d E =-.973972E-02  mag=    -0.0000
       N       E                     dE             d eps       ncg     rms          rms(c)
DAV:   1    -0.301801043645E+04   -0.47222E-02   -0.43179E+00  5760   0.175E+00    0.575E-01
DAV:   2    -0.301802009789E+04   -0.96614E-02   -0.11278E-01  6976   0.266E-01    0.306E-01
DAV:   3    -0.301801954080E+04    0.55709E-03   -0.25260E-03  7040   0.485E-02    0.196E-01
DAV:   4    -0.301801947476E+04    0.66047E-04   -0.13181E-03  6880   0.358E-02    0.177E-01
DAV:   5    -0.301801922929E+04    0.24546E-03   -0.11542E-03  6912   0.330E-02    0.601E-02
DAV:   6    -0.301801922124E+04    0.80508E-05   -0.30307E-04  6912   0.175E-02    0.360E-02
DAV:   7    -0.301801921649E+04    0.47466E-05   -0.68048E-05  6944   0.871E-03
  68 F= -.30575175E+04 E0= -.30575175E+04  d E =-.961023E-02  mag=     0.0000
       N       E                     dE             d eps       ncg     rms          rms(c)
DAV:   1    -0.301802020463E+04   -0.98339E-03   -0.11211E+00  5760   0.894E-01    0.299E-01
DAV:   2    -0.301802273826E+04   -0.25336E-02   -0.29564E-02  6976   0.136E-01    0.152E-01
DAV:   3    -0.301802259991E+04    0.13835E-03   -0.60946E-04  7072   0.244E-02    0.966E-02
DAV:   4    -0.301802258687E+04    0.13040E-04   -0.32291E-04  6944   0.188E-02    0.880E-02
DAV:   5    -0.301802252833E+04    0.58541E-04   -0.27386E-04  6816   0.170E-02    0.282E-02
DAV:   6    -0.301802252785E+04    0.48330E-06   -0.71508E-05  6688   0.940E-03
  69 F= -.30575188E+04 E0= -.30575188E+04  d E =-.109376E-01  mag=    -0.0000
       N       E                     dE             d eps       ncg     rms          rms(c)
DAV:   1    -0.301802732604E+04   -0.47977E-02   -0.40990E+00  5760   0.171E+00    0.560E-01
DAV:   2    -0.301803615944E+04   -0.88334E-02   -0.10410E-01  7008   0.257E-01    0.277E-01
DAV:   3    -0.301803560076E+04    0.55868E-03   -0.23455E-03  7040   0.477E-02    0.185E-01
DAV:   4    -0.301803553620E+04    0.64560E-04   -0.12881E-03  6912   0.346E-02    0.160E-01
DAV:   5    -0.301803530495E+04    0.23125E-03   -0.10615E-03  6912   0.317E-02    0.532E-02
DAV:   6    -0.301803529803E+04    0.69188E-05   -0.25168E-04  6944   0.166E-02    0.328E-02
DAV:   7    -0.301803529676E+04    0.12705E-05   -0.57145E-05  7040   0.814E-03
  70 F= -.30575282E+04 E0= -.30575282E+04  d E =-.940460E-02  mag=     0.0000
       N       E                     dE             d eps       ncg     rms          rms(c)
DAV:   1    -0.301803634462E+04   -0.10466E-02   -0.63496E-01  5760   0.672E-01    0.226E-01
DAV:   2    -0.301803772673E+04   -0.13821E-02   -0.16254E-02  7008   0.102E-01    0.106E-01
DAV:   3    -0.301803764240E+04    0.84331E-04   -0.33078E-04  7072   0.185E-02    0.694E-02
DAV:   4    -0.301803763146E+04    0.10944E-04   -0.16720E-04  7008   0.139E-02    0.587E-02
DAV:   5    -0.301803760554E+04    0.25918E-04   -0.13336E-04  6720   0.125E-02    0.196E-02
DAV:   6    -0.301803760610E+04   -0.56048E-06   -0.36685E-05  6176   0.705E-03
  71 F= -.30575292E+04 E0= -.30575292E+04  d E =-.103912E-01  mag=     0.0000
       N       E                     dE             d eps       ncg     rms          rms(c)
DAV:   1    -0.301804300547E+04   -0.53999E-02   -0.21662E+00  5760   0.125E+00    0.420E-01
DAV:   2    -0.301804764199E+04   -0.46365E-02   -0.55360E-02  6976   0.190E-01    0.212E-01
DAV:   3    -0.301804731235E+04    0.32964E-03   -0.12430E-03  6944   0.359E-02    0.133E-01
DAV:   4    -0.301804728056E+04    0.31787E-04   -0.74860E-04  6880   0.278E-02    0.119E-01
DAV:   5    -0.301804715871E+04    0.12185E-03   -0.57044E-04  6912   0.229E-02    0.418E-02
DAV:   6    -0.301804714823E+04    0.10482E-04   -0.13037E-04  6944   0.122E-02    0.254E-02
DAV:   7    -0.301804714675E+04    0.14746E-05   -0.32749E-05  6592   0.647E-03
  72 F= -.30575364E+04 E0= -.30575364E+04  d E =-.713631E-02  mag=     0.0000
       N       E                     dE             d eps       ncg     rms          rms(c)
DAV:   1    -0.301804826194E+04   -0.11137E-02   -0.41074E-01  5824   0.544E-01    0.187E-01
DAV:   2    -0.301804914919E+04   -0.88725E-03   -0.10567E-02  7008   0.830E-02    0.899E-02
DAV:   3    -0.301804908701E+04    0.62173E-04   -0.21764E-04  7040   0.154E-02    0.562E-02
DAV:   4    -0.301804907433E+04    0.12680E-04   -0.11424E-04  6976   0.122E-02    0.453E-02
DAV:   5    -0.301804906063E+04    0.13705E-04   -0.74832E-05  6400   0.954E-03    0.166E-02
DAV:   6    -0.301804905957E+04    0.10550E-05   -0.20260E-05  5472   0.543E-03
  73 F= -.30575372E+04 E0= -.30575372E+04  d E =-.800295E-02  mag=     0.0000
       N       E                     dE             d eps       ncg     rms          rms(c)
DAV:   1    -0.301805355962E+04   -0.44990E-02   -0.24567E+00  5760   0.134E+00    0.430E-01
DAV:   2    -0.301805887658E+04   -0.53170E-02   -0.62299E-02  6912   0.201E-01    0.239E-01
DAV:   3    -0.301805853595E+04    0.34063E-03   -0.12757E-03  7008   0.365E-02    0.140E-01
DAV:   4    -0.301805847756E+04    0.58386E-04   -0.66216E-04  6912   0.291E-02    0.129E-01
DAV:   5    -0.301805838505E+04    0.92508E-04   -0.57700E-04  7008   0.250E-02    0.443E-02
DAV:   6    -0.301805837566E+04    0.93986E-05   -0.15677E-04  6912   0.123E-02    0.283E-02
DAV:   7    -0.301805837161E+04    0.40476E-05   -0.30976E-05  6016   0.620E-03
  74 F= -.30575442E+04 E0= -.30575442E+04  d E =-.701022E-02  mag=     0.0000
       N       E                     dE             d eps       ncg     rms          rms(c)
DAV:   1    -0.301805937528E+04   -0.99963E-03   -0.76304E-01  5824   0.749E-01    0.244E-01
DAV:   2    -0.301806104018E+04   -0.16649E-02   -0.19485E-02  7040   0.113E-01    0.131E-01
DAV:   3    -0.301806093717E+04    0.10300E-03   -0.38355E-04  7008   0.204E-02    0.766E-02
DAV:   4    -0.301806091545E+04    0.21718E-04   -0.18247E-04  6880   0.165E-02    0.690E-02
DAV:   5    -0.301806089082E+04    0.24631E-04   -0.14615E-04  6944   0.142E-02    0.214E-02
DAV:   6    -0.301806089004E+04    0.78406E-06   -0.43243E-05  6688   0.715E-03
  75 F= -.30575455E+04 E0= -.30575455E+04  d E =-.824746E-02  mag=     0.0000
       N       E                     dE             d eps       ncg     rms          rms(c)
DAV:   1    -0.301806501602E+04   -0.41252E-02   -0.22693E+00  5760   0.131E+00    0.399E-01
DAV:   2    -0.301807004972E+04   -0.50337E-02   -0.58445E-02  6976   0.196E-01    0.218E-01
DAV:   3    -0.301806974576E+04    0.30396E-03   -0.11735E-03  6976   0.350E-02    0.133E-01
DAV:   4    -0.301806968920E+04    0.56562E-04   -0.59495E-04  6912   0.271E-02    0.116E-01
DAV:   5    -0.301806961285E+04    0.76346E-04   -0.51513E-04  6944   0.235E-02    0.424E-02
DAV:   6    -0.301806960285E+04    0.10004E-04   -0.14209E-04  6976   0.120E-02    0.257E-02
DAV:   7    -0.301806960008E+04    0.27654E-05   -0.29575E-05  6112   0.620E-03
  76 F= -.30575520E+04 E0= -.30575520E+04  d E =-.656447E-02  mag=     0.0000
       N       E                     dE             d eps       ncg     rms          rms(c)
DAV:   1    -0.301806891635E+04    0.68650E-03   -0.20294E+00  5760   0.124E+00    0.378E-01
DAV:   2    -0.301807342095E+04   -0.45046E-02   -0.52286E-02  7008   0.185E-01    0.206E-01
DAV:   3    -0.301807314625E+04    0.27470E-03   -0.10329E-03  7008   0.332E-02    0.125E-01
DAV:   4    -0.301807307956E+04    0.66691E-04   -0.47366E-04  6880   0.254E-02    0.106E-01
DAV:   5    -0.301807301982E+04    0.59742E-04   -0.39389E-04  6944   0.223E-02    0.362E-02
DAV:   6    -0.301807301556E+04    0.42641E-05   -0.12069E-04  7008   0.116E-02    0.247E-02
DAV:   7    -0.301807301368E+04    0.18774E-05   -0.26756E-05  5728   0.593E-03
  77 F= -.30575534E+04 E0= -.30575534E+04  d E =-.795303E-02  mag=     0.0000
       N       E                     dE             d eps       ncg     rms          rms(c)
DAV:   1    -0.301807680545E+04   -0.37899E-02   -0.12357E+00  5760   0.956E-01    0.280E-01
DAV:   2    -0.301807957646E+04   -0.27710E-02   -0.31454E-02  6912   0.141E-01    0.150E-01
DAV:   3    -0.301807944966E+04    0.12681E-03   -0.56999E-04  7008   0.229E-02    0.965E-02
DAV:   4    -0.301807942868E+04    0.20975E-04   -0.29127E-04  6944   0.182E-02    0.741E-02
DAV:   5    -0.301807941062E+04    0.18065E-04   -0.23759E-04  6976   0.146E-02    0.305E-02
DAV:   6    -0.301807940615E+04    0.44720E-05   -0.56078E-05  6272   0.767E-03
  78 F= -.30575580E+04 E0= -.30575580E+04  d E =-.458782E-02  mag=     0.0000
       N       E                     dE             d eps       ncg     rms          rms(c)
DAV:   1    -0.301807109008E+04    0.83205E-02   -0.86224E+00  5760   0.252E+00    0.736E-01
DAV:   2    -0.301809036784E+04   -0.19278E-01   -0.21887E-01  6912   0.373E-01    0.400E-01
DAV:   3    -0.301808945024E+04    0.91760E-03   -0.40859E-03  7008   0.615E-02    0.260E-01
DAV:   4    -0.301808933163E+04    0.11861E-03   -0.22042E-03  6944   0.482E-02    0.213E-01
DAV:   5    -0.301808908766E+04    0.24397E-03   -0.19907E-03  6880   0.415E-02    0.851E-02
DAV:   6    -0.301808903682E+04    0.50835E-04   -0.45138E-04  6912   0.213E-02    0.436E-02
DAV:   7    -0.301808903324E+04    0.35877E-05   -0.11511E-04  6944   0.117E-02    0.317E-02
DAV:   8    -0.301808903086E+04    0.23801E-05   -0.14267E-05  5600   0.480E-03
  79 F= -.30575629E+04 E0= -.30575629E+04  d E =-.945358E-02  mag=     0.0000
       N       E                     dE             d eps       ncg     rms          rms(c)
DAV:   1    -0.301809544492E+04   -0.64117E-02   -0.20060E+00  5760   0.122E+00    0.390E-01
DAV:   2    -0.301809988867E+04   -0.44437E-02   -0.51832E-02  7008   0.184E-01    0.211E-01
DAV:   3    -0.301809960265E+04    0.28602E-03   -0.10654E-03  6976   0.333E-02    0.129E-01
DAV:   4    -0.301809955833E+04    0.44322E-04   -0.59773E-04  6912   0.272E-02    0.113E-01
DAV:   5    -0.301809948139E+04    0.76937E-04   -0.51812E-04  6976   0.234E-02    0.438E-02
DAV:   6    -0.301809947073E+04    0.10662E-04   -0.13786E-04  7008   0.117E-02    0.247E-02
[...]
 289 F= -.30579994E+04 E0= -.30579994E+04  d E =-.547059E-03  mag=    -0.0000
       N       E                     dE             d eps       ncg     rms          rms(c)
DAV:   1    -0.301859957451E+04   -0.24649E-05   -0.46062E-05  6400   0.654E-03    0.542E-03
DAV:   2    -0.301859957477E+04   -0.26135E-06   -0.28461E-06  4800   0.185E-03    0.451E-03
DAV:   3    -0.301859957486E+04   -0.85623E-07   -0.72188E-07  4800   0.969E-04    0.314E-03
DAV:   4    -0.301859957507E+04   -0.21880E-06   -0.20455E-07  4736   0.911E-04    0.142E-03
DAV:   5    -0.301859957541E+04   -0.33027E-06   -0.15482E-07  4800   0.862E-04
 290 F= -.30579994E+04 E0= -.30579994E+04  d E =-.547026E-03  mag=    -0.0000
       N       E                     dE             d eps       ncg     rms          rms(c)
DAV:   1    -0.301859946753E+04    0.10754E-03   -0.16692E-01  5824   0.369E-01    0.103E-01
DAV:   2    -0.301859979266E+04   -0.32513E-03   -0.38679E-03  6944   0.530E-02    0.478E-02
DAV:   3    -0.301859976407E+04    0.28587E-04   -0.76636E-05  7040   0.975E-03    0.301E-02
DAV:   4    -0.301859975558E+04    0.84933E-05   -0.49033E-05  6944   0.883E-03    0.162E-02
DAV:   5    -0.301859975496E+04    0.62137E-06   -0.19448E-05  5344   0.502E-03
 291 F= -.30579999E+04 E0= -.30579999E+04  d E =-.482851E-03  mag=    -0.0000
       N       E                     dE             d eps       ncg     rms          rms(c)
DAV:   1    -0.301859970240E+04    0.53176E-04   -0.59833E-03  5952   0.698E-02    0.231E-02
DAV:   2    -0.301859971386E+04   -0.11462E-04   -0.14521E-04  7008   0.104E-02    0.952E-03
DAV:   3    -0.301859971291E+04    0.95146E-06   -0.33361E-06  4800   0.248E-03    0.645E-03
DAV:   4    -0.301859971285E+04    0.65076E-07   -0.24307E-06  4768   0.203E-03    0.526E-03
DAV:   5    -0.301859971268E+04    0.16543E-06   -0.14792E-06  4768   0.189E-03
 292 F= -.30579999E+04 E0= -.30579999E+04  d E =-.497979E-03  mag=    -0.0000
       N       E                     dE             d eps       ncg     rms          rms(c)
DAV:   1    -0.301859966528E+04    0.47570E-04   -0.14530E-01  5824   0.343E-01    0.938E-02
DAV:   2    -0.301859994893E+04   -0.28365E-03   -0.33534E-03  6880   0.492E-02    0.443E-02
DAV:   3    -0.301859992559E+04    0.23340E-04   -0.60327E-05  6944   0.841E-03    0.281E-02
DAV:   4    -0.301859991933E+04    0.62594E-05   -0.41097E-05  6688   0.795E-03    0.166E-02
DAV:   5    -0.301859991840E+04    0.92533E-06   -0.17178E-05  5312   0.465E-03
 293 F= -.30580004E+04 E0= -.30580004E+04  d E =-.491873E-03  mag=    -0.0000
       N       E                     dE             d eps       ncg     rms          rms(c)
DAV:   1    -0.301859983852E+04    0.80808E-04   -0.15277E-02  5824   0.111E-01    0.334E-02
DAV:   2    -0.301859986830E+04   -0.29779E-04   -0.36121E-04  7008   0.162E-02    0.146E-02
DAV:   3    -0.301859986600E+04    0.22996E-05   -0.65812E-06  4800   0.315E-03    0.939E-03
DAV:   4    -0.301859986585E+04    0.15076E-06   -0.50183E-06  4800   0.289E-03    0.753E-03
DAV:   5    -0.301859986561E+04    0.24162E-06   -0.35634E-06  4832   0.233E-03
 294 F= -.30580005E+04 E0= -.30580005E+04  d E =-.531804E-03  mag=    -0.0000
       N       E                     dE             d eps       ncg     rms          rms(c)
DAV:   1    -0.301859980615E+04    0.59702E-04   -0.15439E-01  5824   0.352E-01    0.973E-02
DAV:   2    -0.301860010524E+04   -0.29909E-03   -0.35456E-03  6912   0.503E-02    0.456E-02
DAV:   3    -0.301860008070E+04    0.24538E-04   -0.64505E-05  7008   0.872E-03    0.289E-02
DAV:   4    -0.301860007406E+04    0.66420E-05   -0.42012E-05  6816   0.800E-03    0.178E-02
DAV:   5    -0.301860007274E+04    0.13186E-05   -0.18114E-05  5472   0.487E-03
 295 F= -.30580010E+04 E0= -.30580010E+04  d E =-.484067E-03  mag=    -0.0000
       N       E                     dE             d eps       ncg     rms          rms(c)
DAV:   1    -0.301860001365E+04    0.60406E-04   -0.89305E-03  5888   0.847E-02    0.264E-02
DAV:   2    -0.301860003092E+04   -0.17272E-04   -0.21236E-04  6944   0.124E-02    0.113E-02
DAV:   3    -0.301860002962E+04    0.13013E-05   -0.40698E-06  4768   0.254E-03    0.736E-03
DAV:   4    -0.301860002956E+04    0.58440E-07   -0.26752E-06  4736   0.221E-03    0.563E-03
DAV:   5    -0.301860002957E+04   -0.87311E-08   -0.18991E-06  4768   0.191E-03
 296 F= -.30580010E+04 E0= -.30580010E+04  d E =-.507424E-03  mag=    -0.0000
       N       E                     dE             d eps       ncg     rms          rms(c)
DAV:   1    -0.301860003248E+04   -0.29144E-05   -0.14320E-01  5824   0.339E-01    0.936E-02
DAV:   2    -0.301860030985E+04   -0.27737E-03   -0.32982E-03  6880   0.486E-02    0.443E-02
DAV:   3    -0.301860028718E+04    0.22663E-04   -0.63845E-05  7008   0.862E-03    0.281E-02
DAV:   4    -0.301860028102E+04    0.61653E-05   -0.38736E-05  6752   0.750E-03    0.173E-02
DAV:   5    -0.301860027966E+04    0.13546E-05   -0.15639E-05  5440   0.451E-03
 297 F= -.30580015E+04 E0= -.30580015E+04  d E =-.494921E-03  mag=    -0.0000
       N       E                     dE             d eps       ncg     rms          rms(c)
DAV:   1    -0.301860021237E+04    0.68653E-04   -0.16013E-02  5824   0.113E-01    0.341E-02
DAV:   2    -0.301860024324E+04   -0.30875E-04   -0.37673E-04  7072   0.165E-02    0.151E-02
DAV:   3    -0.301860024078E+04    0.24655E-05   -0.71806E-06  4832   0.325E-03    0.959E-03
DAV:   4    -0.301860024050E+04    0.27765E-06   -0.49067E-06  4768   0.288E-03    0.709E-03
DAV:   5    -0.301860024047E+04    0.29861E-07   -0.31566E-06  4832   0.220E-03
 298 F= -.30580015E+04 E0= -.30580015E+04  d E =-.537571E-03  mag=    -0.0000
       N       E                     dE             d eps       ncg     rms          rms(c)
DAV:   1    -0.301860021857E+04    0.21930E-04   -0.15579E-01  5824   0.351E-01    0.948E-02
DAV:   2    -0.301860051352E+04   -0.29495E-03   -0.34983E-03  6848   0.498E-02    0.444E-02
DAV:   3    -0.301860049044E+04    0.23078E-04   -0.65210E-05  7072   0.866E-03    0.285E-02
DAV:   4    -0.301860048446E+04    0.59843E-05   -0.39799E-05  6720   0.778E-03    0.171E-02
DAV:   5    -0.301860048346E+04    0.99692E-06   -0.17029E-05  5440   0.473E-03
 299 F= -.30580020E+04 E0= -.30580020E+04  d E =-.504842E-03  mag=    -0.0000
       N       E                     dE             d eps       ncg     rms          rms(c)
DAV:   1    -0.301860038054E+04    0.10392E-03   -0.26599E-02  5824   0.145E-01    0.419E-02
DAV:   2    -0.301860043075E+04   -0.50209E-04   -0.60714E-04  7040   0.208E-02    0.183E-02
DAV:   3    -0.301860042688E+04    0.38663E-05   -0.10915E-05  4960   0.393E-03    0.116E-02
DAV:   4    -0.301860042622E+04    0.66048E-06   -0.74515E-06  4832   0.368E-03    0.803E-03
DAV:   5    -0.301860042624E+04   -0.19150E-07   -0.48768E-06  4768   0.264E-03
 300 F= -.30580021E+04 E0= -.30580021E+04  d E =-.555791E-03  mag=    -0.0000
       N       E                     dE             d eps       ncg     rms          rms(c)
DAV:   1    -0.301860040940E+04    0.16820E-04   -0.16361E-01  5824   0.360E-01    0.958E-02
DAV:   2    -0.301860072418E+04   -0.31478E-03   -0.37102E-03  6880   0.512E-02    0.456E-02
DAV:   3    -0.301860070007E+04    0.24117E-04   -0.68579E-05  7072   0.871E-03    0.293E-02
DAV:   4    -0.301860069420E+04    0.58670E-05   -0.42269E-05  6784   0.783E-03    0.175E-02
DAV:   5    -0.301860069322E+04    0.98307E-06   -0.17445E-05  5568   0.463E-03
 301 F= -.30580026E+04 E0= -.30580026E+04  d E =-.495290E-03  mag=    -0.0000
       N       E                     dE             d eps       ncg     rms          rms(c)
DAV:   1    -0.301860061287E+04    0.81331E-04   -0.21735E-02  5824   0.131E-01    0.376E-02
DAV:   2    -0.301860065460E+04   -0.41730E-04   -0.50099E-04  7008   0.189E-02    0.166E-02
DAV:   3    -0.301860065156E+04    0.30391E-05   -0.89121E-06  4992   0.343E-03    0.105E-02
DAV:   4    -0.301860065110E+04    0.45821E-06   -0.64842E-06  4800   0.332E-03    0.644E-03
DAV:   5    -0.301860065128E+04   -0.17619E-06   -0.33758E-06  4768   0.210E-03
 302 F= -.30580026E+04 E0= -.30580026E+04  d E =-.536587E-03  mag=    -0.0000
       N       E                     dE             d eps       ncg     rms          rms(c)
DAV:   1    -0.301860063422E+04    0.16884E-04   -0.14982E-01  5824   0.345E-01    0.954E-02
DAV:   2    -0.301860092511E+04   -0.29089E-03   -0.34409E-03  6912   0.494E-02    0.446E-02
DAV:   3    -0.301860090087E+04    0.24236E-04   -0.63407E-05  7072   0.876E-03    0.284E-02
DAV:   4    -0.301860089515E+04    0.57257E-05   -0.40285E-05  6752   0.787E-03    0.187E-02
DAV:   5    -0.301860089323E+04    0.19140E-05   -0.18721E-05  5504   0.493E-03
 303 F= -.30580030E+04 E0= -.30580030E+04  d E =-.430477E-03  mag=    -0.0000
       N       E                     dE             d eps       ncg     rms          rms(c)
DAV:   1    -0.301860086603E+04    0.29120E-04   -0.39930E-03  5952   0.564E-02    0.186E-02
DAV:   2    -0.301860087371E+04   -0.76879E-05   -0.96476E-05  7072   0.840E-03    0.783E-03
DAV:   3    -0.301860087315E+04    0.56659E-06   -0.21500E-06  4768   0.195E-03    0.529E-03
DAV:   4    -0.301860087321E+04   -0.57800E-07   -0.15362E-06  4736   0.159E-03    0.436E-03
DAV:   5    -0.301860087317E+04    0.38126E-07   -0.95600E-07  4768   0.155E-03
 304 F= -.30580030E+04 E0= -.30580030E+04  d E =-.441154E-03  mag=    -0.0000
       N       E                     dE             d eps       ncg     rms          rms(c)
DAV:   1    -0.301860085235E+04    0.20853E-04   -0.12816E-01  5824   0.319E-01    0.863E-02
DAV:   2    -0.301860110559E+04   -0.25324E-03   -0.29675E-03  6848   0.458E-02    0.421E-02
DAV:   3    -0.301860108580E+04    0.19798E-04   -0.53433E-05  6688   0.782E-03    0.268E-02
DAV:   4    -0.301860108193E+04    0.38619E-05   -0.34828E-05  6688   0.693E-03    0.190E-02
DAV:   5    -0.301860107963E+04    0.23021E-05   -0.16529E-05  5280   0.450E-03
 305 F= -.30580034E+04 E0= -.30580034E+04  d E =-.394295E-03  mag=    -0.0000
       N       E                     dE             d eps       ncg     rms          rms(c)
DAV:   1    -0.301860105024E+04    0.31691E-04   -0.46665E-03  5888   0.609E-02    0.191E-02
DAV:   2    -0.301860105949E+04   -0.92431E-05   -0.11343E-04  7104   0.907E-03    0.871E-03
DAV:   3    -0.301860105891E+04    0.58109E-06   -0.26713E-06  4736   0.197E-03    0.595E-03
DAV:   4    -0.301860105893E+04   -0.25611E-07   -0.16407E-06  4736   0.153E-03    0.480E-03
DAV:   5    -0.301860105893E+04   -0.17462E-09   -0.11680E-06  4736   0.147E-03
 306 F= -.30580035E+04 E0= -.30580035E+04  d E =-.409399E-03  mag=    -0.0000
       N       E                     dE             d eps       ncg     rms          rms(c)
DAV:   1    -0.301860104178E+04    0.17156E-04   -0.12620E-01  5824   0.317E-01    0.879E-02
DAV:   2    -0.301860129264E+04   -0.25087E-03   -0.29416E-03  6880   0.455E-02    0.419E-02
DAV:   3    -0.301860127293E+04    0.19716E-04   -0.53223E-05  6784   0.790E-03    0.266E-02
DAV:   4    -0.301860126943E+04    0.34987E-05   -0.33810E-05  6464   0.691E-03    0.191E-02
DAV:   5    -0.301860126726E+04    0.21638E-05   -0.16139E-05  5440   0.453E-03
 307 F= -.30580039E+04 E0= -.30580039E+04  d E =-.411216E-03  mag=    -0.0000
       N       E                     dE             d eps       ncg     rms          rms(c)
DAV:   1    -0.301860122720E+04    0.42222E-04   -0.75955E-03  5888   0.776E-02    0.241E-02
DAV:   2    -0.301860124238E+04   -0.15174E-04   -0.18274E-04  7008   0.114E-02    0.106E-02
DAV:   3    -0.301860124135E+04    0.10287E-05   -0.35001E-06  4800   0.227E-03    0.677E-03
DAV:   4    -0.301860124152E+04   -0.16851E-06   -0.27486E-06  4736   0.203E-03    0.609E-03
DAV:   5    -0.301860124138E+04    0.14307E-06   -0.18539E-06  4800   0.168E-03
 308 F= -.30580039E+04 E0= -.30580039E+04  d E =-.435045E-03  mag=    -0.0000
       N       E                     dE             d eps       ncg     rms          rms(c)
DAV:   1    -0.301860119607E+04    0.45453E-04   -0.13556E-01  5824   0.327E-01    0.901E-02
DAV:   2    -0.301860146365E+04   -0.26758E-03   -0.31346E-03  6784   0.468E-02    0.427E-02
DAV:   3    -0.301860144253E+04    0.21118E-04   -0.56247E-05  6912   0.816E-03    0.271E-02
DAV:   4    -0.301860143870E+04    0.38327E-05   -0.35147E-05  6592   0.718E-03    0.189E-02
DAV:   5    -0.301860143678E+04    0.19210E-05   -0.16212E-05  5408   0.459E-03
 309 F= -.30580043E+04 E0= -.30580043E+04  d E =-.394497E-03  mag=    -0.0000
       N       E                     dE             d eps       ncg     rms          rms(c)
DAV:   1    -0.301860141343E+04    0.25275E-04   -0.27099E-03  6016   0.463E-02    0.155E-02
DAV:   2    -0.301860141883E+04   -0.54052E-05   -0.66290E-05  6976   0.691E-03    0.640E-03
DAV:   3    -0.301860141857E+04    0.25867E-06   -0.12874E-06  4768   0.150E-03    0.392E-03
DAV:   4    -0.301860141875E+04   -0.17829E-06   -0.90653E-07  4736   0.140E-03    0.313E-03
DAV:   5    -0.301860141887E+04   -0.11706E-06   -0.54535E-07  4800   0.106E-03
 310 F= -.30580043E+04 E0= -.30580043E+04  d E =-.404687E-03  mag=    -0.0000
       N       E                     dE             d eps       ncg     rms          rms(c)
DAV:   1    -0.301860142530E+04   -0.65512E-05   -0.12744E-01  5824   0.319E-01    0.892E-02
DAV:   2    -0.301860167368E+04   -0.24838E-03   -0.29469E-03  6816   0.458E-02    0.408E-02
DAV:   3    -0.301860165186E+04    0.21820E-04   -0.55924E-05  6944   0.823E-03    0.257E-02
DAV:   4    -0.301860164559E+04    0.62709E-05   -0.33105E-05  6592   0.730E-03    0.155E-02
DAV:   5    -0.301860164436E+04    0.12271E-05   -0.15119E-05  5184   0.452E-03
 311 F= -.30580047E+04 E0= -.30580047E+04  d E =-.393241E-03  mag=     0.0000
       N       E                     dE             d eps       ncg     rms          rms(c)
DAV:   1    -0.301860162638E+04    0.19208E-04   -0.22025E-03  6080   0.420E-02    0.146E-02
DAV:   2    -0.301860163043E+04   -0.40521E-05   -0.53529E-05  6848   0.631E-03    0.579E-03
DAV:   3    -0.301860163008E+04    0.35128E-06   -0.12877E-06  4768   0.158E-03    0.373E-03
DAV:   4    -0.301860163009E+04   -0.43074E-08   -0.69517E-07  4768   0.129E-03    0.305E-03
DAV:   5    -0.301860163011E+04   -0.24913E-07   -0.43468E-07  4768   0.124E-03
 312 F= -.30580047E+04 E0= -.30580047E+04  d E =-.401036E-03  mag=    -0.0000
       N       E                     dE             d eps       ncg     rms          rms(c)
DAV:   1    -0.301860166101E+04   -0.30926E-04   -0.11983E-01  5824   0.308E-01    0.814E-02
DAV:   2    -0.301860189331E+04   -0.23229E-03   -0.27138E-03  6912   0.436E-02    0.384E-02
DAV:   3    -0.301860187463E+04    0.18674E-04   -0.46977E-05  6720   0.732E-03    0.244E-02
DAV:   4    -0.301860186962E+04    0.50085E-05   -0.31993E-05  6528   0.695E-03    0.140E-02
DAV:   5    -0.301860186885E+04    0.76927E-06   -0.14179E-05  5120   0.405E-03
 313 F= -.30580051E+04 E0= -.30580051E+04  d E =-.362993E-03  mag=    -0.0000
       N       E                     dE             d eps       ncg     rms          rms(c)
DAV:   1    -0.301860184948E+04    0.20147E-04   -0.47884E-03  5888   0.616E-02    0.190E-02
DAV:   2    -0.301860185862E+04   -0.91424E-05   -0.11244E-04  7008   0.895E-03    0.785E-03
DAV:   3    -0.301860185797E+04    0.64535E-06   -0.21139E-06  4768   0.182E-03    0.514E-03
DAV:   4    -0.301860185801E+04   -0.39407E-07   -0.14478E-06  4672   0.156E-03    0.429E-03
DAV:   5    -0.301860185802E+04   -0.68103E-08   -0.10217E-06  4736   0.140E-03
 314 F= -.30580051E+04 E0= -.30580051E+04  d E =-.376991E-03  mag=    -0.0000
       N       E                     dE             d eps       ncg     rms          rms(c)
DAV:   1    -0.301860189343E+04   -0.35414E-04   -0.11990E-01  5824   0.309E-01    0.851E-02
DAV:   2    -0.301860212883E+04   -0.23540E-03   -0.27830E-03  6912   0.445E-02    0.393E-02
DAV:   3    -0.301860210860E+04    0.20223E-04   -0.53320E-05  6880   0.801E-03    0.246E-02
DAV:   4    -0.301860210333E+04    0.52722E-05   -0.31259E-05  6304   0.697E-03    0.152E-02
DAV:   5    -0.301860210222E+04    0.11111E-05   -0.14869E-05  5280   0.430E-03
 315 F= -.30580054E+04 E0= -.30580054E+04  d E =-.371955E-03  mag=    -0.0000
       N       E                     dE             d eps       ncg     rms          rms(c)
DAV:   1    -0.301860208060E+04    0.22733E-04   -0.45611E-03  5888   0.603E-02    0.193E-02
DAV:   2    -0.301860208937E+04   -0.87686E-05   -0.10918E-04  6976   0.891E-03    0.787E-03
DAV:   3    -0.301860208869E+04    0.67800E-06   -0.22501E-06  4800   0.193E-03    0.496E-03
DAV:   4    -0.301860208870E+04   -0.11583E-07   -0.14028E-06  4704   0.162E-03    0.404E-03
DAV:   5    -0.301860208874E+04   -0.36671E-07   -0.96123E-07  4736   0.136E-03
 316 F= -.30580055E+04 E0= -.30580055E+04  d E =-.383394E-03  mag=    -0.0000
       N       E                     dE             d eps       ncg     rms          rms(c)
DAV:   1    -0.301860211087E+04   -0.22165E-04   -0.10765E-01  5824   0.292E-01    0.750E-02
DAV:   2    -0.301860232364E+04   -0.21277E-03   -0.24525E-03  6816   0.413E-02    0.362E-02
DAV:   3    -0.301860230769E+04    0.15942E-04   -0.39904E-05  6592   0.675E-03    0.231E-02
DAV:   4    -0.301860230399E+04    0.36993E-05   -0.28631E-05  6112   0.658E-03    0.144E-02
DAV:   5    -0.301860230310E+04    0.89360E-06   -0.13560E-05  5280   0.399E-03
 317 F= -.30580058E+04 E0= -.30580058E+04  d E =-.360929E-03  mag=    -0.0000
       N       E                     dE             d eps       ncg     rms          rms(c)
DAV:   1    -0.301860225217E+04    0.51828E-04   -0.17886E-02  5824   0.119E-01    0.328E-02
DAV:   2    -0.301860228751E+04   -0.35344E-04   -0.41450E-04  6944   0.171E-02    0.147E-02
DAV:   3    -0.301860228496E+04    0.25493E-05   -0.64088E-06  4800   0.301E-03    0.929E-03
DAV:   4    -0.301860228460E+04    0.35745E-06   -0.53739E-06  4768   0.305E-03    0.675E-03
DAV:   5    -0.301860228452E+04    0.83121E-07   -0.33522E-06  4832   0.211E-03
 318 F= -.30580059E+04 E0= -.30580059E+04  d E =-.402085E-03  mag=    -0.0000
       N       E                     dE             d eps       ncg     rms          rms(c)
DAV:   1    -0.301860229362E+04   -0.90169E-05   -0.12457E-01  5824   0.315E-01    0.845E-02
DAV:   2    -0.301860253685E+04   -0.24323E-03   -0.28428E-03  6816   0.448E-02    0.389E-02
DAV:   3    -0.301860251719E+04    0.19662E-04   -0.49282E-05  6816   0.772E-03    0.247E-02
DAV:   4    -0.301860251257E+04    0.46205E-05   -0.33984E-05  6464   0.723E-03    0.158E-02
DAV:   5    -0.301860251106E+04    0.15081E-05   -0.15958E-05  5184   0.441E-03
 319 F= -.30580063E+04 E0= -.30580063E+04  d E =-.401102E-03  mag=    -0.0000
       N       E                     dE             d eps       ncg     rms          rms(c)
DAV:   1    -0.301860248293E+04    0.29645E-04   -0.45032E-03  5888   0.599E-02    0.187E-02
DAV:   2    -0.301860249168E+04   -0.87568E-05   -0.10668E-04  6944   0.877E-03    0.761E-03
DAV:   3    -0.301860249107E+04    0.61188E-06   -0.18601E-06  4800   0.180E-03    0.476E-03
DAV:   4    -0.301860249108E+04   -0.90804E-08   -0.13381E-06  4704   0.169E-03    0.379E-03
DAV:   5    -0.301860249113E+04   -0.50990E-07   -0.87020E-07  4768   0.132E-03
 320 F= -.30580063E+04 E0= -.30580063E+04  d E =-.414336E-03  mag=    -0.0000
       N       E                     dE             d eps       ncg     rms          rms(c)
DAV:   1    -0.301860246408E+04    0.26996E-04   -0.10056E-01  5824   0.284E-01    0.751E-02
DAV:   2    -0.301860266203E+04   -0.19795E-03   -0.23115E-03  6912   0.405E-02    0.356E-02
DAV:   3    -0.301860264629E+04    0.15739E-04   -0.41056E-05  6624   0.693E-03    0.225E-02
DAV:   4    -0.301860264285E+04    0.34422E-05   -0.25684E-05  5792   0.622E-03    0.164E-02
DAV:   5    -0.301860264104E+04    0.18156E-05   -0.13982E-05  5024   0.424E-03
 321 F= -.30580066E+04 E0= -.30580066E+04  d E =-.321434E-03  mag=    -0.0000
