       N       E                     dE             d eps       ncg     rms          rms(c)
DAV:   1    -0.289667850293E+02   -0.28967E+02   -0.96583E+02    12   0.153E+02    0.152E+01
DAV:   2    -0.243146022684E+02    0.46522E+01   -0.72439E+01    12   0.379E+01    0.134E+01
DAV:   3    -0.155606727903E+02    0.87539E+01   -0.22000E+00    18   0.834E+00    0.813E+00
DAV:   4    -0.874942675552E+01    0.68112E+01   -0.81161E+00    12   0.113E+01    0.296E+00
DAV:   5    -0.807057329411E+01    0.67885E+00   -0.22315E-01    24   0.213E+00    0.148E+00
DAV:   6    -0.711622880471E+01    0.95434E+00   -0.82414E-01    12   0.304E+00    0.186E+00
DAV:   7    -0.675101044768E+01    0.36522E+00   -0.19219E-01    24   0.168E+00    0.503E-01
DAV:   8    -0.670561119578E+01    0.45399E-01   -0.79194E-03    12   0.464E-01    0.796E-01
DAV:   9    -0.673973692437E+01   -0.34126E-01   -0.81165E-02    12   0.108E+00    0.348E-01
DAV:  10    -0.674920293716E+01   -0.94660E-02   -0.45871E-03    24   0.262E-01    0.127E-01
DAV:  11    -0.676142113235E+01   -0.12218E-01   -0.24304E-03    18   0.192E-01    0.529E-02
DAV:  12    -0.676602936542E+01   -0.46082E-02   -0.16863E-04    18   0.552E-02    0.137E-02
DAV:  13    -0.676770134101E+01   -0.16720E-02   -0.59580E-05    18   0.339E-02    0.611E-03
DAV:  14    -0.676878765758E+01   -0.10863E-02   -0.35758E-05    12   0.222E-02    0.295E-03
DAV:  15    -0.676894882778E+01   -0.16117E-03   -0.21123E-06    24   0.572E-03    0.143E-03
DAV:  16    -0.676909988424E+01   -0.15106E-03   -0.23671E-06    18   0.604E-03    0.582E-04
DAV:  17    -0.676913458242E+01   -0.34698E-04   -0.16605E-07    24   0.169E-03    0.185E-04
DAV:  18    -0.676914152521E+01   -0.69428E-05   -0.22579E-08    18   0.587E-04
   1 F= -.67716358E+01 E0= -.67716358E+01  d E =-.677164E+01
       N       E                     dE             d eps       ncg     rms          rms(c)
DAV:   1    -0.676524202266E+01    0.38926E-02   -0.21363E-01    12   0.291E+00    0.227E-01
DAV:   2    -0.676446183690E+01    0.78019E-03   -0.12301E-03    24   0.202E-01    0.122E-01
DAV:   3    -0.676421473155E+01    0.24711E-03   -0.82244E-04    18   0.103E-01    0.890E-03
DAV:   4    -0.676423545545E+01   -0.20724E-04   -0.20766E-06    24   0.613E-03    0.383E-03
DAV:   5    -0.676424641308E+01   -0.10958E-04   -0.16748E-06    24   0.549E-03    0.698E-04
DAV:   6    -0.676425288944E+01   -0.64764E-05   -0.98599E-07    24   0.327E-03
   2 F= -.67668004E+01 E0= -.67668004E+01  d E =0.483538E-02
       N       E                     dE             d eps       ncg     rms          rms(c)
DAV:   1    -0.677070147336E+01   -0.64551E-02   -0.10532E-01    12   0.203E+00    0.157E-01
DAV:   2    -0.677032101568E+01    0.38046E-03   -0.53739E-04    24   0.139E-01    0.868E-02
DAV:   3    -0.677020055730E+01    0.12046E-03   -0.45398E-04    18   0.767E-02    0.643E-03
DAV:   4    -0.677020738834E+01   -0.68310E-05   -0.14319E-06    24   0.399E-03    0.327E-03
DAV:   5    -0.677021291163E+01   -0.55233E-05   -0.78222E-07    18   0.401E-03
   3 F= -.67727184E+01 E0= -.67727184E+01  d E =-.108261E-02
