       N       E                     dE             d eps       ncg     rms          rms(c)
DAV:   1     0.184296906781E+05    0.18430E+05   -0.76138E+05  5920   0.107E+03
DAV:   2     0.409689193803E+03   -0.18020E+05   -0.17273E+05  7440   0.282E+02
DAV:   3    -0.295350566575E+04   -0.33632E+04   -0.33431E+04  6592   0.127E+02
DAV:   4    -0.305304380079E+04   -0.99538E+02   -0.99068E+02  6640   0.251E+01
DAV:   5    -0.305532053998E+04   -0.22767E+01   -0.22725E+01  7136   0.346E+00    0.189E+02
DAV:   6    -0.148773656084E+04    0.15676E+04   -0.31383E+03  6288   0.453E+01    0.907E+01
DAV:   7    -0.163733580229E+04   -0.14960E+03   -0.29998E+02  6768   0.153E+01    0.586E+01
DAV:   8    -0.164453315588E+04   -0.71974E+01   -0.74985E+01  6736   0.551E+00    0.452E+01
DAV:   9    -0.177127418644E+04   -0.12674E+03   -0.37732E+01  6560   0.491E+00    0.367E+01
DAV:  10    -0.194426399435E+04   -0.17299E+03   -0.47986E+01  6592   0.510E+00    0.308E+01
DAV:  11    -0.216538801119E+04   -0.22112E+03   -0.77197E+01  6448   0.655E+00    0.258E+01
DAV:  12    -0.239710660587E+04   -0.23172E+03   -0.10288E+02  6576   0.751E+00    0.215E+01
DAV:  13    -0.259666743597E+04   -0.19956E+03   -0.11099E+02  6384   0.730E+00    0.162E+01
DAV:  14    -0.277505749269E+04   -0.17839E+03   -0.14349E+02  6512   0.748E+00    0.110E+01
DAV:  15    -0.283273468144E+04   -0.57677E+02   -0.34555E+01  6720   0.362E+00    0.888E+00
DAV:  16    -0.285054260779E+04   -0.17808E+02   -0.53005E+00  6592   0.175E+00    0.738E+00
DAV:  17    -0.286471058658E+04   -0.14168E+02   -0.44286E+00  6464   0.146E+00    0.579E+00
DAV:  18    -0.287178300679E+04   -0.70724E+01   -0.21773E+00  6560   0.105E+00    0.462E+00
DAV:  19    -0.287621062651E+04   -0.44276E+01   -0.11939E+00  6448   0.783E-01    0.362E+00
DAV:  20    -0.287935460643E+04   -0.31440E+01   -0.74050E-01  6432   0.593E-01    0.263E+00
DAV:  21    -0.288217317750E+04   -0.28186E+01   -0.43371E-01  6416   0.441E-01    0.161E+00
DAV:  22    -0.288306624923E+04   -0.89307E+00   -0.16019E-01  6304   0.340E-01    0.941E-01
DAV:  23    -0.288383265200E+04   -0.76640E+00   -0.70026E-02  6416   0.199E-01    0.762E-01
DAV:  24    -0.288464433233E+04   -0.81168E+00   -0.19537E-02  6528   0.125E-01    0.570E-01
DAV:  25    -0.288702560768E+04   -0.23813E+01   -0.59148E-02  6320   0.199E-01    0.282E-01
DAV:  26    -0.288784759675E+04   -0.82199E+00   -0.18818E-02  6848   0.138E-01    0.217E-01
DAV:  27    -0.288806161767E+04   -0.21402E+00   -0.52278E-03  6640   0.724E-02    0.152E-01
DAV:  28    -0.288820601379E+04   -0.14440E+00   -0.27982E-03  6640   0.558E-02    0.896E-02
DAV:  29    -0.288830949471E+04   -0.10348E+00   -0.23822E-03  6688   0.546E-02    0.486E-02
DAV:  30    -0.288833653335E+04   -0.27039E-01   -0.85486E-04  6640   0.365E-02    0.299E-02
DAV:  31    -0.288834161310E+04   -0.50798E-02   -0.25003E-04  6624   0.201E-02    0.198E-02
DAV:  32    -0.288834354915E+04   -0.19360E-02   -0.62068E-05  6016   0.101E-02    0.127E-02
DAV:  33    -0.288834556927E+04   -0.20201E-02   -0.54097E-05  5744   0.867E-03    0.599E-03
DAV:  34    -0.288834612309E+04   -0.55381E-03   -0.23487E-05  5664   0.628E-03    0.433E-03
DAV:  35    -0.288834676463E+04   -0.64154E-03   -0.94671E-06  4752   0.402E-03    0.286E-03
DAV:  36    -0.288834713926E+04   -0.37463E-03   -0.65281E-06  4736   0.278E-03    0.207E-03
DAV:  37    -0.288834737270E+04   -0.23343E-03   -0.47971E-06  4720   0.232E-03    0.135E-03
DAV:  38    -0.288834752639E+04   -0.15369E-03   -0.35553E-06  4704   0.176E-03    0.969E-04
DAV:  39    -0.288834757202E+04   -0.45631E-04   -0.15242E-06  4784   0.113E-03    0.709E-04
DAV:  40    -0.288834760011E+04   -0.28088E-04   -0.68773E-07  4736   0.748E-04    0.504E-04
DAV:  41    -0.288834761700E+04   -0.16896E-04   -0.33151E-07  4672   0.535E-04    0.366E-04
DAV:  42    -0.288834762165E+04   -0.46488E-05   -0.10916E-07  4800   0.329E-04
   1 F= -.29229604E+04 E0= -.29229604E+04  d E =-.292296E+04  mag=     4.0000
       N       E                     dE             d eps       ncg     rms          rms(c)
DAV:   1    -0.288833963375E+04    0.79832E-02   -0.14733E+00  5568   0.111E+00    0.465E-01
DAV:   2    -0.288834234747E+04   -0.27137E-02   -0.41459E-02  6480   0.178E-01    0.198E-01
DAV:   3    -0.288834158601E+04    0.76146E-03   -0.14072E-03  6592   0.506E-02    0.113E-01
DAV:   4    -0.288834125441E+04    0.33160E-03   -0.74842E-04  6512   0.398E-02    0.457E-02
DAV:   5    -0.288834125262E+04    0.17898E-05   -0.31410E-04  6624   0.218E-02    0.387E-02
DAV:   6    -0.288834124744E+04    0.51865E-05   -0.35531E-05  5696   0.773E-03
   2 F= -.29229539E+04 E0= -.29229539E+04  d E =0.642578E-02  mag=     4.0000
       N       E                     dE             d eps       ncg     rms          rms(c)
DAV:   1    -0.288834742909E+04   -0.61765E-02   -0.82304E-01  5536   0.833E-01    0.340E-01
DAV:   2    -0.288834899163E+04   -0.15625E-02   -0.23356E-02  6576   0.132E-01    0.150E-01
DAV:   3    -0.288834860084E+04    0.39079E-03   -0.76261E-04  6544   0.356E-02    0.866E-02
DAV:   4    -0.288834848535E+04    0.11549E-03   -0.43227E-04  6512   0.274E-02    0.344E-02
DAV:   5    -0.288834850924E+04   -0.23886E-04   -0.14429E-04  6624   0.140E-02    0.263E-02
DAV:   6    -0.288834851733E+04   -0.80921E-05   -0.16392E-05  4912   0.515E-03
   3 F= -.29229612E+04 E0= -.29229612E+04  d E =-.882577E-03  mag=     4.0000
       N       E                     dE             d eps       ncg     rms          rms(c)
DAV:   1    -0.288834692297E+04    0.15863E-02   -0.75289E-01  5504   0.797E-01    0.240E-01
DAV:   2    -0.288834823160E+04   -0.13086E-02   -0.17580E-02  6512   0.114E-01    0.121E-01
DAV:   3    -0.288834803215E+04    0.19945E-03   -0.42539E-04  6624   0.231E-02    0.741E-02
DAV:   4    -0.288834794901E+04    0.83141E-04   -0.28153E-04  6464   0.189E-02    0.322E-02
DAV:   5    -0.288834796368E+04   -0.14672E-04   -0.63865E-05  6592   0.879E-03    0.168E-02
DAV:   6    -0.288834797332E+04   -0.96378E-05   -0.17414E-05  4832   0.517E-03
   4 F= -.29229606E+04 E0= -.29229606E+04  d E =0.676945E-03  mag=     4.0000
       N       E                     dE             d eps       ncg     rms          rms(c)
DAV:   1    -0.288834871743E+04   -0.75375E-03   -0.28018E-01  5504   0.487E-01    0.145E-01
DAV:   2    -0.288834922663E+04   -0.50920E-03   -0.65081E-03  6544   0.696E-02    0.741E-02
DAV:   3    -0.288834917216E+04    0.54474E-04   -0.16106E-04  6688   0.142E-02    0.454E-02
DAV:   4    -0.288834916095E+04    0.11209E-04   -0.10719E-04  6496   0.116E-02    0.194E-02
DAV:   5    -0.288834916910E+04   -0.81530E-05   -0.21971E-05  5200   0.521E-03
   5 F= -.29229618E+04 E0= -.29229618E+04  d E =-.599909E-03  mag=     4.0000
       N       E                     dE             d eps       ncg     rms          rms(c)
DAV:   1    -0.288834905900E+04    0.10195E-03   -0.48313E-01  5504   0.643E-01    0.176E-01
DAV:   2    -0.288834993386E+04   -0.87486E-03   -0.10601E-02  6512   0.898E-02    0.777E-02
DAV:   3    -0.288834985238E+04    0.81489E-04   -0.20943E-04  6544   0.171E-02    0.473E-02
DAV:   4    -0.288834981257E+04    0.39806E-04   -0.14484E-04  6496   0.160E-02    0.153E-02
DAV:   5    -0.288834982020E+04   -0.76263E-05   -0.45582E-05  6256   0.777E-03
   6 F= -.29229624E+04 E0= -.29229624E+04  d E =-.518498E-03  mag=     4.0000
       N       E                     dE             d eps       ncg     rms          rms(c)
DAV:   1    -0.288834981936E+04   -0.67861E-05   -0.49572E-02  5568   0.206E-01    0.521E-02
DAV:   2    -0.288834990531E+04   -0.85949E-04   -0.10634E-03  6544   0.285E-02    0.258E-02
DAV:   3    -0.288834989811E+04    0.71927E-05   -0.19080E-05  4976   0.510E-03    0.160E-02
DAV:   4    -0.288834989820E+04   -0.85682E-07   -0.17626E-05  4800   0.506E-03    0.434E-03
DAV:   5    -0.288834990064E+04   -0.24449E-05   -0.55750E-06  4672   0.236E-03
   7 F= -.29229625E+04 E0= -.29229625E+04  d E =-.641359E-03  mag=     4.0000
       N       E                     dE             d eps       ncg     rms          rms(c)
DAV:   1    -0.288835012270E+04   -0.22450E-03   -0.31717E-01  5504   0.511E-01    0.126E-01
DAV:   2    -0.288835071167E+04   -0.58897E-03   -0.68656E-03  6432   0.704E-02    0.604E-02
DAV:   3    -0.288835067332E+04    0.38347E-04   -0.11502E-04  6576   0.119E-02    0.372E-02
DAV:   4    -0.288835065221E+04    0.21112E-04   -0.85964E-05  6496   0.116E-02    0.122E-02
DAV:   5    -0.288835065783E+04   -0.56253E-05   -0.22805E-05  5200   0.516E-03
   8 F= -.29229631E+04 E0= -.29229631E+04  d E =-.665772E-03  mag=     4.0000
       N       E                     dE             d eps       ncg     rms          rms(c)
DAV:   1    -0.288835065587E+04   -0.36595E-05   -0.16274E-04  6208   0.117E-02    0.439E-03
DAV:   2    -0.288835065649E+04   -0.61927E-06   -0.42039E-06  4768   0.200E-03    0.350E-03
DAV:   3    -0.288835065706E+04   -0.57253E-06   -0.34827E-07  4720   0.750E-04    0.219E-03
DAV:   4    -0.288835065812E+04   -0.10603E-05   -0.14638E-07  4688   0.917E-04    0.803E-04
DAV:   5    -0.288835065865E+04   -0.52922E-06   -0.13091E-07  4752   0.512E-04
   9 F= -.29229631E+04 E0= -.29229631E+04  d E =-.668634E-03  mag=     4.0000
       N       E                     dE             d eps       ncg     rms          rms(c)
DAV:   1    -0.288835109426E+04   -0.43614E-03   -0.19739E-01  5504   0.397E-01    0.999E-02
DAV:   2    -0.288835146126E+04   -0.36700E-03   -0.43641E-03  6432   0.551E-02    0.508E-02
DAV:   3    -0.288835143593E+04    0.25327E-04   -0.76889E-05  6544   0.968E-03    0.315E-02
DAV:   4    -0.288835142023E+04    0.15702E-04   -0.52439E-05  6384   0.902E-03    0.114E-02
DAV:   5    -0.288835142424E+04   -0.40137E-05   -0.15653E-05  5008   0.431E-03
  10 F= -.29229638E+04 E0= -.29229638E+04  d E =-.630033E-03  mag=     4.0000
       N       E                     dE             d eps       ncg     rms          rms(c)
DAV:   1    -0.288835146973E+04   -0.49495E-04   -0.10990E-02  5808   0.938E-02    0.264E-02
DAV:   2    -0.288835149102E+04   -0.21295E-04   -0.24751E-04  6544   0.132E-02    0.118E-02
DAV:   3    -0.288835148951E+04    0.15149E-05   -0.38912E-06  4720   0.253E-03    0.723E-03
DAV:   4    -0.288835148853E+04    0.97207E-06   -0.38176E-06  4624   0.282E-03    0.257E-03
DAV:   5    -0.288835148933E+04   -0.79710E-06   -0.16335E-06  4736   0.139E-03
  11 F= -.29229638E+04 E0= -.29229638E+04  d E =-.663198E-03  mag=     4.0000
       N       E                     dE             d eps       ncg     rms          rms(c)
DAV:   1    -0.288835206398E+04   -0.57544E-03   -0.15433E-01  5504   0.348E-01    0.865E-02
DAV:   2    -0.288835234811E+04   -0.28413E-03   -0.32662E-03  6432   0.477E-02    0.420E-02
DAV:   3    -0.288835233357E+04    0.14532E-04   -0.52740E-05  6384   0.811E-03    0.259E-02
DAV:   4    -0.288835232487E+04    0.86999E-05   -0.38457E-05  6224   0.797E-03    0.917E-03
DAV:   5    -0.288835232768E+04   -0.28100E-05   -0.11186E-05  4784   0.365E-03
  12 F= -.29229645E+04 E0= -.29229645E+04  d E =-.665213E-03  mag=     4.0000
       N       E                     dE             d eps       ncg     rms          rms(c)
DAV:   1    -0.288835248069E+04   -0.15581E-03   -0.79645E-02  5504   0.250E-01    0.642E-02
DAV:   2    -0.288835262780E+04   -0.14711E-03   -0.16927E-03  6448   0.344E-02    0.300E-02
DAV:   3    -0.288835261987E+04    0.79290E-05   -0.26451E-05  5488   0.600E-03    0.184E-02
DAV:   4    -0.288835261428E+04    0.55933E-05   -0.20804E-05  4960   0.622E-03    0.645E-03
DAV:   5    -0.288835261617E+04   -0.18848E-05   -0.79563E-06  4736   0.297E-03
  13 F= -.29229646E+04 E0= -.29229646E+04  d E =-.829424E-03  mag=     4.0000
       N       E                     dE             d eps       ncg     rms          rms(c)
DAV:   1    -0.288835327927E+04   -0.66499E-03   -0.18626E-01  5504   0.381E-01    0.951E-02
DAV:   2    -0.288835361514E+04   -0.33587E-03   -0.38944E-03  6368   0.526E-02    0.454E-02
DAV:   3    -0.288835359805E+04    0.17098E-04   -0.65935E-05  6528   0.901E-03    0.279E-02
DAV:   4    -0.288835358965E+04    0.83995E-05   -0.48064E-05  6240   0.862E-03    0.940E-03
DAV:   5    -0.288835359376E+04   -0.41103E-05   -0.11988E-05  4784   0.391E-03
  14 F= -.29229654E+04 E0= -.29229654E+04  d E =-.755496E-03  mag=     4.0000
       N       E                     dE             d eps       ncg     rms          rms(c)
DAV:   1    -0.288835379111E+04   -0.20146E-03   -0.82887E-02  5504   0.254E-01    0.652E-02
DAV:   2    -0.288835394318E+04   -0.15207E-03   -0.17430E-03  6448   0.352E-02    0.301E-02
DAV:   3    -0.288835393502E+04    0.81606E-05   -0.27802E-05  5424   0.615E-03    0.183E-02
DAV:   4    -0.288835393045E+04    0.45649E-05   -0.23227E-05  5024   0.633E-03    0.578E-03
DAV:   5    -0.288835393279E+04   -0.23384E-05   -0.75069E-06  4688   0.293E-03
  15 F= -.29229656E+04 E0= -.29229656E+04  d E =-.946516E-03  mag=     4.0000
       N       E                     dE             d eps       ncg     rms          rms(c)
DAV:   1    -0.288835465562E+04   -0.72517E-03   -0.22385E-01  5504   0.413E-01    0.104E-01
DAV:   2    -0.288835505888E+04   -0.40325E-03   -0.46656E-03  6432   0.567E-02    0.503E-02
DAV:   3    -0.288835503752E+04    0.21361E-04   -0.73272E-05  6528   0.951E-03    0.309E-02
DAV:   4    -0.288835502674E+04    0.10779E-04   -0.57423E-05  6384   0.950E-03    0.103E-02
DAV:   5    -0.288835503292E+04   -0.61840E-05   -0.15408E-05  4912   0.430E-03
  16 F= -.29229664E+04 E0= -.29229664E+04  d E =-.843598E-03  mag=     4.0000
       N       E                     dE             d eps       ncg     rms          rms(c)
DAV:   1    -0.288835520843E+04   -0.18169E-03   -0.93390E-02  5504   0.267E-01    0.691E-02
DAV:   2    -0.288835537941E+04   -0.17099E-03   -0.19612E-03  6464   0.368E-02    0.323E-02
DAV:   3    -0.288835536964E+04    0.97746E-05   -0.29427E-05  5488   0.633E-03    0.197E-02
DAV:   4    -0.288835536490E+04    0.47399E-05   -0.26434E-05  5424   0.676E-03    0.629E-03
DAV:   5    -0.288835536811E+04   -0.32148E-05   -0.82413E-06  4688   0.308E-03
  17 F= -.29229666E+04 E0= -.29229666E+04  d E =-.101325E-02  mag=     4.0000
       N       E                     dE             d eps       ncg     rms          rms(c)
DAV:   1    -0.288835602833E+04   -0.66344E-03   -0.17140E-01  5504   0.355E-01    0.855E-02
DAV:   2    -0.288835633605E+04   -0.30771E-03   -0.34997E-03  6416   0.479E-02    0.433E-02
DAV:   3    -0.288835632380E+04    0.12244E-04   -0.51535E-05  6272   0.777E-03    0.266E-02
DAV:   4    -0.288835631719E+04    0.66096E-05   -0.42602E-05  6160   0.802E-03    0.866E-03
DAV:   5    -0.288835632194E+04   -0.47426E-05   -0.10822E-05  4752   0.341E-03
  18 F= -.29229674E+04 E0= -.29229674E+04  d E =-.775961E-03  mag=     4.0000
       N       E                     dE             d eps       ncg     rms          rms(c)
DAV:   1    -0.288835645429E+04   -0.13710E-03   -0.24284E-01  5504   0.422E-01    0.103E-01
DAV:   2    -0.288835690338E+04   -0.44908E-03   -0.50998E-03  6432   0.571E-02    0.517E-02
DAV:   3    -0.288835688424E+04    0.19133E-04   -0.72904E-05  6512   0.928E-03    0.318E-02
DAV:   4    -0.288835687434E+04    0.99046E-05   -0.60708E-05  6288   0.964E-03    0.105E-02
DAV:   5    -0.288835688078E+04   -0.64410E-05   -0.15862E-05  4992   0.412E-03
  19 F= -.29229677E+04 E0= -.29229677E+04  d E =-.112332E-02  mag=     4.0000
       N       E                     dE             d eps       ncg     rms          rms(c)
DAV:   1    -0.288835745448E+04   -0.58014E-03   -0.21043E-01  5504   0.393E-01    0.984E-02
DAV:   2    -0.288835784053E+04   -0.38605E-03   -0.43905E-03  6400   0.536E-02    0.486E-02
DAV:   3    -0.288835782345E+04    0.17076E-04   -0.66193E-05  6464   0.885E-03    0.298E-02
DAV:   4    -0.288835781478E+04    0.86745E-05   -0.50038E-05  6256   0.891E-03    0.102E-02
DAV:   5    -0.288835782143E+04   -0.66506E-05   -0.13725E-05  4896   0.395E-03
  20 F= -.29229685E+04 E0= -.29229685E+04  d E =-.768517E-03  mag=     4.0000
       N       E                     dE             d eps       ncg     rms          rms(c)
DAV:   1    -0.288835798106E+04   -0.16628E-03   -0.10960E-01  5504   0.284E-01    0.720E-02
DAV:   2    -0.288835817694E+04   -0.19588E-03   -0.22208E-03  6464   0.387E-02    0.346E-02
DAV:   3    -0.288835816794E+04    0.90000E-05   -0.33228E-05  5600   0.650E-03    0.211E-02
DAV:   4    -0.288835816278E+04    0.51547E-05   -0.26326E-05  5312   0.679E-03    0.693E-03
DAV:   5    -0.288835816701E+04   -0.42231E-05   -0.88886E-06  4768   0.314E-03
  21 F= -.29229687E+04 E0= -.29229687E+04  d E =-.990027E-03  mag=     4.0000
       N       E                     dE             d eps       ncg     rms          rms(c)
DAV:   1    -0.288835746859E+04    0.69419E-03   -0.43809E-01  5440   0.569E-01    0.141E-01
DAV:   2    -0.288835823986E+04   -0.77127E-03   -0.88387E-03  6336   0.771E-02    0.695E-02
DAV:   3    -0.288835820336E+04    0.36504E-04   -0.13639E-04  6528   0.128E-02    0.426E-02
DAV:   4    -0.288835818275E+04    0.20607E-04   -0.10169E-04  6512   0.129E-02    0.144E-02
DAV:   5    -0.288835819586E+04   -0.13103E-04   -0.29672E-05  5296   0.582E-03    0.102E-02
DAV:   6    -0.288835819922E+04   -0.33683E-05   -0.53944E-06  4672   0.280E-03
  22 F= -.29229685E+04 E0= -.29229685E+04  d E =-.774449E-03  mag=     4.0000
       N       E                     dE             d eps       ncg     rms          rms(c)
DAV:   1    -0.288835786907E+04    0.32679E-03   -0.23056E-01  5504   0.412E-01    0.990E-02
DAV:   2    -0.288835827158E+04   -0.40251E-03   -0.46255E-03  6480   0.557E-02    0.509E-02
DAV:   3    -0.288835825876E+04    0.12824E-04   -0.72696E-05  6576   0.907E-03    0.314E-02
DAV:   4    -0.288835826139E+04   -0.26330E-05   -0.56442E-05  6432   0.919E-03    0.976E-03
DAV:   5    -0.288835826773E+04   -0.63393E-05   -0.14774E-05  5024   0.393E-03
  23 F= -.29229687E+04 E0= -.29229687E+04  d E =-.102273E-02  mag=     4.0000
       N       E                     dE             d eps       ncg     rms          rms(c)
DAV:   1    -0.288835887654E+04   -0.61515E-03   -0.29468E-01  5504   0.472E-01    0.110E-01
DAV:   2    -0.288835940146E+04   -0.52491E-03   -0.59142E-03  6480   0.634E-02    0.567E-02
DAV:   3    -0.288835937795E+04    0.23504E-04   -0.88509E-05  6528   0.101E-02    0.350E-02
DAV:   4    -0.288835936031E+04    0.17641E-04   -0.69073E-05  6432   0.104E-02    0.109E-02
DAV:   5    -0.288835936880E+04   -0.84837E-05   -0.19882E-05  5248   0.460E-03
  24 F= -.29229697E+04 E0= -.29229697E+04  d E =-.905544E-03  mag=     4.0000
       N       E                     dE             d eps       ncg     rms          rms(c)
DAV:   1    -0.288835929855E+04    0.61759E-04   -0.38602E-01  5440   0.540E-01    0.130E-01
DAV:   2    -0.288835999497E+04   -0.69642E-03   -0.78453E-03  6368   0.729E-02    0.644E-02
DAV:   3    -0.288835996438E+04    0.30590E-04   -0.11623E-04  6528   0.118E-02    0.394E-02
DAV:   4    -0.288835994571E+04    0.18670E-04   -0.94034E-05  6464   0.124E-02    0.126E-02
DAV:   5    -0.288835995717E+04   -0.11456E-04   -0.26576E-05  5280   0.544E-03    0.952E-03
DAV:   6    -0.288835996046E+04   -0.32891E-05   -0.49577E-06  4688   0.260E-03
  25 F= -.29229700E+04 E0= -.29229700E+04  d E =-.127385E-02  mag=     4.0000
       N       E                     dE             d eps       ncg     rms          rms(c)
DAV:   1    -0.288836066491E+04   -0.70775E-03   -0.29939E-01  5472   0.475E-01    0.111E-01
DAV:   2    -0.288836120365E+04   -0.53874E-03   -0.60353E-03  6416   0.638E-02    0.569E-02
DAV:   3    -0.288836118223E+04    0.21420E-04   -0.89754E-05  6496   0.100E-02    0.353E-02
DAV:   4    -0.288836116797E+04    0.14256E-04   -0.67954E-05  6336   0.101E-02    0.123E-02
DAV:   5    -0.288836117733E+04   -0.93621E-05   -0.18139E-05  5088   0.436E-03
  26 F= -.29229710E+04 E0= -.29229710E+04  d E =-.100081E-02  mag=     4.0000
       N       E                     dE             d eps       ncg     rms          rms(c)
DAV:   1    -0.288836113489E+04    0.33079E-04   -0.45892E-01  5440   0.588E-01    0.139E-01
DAV:   2    -0.288836196383E+04   -0.82893E-03   -0.93006E-03  6304   0.790E-02    0.705E-02
DAV:   3    -0.288836193058E+04    0.33254E-04   -0.13944E-04  6528   0.125E-02    0.437E-02
DAV:   4    -0.288836191169E+04    0.18888E-04   -0.10408E-04  6416   0.126E-02    0.153E-02
DAV:   5    -0.288836192491E+04   -0.13222E-04   -0.28106E-05  5360   0.545E-03    0.103E-02
DAV:   6    -0.288836192974E+04   -0.48361E-05   -0.51505E-06  4688   0.265E-03
  27 F= -.29229715E+04 E0= -.29229715E+04  d E =-.148620E-02  mag=     4.0000
       N       E                     dE             d eps       ncg     rms          rms(c)
DAV:   1    -0.288836257149E+04   -0.64658E-03   -0.45710E-01  5456   0.588E-01    0.144E-01
DAV:   2    -0.288836343925E+04   -0.86776E-03   -0.97294E-03  6368   0.803E-02    0.728E-02
DAV:   3    -0.288836339915E+04    0.40102E-04   -0.14753E-04  6512   0.129E-02    0.448E-02
DAV:   4    -0.288836337283E+04    0.26318E-04   -0.10659E-04  6416   0.124E-02    0.158E-02
DAV:   5    -0.288836338777E+04   -0.14935E-04   -0.27904E-05  5456   0.552E-03    0.999E-03
DAV:   6    -0.288836339556E+04   -0.77934E-05   -0.59897E-06  4688   0.290E-03
  28 F= -.29229727E+04 E0= -.29229727E+04  d E =-.118625E-02  mag=     4.0000
       N       E                     dE             d eps       ncg     rms          rms(c)
DAV:   1    -0.288836346930E+04   -0.81531E-04   -0.17801E-01  5440   0.368E-01    0.903E-02
DAV:   2    -0.288836380346E+04   -0.33416E-03   -0.37302E-03  6432   0.500E-02    0.447E-02
DAV:   3    -0.288836378608E+04    0.17378E-04   -0.55901E-05  6272   0.808E-03    0.275E-02
DAV:   4    -0.288836377487E+04    0.11208E-04   -0.42689E-05  6192   0.802E-03    0.923E-03
DAV:   5    -0.288836378297E+04   -0.80944E-05   -0.11388E-05  4640   0.363E-03
  29 F= -.29229729E+04 E0= -.29229729E+04  d E =-.139947E-02  mag=     4.0000
       N       E                     dE             d eps       ncg     rms          rms(c)
DAV:   1    -0.288836443557E+04   -0.66070E-03   -0.48920E-01  5440   0.609E-01    0.147E-01
DAV:   2    -0.288836533355E+04   -0.89798E-03   -0.10002E-02  6384   0.821E-02    0.755E-02
DAV:   3    -0.288836529349E+04    0.40062E-04   -0.14818E-04  6592   0.132E-02    0.470E-02
DAV:   4    -0.288836527502E+04    0.18466E-04   -0.12173E-04  6448   0.135E-02    0.164E-02
DAV:   5    -0.288836528879E+04   -0.13763E-04   -0.31916E-05  5584   0.589E-03    0.110E-02
DAV:   6    -0.288836529344E+04   -0.46532E-05   -0.64024E-06  4704   0.296E-03
  30 F= -.29229741E+04 E0= -.29229741E+04  d E =-.122804E-02  mag=     4.0000
       N       E                     dE             d eps       ncg     rms          rms(c)
DAV:   1    -0.288836530725E+04   -0.18466E-04   -0.26051E-01  5440   0.446E-01    0.108E-01
DAV:   2    -0.288836578693E+04   -0.47968E-03   -0.53225E-03  6416   0.600E-02    0.548E-02
DAV:   3    -0.288836576522E+04    0.21709E-04   -0.78259E-05  6528   0.966E-03    0.341E-02
DAV:   4    -0.288836575343E+04    0.11795E-04   -0.62866E-05  6288   0.987E-03    0.122E-02
DAV:   5    -0.288836576180E+04   -0.83733E-05   -0.17095E-05  4960   0.442E-03
  31 F= -.29229744E+04 E0= -.29229744E+04  d E =-.149070E-02  mag=     4.0000
       N       E                     dE             d eps       ncg     rms          rms(c)
DAV:   1    -0.288836643100E+04   -0.67758E-03   -0.58743E-01  5440   0.668E-01    0.159E-01
DAV:   2    -0.288836751172E+04   -0.10807E-02   -0.11925E-02  6352   0.901E-02    0.799E-02
DAV:   3    -0.288836746475E+04    0.46970E-04   -0.17461E-04  6544   0.143E-02    0.492E-02
DAV:   4    -0.288836744270E+04    0.22048E-04   -0.14222E-04  6480   0.148E-02    0.165E-02
DAV:   5    -0.288836745968E+04   -0.16979E-04   -0.38175E-05  5888   0.633E-03    0.119E-02
DAV:   6    -0.288836746554E+04   -0.58665E-05   -0.70844E-06  4688   0.310E-03
  32 F= -.29229759E+04 E0= -.29229759E+04  d E =-.146501E-02  mag=     4.0000
       N       E                     dE             d eps       ncg     rms          rms(c)
DAV:   1    -0.288836745620E+04    0.34737E-05   -0.33923E-01  5440   0.508E-01    0.121E-01
DAV:   2    -0.288836808194E+04   -0.62574E-03   -0.68677E-03  6368   0.686E-02    0.604E-02
DAV:   3    -0.288836805503E+04    0.26919E-04   -0.99937E-05  6528   0.110E-02    0.372E-02
DAV:   4    -0.288836804074E+04    0.14288E-04   -0.77929E-05  6352   0.111E-02    0.128E-02
DAV:   5    -0.288836805207E+04   -0.11337E-04   -0.21776E-05  5136   0.494E-03    0.883E-03
DAV:   6    -0.288836805695E+04   -0.48710E-05   -0.42049E-06  4688   0.244E-03
  33 F= -.29229763E+04 E0= -.29229763E+04  d E =-.187551E-02  mag=     4.0000
       N       E                     dE             d eps       ncg     rms          rms(c)
DAV:   1    -0.288836865340E+04   -0.60132E-03   -0.64377E-01  5440   0.696E-01    0.168E-01
DAV:   2    -0.288836987934E+04   -0.12259E-02   -0.13626E-02  6416   0.947E-02    0.857E-02
DAV:   3    -0.288836982379E+04    0.55544E-04   -0.21177E-04  6528   0.156E-02    0.529E-02
DAV:   4    -0.288836979050E+04    0.33292E-04   -0.14363E-04  6480   0.152E-02    0.182E-02
DAV:   5    -0.288836980863E+04   -0.18134E-04   -0.46613E-05  6272   0.716E-03    0.125E-02
DAV:   6    -0.288836981563E+04   -0.69955E-05   -0.76936E-06  4688   0.321E-03
  34 F= -.29229779E+04 E0= -.29229779E+04  d E =-.159589E-02  mag=     4.0000
       N       E                     dE             d eps       ncg     rms          rms(c)
DAV:   1    -0.288836980306E+04    0.55702E-05   -0.16184E-01  5472   0.349E-01    0.865E-02
DAV:   2    -0.288837011905E+04   -0.31599E-03   -0.34603E-03  6464   0.476E-02    0.428E-02
DAV:   3    -0.288837010570E+04    0.13352E-04   -0.52891E-05  6320   0.805E-03    0.263E-02
DAV:   4    -0.288837009750E+04    0.82029E-05   -0.33281E-05  5808   0.775E-03    0.961E-03
DAV:   5    -0.288837010492E+04   -0.74265E-05   -0.12313E-05  4752   0.401E-03
  35 F= -.29229781E+04 E0= -.29229781E+04  d E =-.180385E-02  mag=     4.0000
       N       E                     dE             d eps       ncg     rms          rms(c)
DAV:   1    -0.288837058472E+04   -0.48722E-03   -0.59688E-01  5440   0.663E-01    0.158E-01
DAV:   2    -0.288837168295E+04   -0.10982E-02   -0.12197E-02  6384   0.891E-02    0.832E-02
DAV:   3    -0.288837163759E+04    0.45361E-04   -0.18974E-04  6544   0.143E-02    0.518E-02
DAV:   4    -0.288837161496E+04    0.22621E-04   -0.13282E-04  6448   0.137E-02    0.181E-02
DAV:   5    -0.288837162946E+04   -0.14493E-04   -0.36513E-05  5776   0.628E-03    0.113E-02
DAV:   6    -0.288837163466E+04   -0.52034E-05   -0.77226E-06  4768   0.327E-03
  36 F= -.29229794E+04 E0= -.29229794E+04  d E =-.133392E-02  mag=     4.0000
       N       E                     dE             d eps       ncg     rms          rms(c)
DAV:   1    -0.288837165561E+04   -0.26154E-04   -0.13942E-01  5472   0.320E-01    0.772E-02
DAV:   2    -0.288837191878E+04   -0.26317E-03   -0.28694E-03  6496   0.430E-02    0.399E-02
DAV:   3    -0.288837190939E+04    0.93987E-05   -0.42613E-05  5952   0.697E-03    0.247E-02
DAV:   4    -0.288837190300E+04    0.63902E-05   -0.29521E-05  5408   0.678E-03    0.862E-03
DAV:   5    -0.288837190829E+04   -0.52925E-05   -0.98539E-06  4784   0.331E-03
  37 F= -.29229796E+04 E0= -.29229796E+04  d E =-.151315E-02  mag=     4.0000
       N       E                     dE             d eps       ncg     rms          rms(c)
DAV:   1    -0.288837255460E+04   -0.65160E-03   -0.57182E-01  5440   0.652E-01    0.158E-01
DAV:   2    -0.288837360687E+04   -0.10523E-02   -0.11677E-02  6368   0.882E-02    0.810E-02
DAV:   3    -0.288837356000E+04    0.46872E-04   -0.17866E-04  6528   0.140E-02    0.505E-02
DAV:   4    -0.288837353560E+04    0.24402E-04   -0.13180E-04  6464   0.137E-02    0.178E-02
DAV:   5    -0.288837355086E+04   -0.15262E-04   -0.35705E-05  5808   0.613E-03    0.111E-02
DAV:   6    -0.288837355700E+04   -0.61443E-05   -0.74815E-06  4672   0.321E-03
  38 F= -.29229810E+04 E0= -.29229810E+04  d E =-.143491E-02  mag=     4.0000
       N       E                     dE             d eps       ncg     rms          rms(c)
DAV:   1    -0.288837350649E+04    0.44367E-04   -0.29081E-01  5472   0.467E-01    0.113E-01
DAV:   2    -0.288837404522E+04   -0.53873E-03   -0.59642E-03  6400   0.630E-02    0.575E-02
DAV:   3    -0.288837402065E+04    0.24573E-04   -0.90003E-05  6496   0.100E-02    0.358E-02
DAV:   4    -0.288837400782E+04    0.12827E-04   -0.64096E-05  6336   0.968E-03    0.130E-02
DAV:   5    -0.288837401783E+04   -0.10009E-04   -0.18017E-05  5072   0.452E-03    0.779E-03
DAV:   6    -0.288837402336E+04   -0.55230E-05   -0.39989E-06  4656   0.241E-03
  39 F= -.29229813E+04 E0= -.29229813E+04  d E =-.174918E-02  mag=     4.0000
       N       E                     dE             d eps       ncg     rms          rms(c)
DAV:   1    -0.288837471162E+04   -0.69379E-03   -0.46435E-01  5440   0.593E-01    0.142E-01
DAV:   2    -0.288837557399E+04   -0.86236E-03   -0.96092E-03  6400   0.803E-02    0.717E-02
DAV:   3    -0.288837553785E+04    0.36141E-04   -0.14404E-04  6576   0.130E-02    0.442E-02
DAV:   4    -0.288837552069E+04    0.17154E-04   -0.10751E-04  6496   0.132E-02    0.142E-02
DAV:   5    -0.288837553442E+04   -0.13725E-04   -0.33388E-05  5776   0.605E-03    0.104E-02
DAV:   6    -0.288837553805E+04   -0.36377E-05   -0.55349E-06  4736   0.275E-03
  40 F= -.29229827E+04 E0= -.29229827E+04  d E =-.137949E-02  mag=     4.0000
       N       E                     dE             d eps       ncg     rms          rms(c)
DAV:   1    -0.288837545549E+04    0.78931E-04   -0.35566E-01  5440   0.520E-01    0.125E-01
DAV:   2    -0.288837610080E+04   -0.64532E-03   -0.72097E-03  6384   0.703E-02    0.622E-02
DAV:   3    -0.288837607264E+04    0.28164E-04   -0.10983E-04  6528   0.116E-02    0.383E-02
DAV:   4    -0.288837605684E+04    0.15798E-04   -0.81844E-05  6336   0.119E-02    0.123E-02
DAV:   5    -0.288837606830E+04   -0.11464E-04   -0.26835E-05  5264   0.559E-03    0.927E-03
DAV:   6    -0.288837607147E+04   -0.31671E-05   -0.46667E-06  4736   0.254E-03
  41 F= -.29229831E+04 E0= -.29229831E+04  d E =-.179505E-02  mag=     4.0000
       N       E                     dE             d eps       ncg     rms          rms(c)
DAV:   1    -0.288837666237E+04   -0.59406E-03   -0.61219E-01  5440   0.682E-01    0.165E-01
DAV:   2    -0.288837777564E+04   -0.11133E-02   -0.12476E-02  6352   0.920E-02    0.827E-02
DAV:   3    -0.288837772695E+04    0.48691E-04   -0.18303E-04  6528   0.146E-02    0.509E-02
DAV:   4    -0.288837770388E+04    0.23075E-04   -0.15136E-04  6448   0.153E-02    0.167E-02
DAV:   5    -0.288837772191E+04   -0.18028E-04   -0.42142E-05  6112   0.656E-03    0.123E-02
DAV:   6    -0.288837772561E+04   -0.36983E-05   -0.68720E-06  4752   0.302E-03
  42 F= -.29229847E+04 E0= -.29229847E+04  d E =-.157740E-02  mag=     4.0000
       N       E                     dE             d eps       ncg     rms          rms(c)
DAV:   1    -0.288837758110E+04    0.14081E-03   -0.35432E-01  5440   0.518E-01    0.127E-01
DAV:   2    -0.288837823011E+04   -0.64901E-03   -0.72603E-03  6352   0.701E-02    0.628E-02
DAV:   3    -0.288837820393E+04    0.26181E-04   -0.10617E-04  6528   0.113E-02    0.385E-02
DAV:   4    -0.288837819142E+04    0.12506E-04   -0.84478E-05  6384   0.117E-02    0.130E-02
DAV:   5    -0.288837820229E+04   -0.10865E-04   -0.24249E-05  5424   0.516E-03    0.933E-03
DAV:   6    -0.288837820564E+04   -0.33592E-05   -0.44318E-06  4720   0.245E-03
  43 F= -.29229851E+04 E0= -.29229851E+04  d E =-.199951E-02  mag=     4.0000
       N       E                     dE             d eps       ncg     rms          rms(c)
DAV:   1    -0.288837872342E+04   -0.52113E-03   -0.60457E-01  5440   0.670E-01    0.163E-01
DAV:   2    -0.288837983064E+04   -0.11072E-02   -0.12513E-02  6368   0.908E-02    0.855E-02
DAV:   3    -0.288837978555E+04    0.45088E-04   -0.18992E-04  6544   0.149E-02    0.533E-02
DAV:   4    -0.288837976285E+04    0.22703E-04   -0.15788E-04  6400   0.155E-02    0.173E-02
DAV:   5    -0.288837978185E+04   -0.19005E-04   -0.42809E-05  6016   0.695E-03    0.124E-02
DAV:   6    -0.288837978803E+04   -0.61777E-05   -0.98237E-06  4736   0.365E-03
  44 F= -.29229867E+04 E0= -.29229867E+04  d E =-.156452E-02  mag=     4.0000
       N       E                     dE             d eps       ncg     rms          rms(c)
DAV:   1    -0.288837966961E+04    0.11224E-03   -0.28095E-01  5440   0.457E-01    0.113E-01
DAV:   2    -0.288838019447E+04   -0.52485E-03   -0.59059E-03  6416   0.621E-02    0.582E-02
DAV:   3    -0.288838017351E+04    0.20952E-04   -0.88032E-05  6512   0.103E-02    0.362E-02
DAV:   4    -0.288838016211E+04    0.11403E-04   -0.71634E-05  6336   0.107E-02    0.120E-02
DAV:   5    -0.288838017284E+04   -0.10733E-04   -0.20400E-05  5024   0.501E-03    0.842E-03
DAV:   6    -0.288838017771E+04   -0.48641E-05   -0.51316E-06  4656   0.271E-03
  45 F= -.29229871E+04 E0= -.29229871E+04  d E =-.194239E-02  mag=     4.0000
       N       E                     dE             d eps       ncg     rms          rms(c)
DAV:   1    -0.288838075406E+04   -0.58122E-03   -0.57856E-01  5440   0.646E-01    0.162E-01
DAV:   2    -0.288838182829E+04   -0.10742E-02   -0.12116E-02  6336   0.878E-02    0.840E-02
DAV:   3    -0.288838179074E+04    0.37543E-04   -0.17817E-04  6560   0.144E-02    0.521E-02
DAV:   4    -0.288838177714E+04    0.13604E-04   -0.13696E-04  6512   0.140E-02    0.202E-02
DAV:   5    -0.288838179327E+04   -0.16135E-04   -0.35874E-05  5808   0.627E-03    0.120E-02
DAV:   6    -0.288838179688E+04   -0.36080E-05   -0.76997E-06  4736   0.328E-03
  46 F= -.29229886E+04 E0= -.29229886E+04  d E =-.148434E-02  mag=     4.0000
       N       E                     dE             d eps       ncg     rms          rms(c)
DAV:   1    -0.288838173279E+04    0.60486E-04   -0.25413E-01  5440   0.429E-01    0.108E-01
DAV:   2    -0.288838220189E+04   -0.46910E-03   -0.52675E-03  6416   0.581E-02    0.552E-02
DAV:   3    -0.288838218339E+04    0.18501E-04   -0.78320E-05  6528   0.969E-03    0.341E-02
DAV:   4    -0.288838217719E+04    0.62045E-05   -0.57978E-05  6304   0.945E-03    0.132E-02
DAV:   5    -0.288838218510E+04   -0.79087E-05   -0.15715E-05  4944   0.437E-03
  47 F= -.29229889E+04 E0= -.29229889E+04  d E =-.178356E-02  mag=     4.0000
       N       E                     dE             d eps       ncg     rms          rms(c)
DAV:   1    -0.288838292817E+04   -0.75098E-03   -0.61401E-01  5440   0.666E-01    0.170E-01
DAV:   2    -0.288838408823E+04   -0.11601E-02   -0.13009E-02  6352   0.911E-02    0.860E-02
DAV:   3    -0.288838404114E+04    0.47092E-04   -0.19061E-04  6544   0.152E-02    0.529E-02
DAV:   4    -0.288838402299E+04    0.18146E-04   -0.14808E-04  6448   0.157E-02    0.176E-02
DAV:   5    -0.288838404293E+04   -0.19944E-04   -0.46023E-05  6224   0.710E-03    0.130E-02
DAV:   6    -0.288838404823E+04   -0.52986E-05   -0.75625E-06  4720   0.318E-03
  48 F= -.29229904E+04 E0= -.29229904E+04  d E =-.155136E-02  mag=     4.0000
       N       E                     dE             d eps       ncg     rms          rms(c)
DAV:   1    -0.288838392335E+04    0.11958E-03   -0.42318E-01  5440   0.555E-01    0.141E-01
DAV:   2    -0.288838469583E+04   -0.77248E-03   -0.87530E-03  6368   0.755E-02    0.705E-02
DAV:   3    -0.288838466725E+04    0.28579E-04   -0.13011E-04  6512   0.128E-02    0.432E-02
DAV:   4    -0.288838465237E+04    0.14879E-04   -0.99171E-05  6432   0.133E-02    0.143E-02
DAV:   5    -0.288838466768E+04   -0.15307E-04   -0.32690E-05  5536   0.615E-03    0.108E-02
DAV:   6    -0.288838467260E+04   -0.49251E-05   -0.54833E-06  4688   0.271E-03
  49 F= -.29229908E+04 E0= -.29229908E+04  d E =-.191744E-02  mag=     4.0000
       N       E                     dE             d eps       ncg     rms          rms(c)
DAV:   1    -0.288838520068E+04   -0.53300E-03   -0.71176E-01  5440   0.708E-01    0.173E-01
DAV:   2    -0.288838646062E+04   -0.12599E-02   -0.14121E-02  6288   0.954E-02    0.890E-02
DAV:   3    -0.288838642595E+04    0.34664E-04   -0.19806E-04  6512   0.151E-02    0.546E-02
DAV:   4    -0.288838640919E+04    0.16765E-04   -0.16071E-04  6400   0.161E-02    0.169E-02
DAV:   5    -0.288838643499E+04   -0.25801E-04   -0.48826E-05  6176   0.715E-03    0.129E-02
DAV:   6    -0.288838644132E+04   -0.63292E-05   -0.73857E-06  4704   0.315E-03
  50 F= -.29229922E+04 E0= -.29229922E+04  d E =-.145654E-02  mag=     4.0000
       N       E                     dE             d eps       ncg     rms          rms(c)
DAV:   1    -0.288838648935E+04   -0.54357E-04   -0.31066E-01  5440   0.468E-01    0.116E-01
DAV:   2    -0.288838705926E+04   -0.56991E-03   -0.63168E-03  6352   0.633E-02    0.588E-02
DAV:   3    -0.288838704294E+04    0.16320E-04   -0.87036E-05  6400   0.102E-02    0.361E-02
DAV:   4    -0.288838703558E+04    0.73540E-05   -0.68552E-05  6256   0.109E-02    0.115E-02
DAV:   5    -0.288838704872E+04   -0.13142E-04   -0.21811E-05  4928   0.501E-03    0.850E-03
DAV:   6    -0.288838705316E+04   -0.44348E-05   -0.39799E-06  4688   0.236E-03
  51 F= -.29229926E+04 E0= -.29229926E+04  d E =-.186253E-02  mag=     4.0000
       N       E                     dE             d eps       ncg     rms          rms(c)
DAV:   1    -0.288838798254E+04   -0.93382E-03   -0.42344E-01  5440   0.552E-01    0.168E-01
DAV:   2    -0.288838876620E+04   -0.78366E-03   -0.93256E-03  6400   0.781E-02    0.759E-02
DAV:   3    -0.288838871170E+04    0.54506E-04   -0.17743E-04  6576   0.154E-02    0.452E-02
DAV:   4    -0.288838869235E+04    0.19351E-04   -0.10737E-04  6416   0.130E-02    0.163E-02
DAV:   5    -0.288838870309E+04   -0.10741E-04   -0.32141E-05  5648   0.636E-03    0.119E-02
DAV:   6    -0.288838870535E+04   -0.22664E-05   -0.54330E-06  4704   0.284E-03
  52 F= -.29229942E+04 E0= -.29229942E+04  d E =-.157109E-02  mag=     4.0000
       N       E                     dE             d eps       ncg     rms          rms(c)
DAV:   1    -0.288838875183E+04   -0.48747E-04   -0.31222E-02  5600   0.150E-01    0.475E-02
DAV:   2    -0.288838881351E+04   -0.61676E-04   -0.71228E-04  6544   0.214E-02    0.206E-02
DAV:   3    -0.288838880995E+04    0.35595E-05   -0.11915E-05  4832   0.449E-03    0.123E-02
DAV:   4    -0.288838880873E+04    0.12161E-05   -0.89033E-06  4688   0.432E-03    0.482E-03
DAV:   5    -0.288838881069E+04   -0.19612E-05   -0.43673E-06  4768   0.237E-03
  53 F= -.29229943E+04 E0= -.29229943E+04  d E =-.165450E-02  mag=     4.0000
       N       E                     dE             d eps       ncg     rms          rms(c)
DAV:   1    -0.288838960530E+04   -0.79656E-03   -0.42446E-01  5440   0.550E-01    0.148E-01
DAV:   2    -0.288839040145E+04   -0.79615E-03   -0.90981E-03  6368   0.753E-02    0.765E-02
DAV:   3    -0.288839036069E+04    0.40752E-04   -0.14298E-04  6528   0.129E-02    0.477E-02
DAV:   4    -0.288839033599E+04    0.24707E-04   -0.10064E-04  6528   0.123E-02    0.178E-02
DAV:   5    -0.288839034811E+04   -0.12117E-04   -0.30141E-05  5488   0.586E-03    0.102E-02
DAV:   6    -0.288839035325E+04   -0.51474E-05   -0.59487E-06  4656   0.293E-03
  54 F= -.29229957E+04 E0= -.29229957E+04  d E =-.139083E-02  mag=     4.0000
       N       E                     dE             d eps       ncg     rms          rms(c)
DAV:   1    -0.288839043408E+04   -0.85976E-04   -0.11804E-01  5504   0.291E-01    0.790E-02
DAV:   2    -0.288839064841E+04   -0.21433E-03   -0.24604E-03  6480   0.396E-02    0.394E-02
DAV:   3    -0.288839063550E+04    0.12910E-04   -0.38173E-05  5648   0.693E-03    0.244E-02
DAV:   4    -0.288839062896E+04    0.65364E-05   -0.28045E-05  5264   0.692E-03    0.890E-03
DAV:   5    -0.288839063478E+04   -0.58159E-05   -0.10115E-05  4688   0.342E-03
  55 F= -.29229959E+04 E0= -.29229959E+04  d E =-.159257E-02  mag=     4.0000
       N       E                     dE             d eps       ncg     rms          rms(c)
DAV:   1    -0.288839187753E+04   -0.12486E-02   -0.32218E-01  5440   0.474E-01    0.123E-01
DAV:   2    -0.288839245528E+04   -0.57775E-03   -0.65657E-03  6416   0.645E-02    0.600E-02
DAV:   3    -0.288839243332E+04    0.21961E-04   -0.10219E-04  6544   0.111E-02    0.366E-02
DAV:   4    -0.288839242425E+04    0.90721E-05   -0.71655E-05  6352   0.108E-02    0.121E-02
DAV:   5    -0.288839243376E+04   -0.95108E-05   -0.21486E-05  5104   0.505E-03
  56 F= -.29229974E+04 E0= -.29229974E+04  d E =-.155107E-02  mag=     4.0000
       N       E                     dE             d eps       ncg     rms          rms(c)
DAV:   1    -0.288839248014E+04   -0.55889E-04   -0.70171E-01  5440   0.701E-01    0.182E-01
DAV:   2    -0.288839370295E+04   -0.12228E-02   -0.14061E-02  6384   0.951E-02    0.879E-02
DAV:   3    -0.288839365151E+04    0.51448E-04   -0.22252E-04  6528   0.167E-02    0.534E-02
DAV:   4    -0.288839362804E+04    0.23465E-04   -0.15545E-04  6432   0.166E-02    0.173E-02
DAV:   5    -0.288839364797E+04   -0.19934E-04   -0.54069E-05  6400   0.788E-03    0.139E-02
DAV:   6    -0.288839365130E+04   -0.33298E-05   -0.76608E-06  4704   0.320E-03
  57 F= -.29229983E+04 E0= -.29229983E+04  d E =-.240347E-02  mag=     4.0000
       N       E                     dE             d eps       ncg     rms          rms(c)
DAV:   1    -0.288839487615E+04   -0.12282E-02   -0.44449E-01  5440   0.550E-01    0.141E-01
DAV:   2    -0.288839564938E+04   -0.77323E-03   -0.87907E-03  6352   0.746E-02    0.699E-02
DAV:   3    -0.288839562499E+04    0.24387E-04   -0.13127E-04  6480   0.125E-02    0.425E-02
DAV:   4    -0.288839561028E+04    0.14708E-04   -0.94301E-05  6464   0.121E-02    0.146E-02
DAV:   5    -0.288839562713E+04   -0.16849E-04   -0.27822E-05  5392   0.561E-03    0.984E-03
DAV:   6    -0.288839563159E+04   -0.44514E-05   -0.49681E-06  4688   0.265E-03
  58 F= -.29229999E+04 E0= -.29229999E+04  d E =-.165600E-02  mag=     4.0000
       N       E                     dE             d eps       ncg     rms          rms(c)
DAV:   1    -0.288839564463E+04   -0.17498E-04   -0.57208E-01  5440   0.624E-01    0.160E-01
DAV:   2    -0.288839663282E+04   -0.98819E-03   -0.11263E-02  6336   0.845E-02    0.793E-02
DAV:   3    -0.288839659903E+04    0.33793E-04   -0.16896E-04  6480   0.142E-02    0.481E-02
DAV:   4    -0.288839658043E+04    0.18594E-04   -0.11682E-04  6416   0.136E-02    0.169E-02
DAV:   5    -0.288839660047E+04   -0.20037E-04   -0.36212E-05  5680   0.646E-03    0.112E-02
DAV:   6    -0.288839660519E+04   -0.47195E-05   -0.62716E-06  4672   0.299E-03
  59 F= -.29230006E+04 E0= -.29230006E+04  d E =-.226226E-02  mag=     4.0000
       N       E                     dE             d eps       ncg     rms          rms(c)
DAV:   1    -0.288839758010E+04   -0.97963E-03   -0.60938E-01  5440   0.635E-01    0.165E-01
DAV:   2    -0.288839872180E+04   -0.11417E-02   -0.12952E-02  6384   0.857E-02    0.852E-02
DAV:   3    -0.288839868405E+04    0.37756E-04   -0.18362E-04  6512   0.144E-02    0.526E-02
DAV:   4    -0.288839865686E+04    0.27190E-04   -0.13573E-04  6432   0.139E-02    0.172E-02
DAV:   5    -0.288839868255E+04   -0.25690E-04   -0.39220E-05  5776   0.647E-03    0.117E-02
DAV:   6    -0.288839869144E+04   -0.88903E-05   -0.76028E-06  4704   0.324E-03
  60 F= -.29230023E+04 E0= -.29230023E+04  d E =-.170819E-02  mag=     4.0000
       N       E                     dE             d eps       ncg     rms          rms(c)
DAV:   1    -0.288839876260E+04   -0.80050E-04   -0.27437E-01  5472   0.425E-01    0.112E-01
DAV:   2    -0.288839925027E+04   -0.48768E-03   -0.56081E-03  6400   0.579E-02    0.563E-02
DAV:   3    -0.288839923690E+04    0.13376E-04   -0.83039E-05  6432   0.993E-03    0.345E-02
DAV:   4    -0.288839922427E+04    0.12622E-04   -0.58380E-05  6288   0.955E-03    0.117E-02
DAV:   5    -0.288839923918E+04   -0.14902E-04   -0.18064E-05  4800   0.465E-03    0.782E-03
DAV:   6    -0.288839924544E+04   -0.62655E-05   -0.38607E-06  4656   0.242E-03
  61 F= -.29230026E+04 E0= -.29230026E+04  d E =-.200903E-02  mag=     4.0000
       N       E                     dE             d eps       ncg     rms          rms(c)
DAV:   1    -0.288840036461E+04   -0.11254E-02   -0.51554E-01  5440   0.578E-01    0.151E-01
DAV:   2    -0.288840130537E+04   -0.94076E-03   -0.10723E-02  6352   0.772E-02    0.779E-02
DAV:   3    -0.288840128383E+04    0.21540E-04   -0.14342E-04  6528   0.125E-02    0.482E-02
DAV:   4    -0.288840127532E+04    0.85119E-05   -0.10361E-04  6480   0.118E-02    0.187E-02
DAV:   5    -0.288840129604E+04   -0.20724E-04   -0.29509E-05  5360   0.549E-03    0.103E-02
DAV:   6    -0.288840130028E+04   -0.42385E-05   -0.49633E-06  4688   0.266E-03
  62 F= -.29230043E+04 E0= -.29230043E+04  d E =-.169344E-02  mag=     4.0000
       N       E                     dE             d eps       ncg     rms          rms(c)
DAV:   1    -0.288840102192E+04    0.27412E-03   -0.77717E-01  5440   0.707E-01    0.184E-01
DAV:   2    -0.288840235042E+04   -0.13285E-02   -0.15293E-02  6336   0.945E-02    0.944E-02
DAV:   3    -0.288840230707E+04    0.43348E-04   -0.21535E-04  6528   0.154E-02    0.580E-02
DAV:   4    -0.288840229132E+04    0.15753E-04   -0.14944E-04  6400   0.146E-02    0.222E-02
DAV:   5    -0.288840232187E+04   -0.30548E-04   -0.44577E-05  5888   0.684E-03    0.129E-02
DAV:   6    -0.288840232749E+04   -0.56226E-05   -0.72075E-06  4720   0.322E-03
  63 F= -.29230048E+04 E0= -.29230048E+04  d E =-.227799E-02  mag=     4.0000
       N       E                     dE             d eps       ncg     rms          rms(c)
DAV:   1    -0.288840322967E+04   -0.90781E-03   -0.47802E-01  5472   0.554E-01    0.136E-01
DAV:   2    -0.288840404458E+04   -0.81491E-03   -0.92116E-03  6352   0.738E-02    0.705E-02
DAV:   3    -0.288840402672E+04    0.17858E-04   -0.12887E-04  6448   0.117E-02    0.434E-02
DAV:   4    -0.288840401618E+04    0.10538E-04   -0.96006E-05  6384   0.117E-02    0.139E-02
DAV:   5    -0.288840404274E+04   -0.26560E-04   -0.26932E-05  5344   0.521E-03    0.952E-03
DAV:   6    -0.288840404865E+04   -0.59012E-05   -0.47852E-06  4672   0.257E-03
  64 F= -.29230062E+04 E0= -.29230062E+04  d E =-.139753E-02  mag=     4.0000
       N       E                     dE             d eps       ncg     rms          rms(c)
DAV:   1    -0.288840440174E+04   -0.35899E-03   -0.22820E-01  5440   0.384E-01    0.944E-02
DAV:   2    -0.288840477896E+04   -0.37722E-03   -0.43337E-03  6400   0.508E-02    0.487E-02
DAV:   3    -0.288840477430E+04    0.46614E-05   -0.60516E-05  6224   0.820E-03    0.298E-02
DAV:   4    -0.288840476824E+04    0.60558E-05   -0.42732E-05  6064   0.795E-03    0.103E-02
DAV:   5    -0.288840478271E+04   -0.14465E-04   -0.12845E-05  4752   0.373E-03    0.644E-03
DAV:   6    -0.288840478668E+04   -0.39697E-05   -0.23862E-06  4672   0.190E-03
  65 F= -.29230068E+04 E0= -.29230068E+04  d E =-.191227E-02  mag=     4.0000
       N       E                     dE             d eps       ncg     rms          rms(c)
DAV:   1    -0.288840378090E+04    0.10018E-02   -0.91225E-01  5440   0.767E-01    0.187E-01
DAV:   2    -0.288840531274E+04   -0.15318E-02   -0.17346E-02  6368   0.101E-01    0.975E-02
DAV:   3    -0.288840526613E+04    0.46605E-04   -0.24313E-04  6496   0.162E-02    0.601E-02
DAV:   4    -0.288840523530E+04    0.30835E-04   -0.17989E-04  6320   0.160E-02    0.199E-02
DAV:   5    -0.288840528014E+04   -0.44846E-04   -0.52891E-05  6112   0.722E-03    0.135E-02
DAV:   6    -0.288840528827E+04   -0.81307E-05   -0.82035E-06  4640   0.337E-03
  66 F= -.29230068E+04 E0= -.29230068E+04  d E =-.196792E-02  mag=     4.0000
       N       E                     dE             d eps       ncg     rms          rms(c)
DAV:   1    -0.288840484797E+04    0.43217E-03   -0.22605E-01  5472   0.381E-01    0.905E-02
DAV:   2    -0.288840521075E+04   -0.36278E-03   -0.41790E-03  6480   0.502E-02    0.490E-02
DAV:   3    -0.288840521152E+04   -0.76363E-06   -0.61582E-05  6384   0.794E-03    0.302E-02
DAV:   4    -0.288840522346E+04   -0.11947E-04   -0.45250E-05  6208   0.781E-03    0.964E-03
DAV:   5    -0.288840523497E+04   -0.11505E-04   -0.12211E-05  4960   0.337E-03    0.611E-03
DAV:   6    -0.288840523607E+04   -0.11011E-05   -0.22946E-06  4640   0.177E-03
  67 F= -.29230070E+04 E0= -.29230070E+04  d E =-.213768E-02  mag=     4.0000
       N       E                     dE             d eps       ncg     rms          rms(c)
DAV:   1    -0.288840652530E+04   -0.12903E-02   -0.23596E-01  5472   0.407E-01    0.122E-01
DAV:   2    -0.288840695696E+04   -0.43166E-03   -0.51700E-03  6416   0.571E-02    0.554E-02
DAV:   3    -0.288840693243E+04    0.24525E-04   -0.88641E-05  6544   0.107E-02    0.331E-02
DAV:   4    -0.288840691795E+04    0.14486E-04   -0.62067E-05  6480   0.987E-03    0.110E-02
DAV:   5    -0.288840692755E+04   -0.96023E-05   -0.18844E-05  4880   0.486E-03
  68 F= -.29230085E+04 E0= -.29230085E+04  d E =-.152331E-02  mag=     4.0000
       N       E                     dE             d eps       ncg     rms          rms(c)
DAV:   1    -0.288840727394E+04   -0.35599E-03   -0.18382E-01  5472   0.358E-01    0.110E-01
DAV:   2    -0.288840759113E+04   -0.31720E-03   -0.38436E-03  6368   0.504E-02    0.478E-02
DAV:   3    -0.288840757129E+04    0.19845E-04   -0.67665E-05  6464   0.971E-03    0.281E-02
DAV:   4    -0.288840756004E+04    0.11251E-04   -0.48998E-05  6080   0.944E-03    0.902E-03
DAV:   5    -0.288840756797E+04   -0.79353E-05   -0.16810E-05  4752   0.467E-03
  69 F= -.29230090E+04 E0= -.29230090E+04  d E =-.201563E-02  mag=     4.0000
       N       E                     dE             d eps       ncg     rms          rms(c)
DAV:   1    -0.288840844649E+04   -0.88645E-03   -0.10807E-01  5504   0.294E-01    0.881E-02
DAV:   2    -0.288840864046E+04   -0.19397E-03   -0.23670E-03  6448   0.414E-02    0.383E-02
DAV:   3    -0.288840862634E+04    0.14125E-04   -0.50139E-05  6368   0.824E-03    0.227E-02
DAV:   4    -0.288840861980E+04    0.65378E-05   -0.32513E-05  5664   0.718E-03    0.771E-03
DAV:   5    -0.288840862323E+04   -0.34273E-05   -0.87547E-06  4688   0.351E-03
  70 F= -.29230100E+04 E0= -.29230100E+04  d E =-.102800E-02  mag=     4.0000
       N       E                     dE             d eps       ncg     rms          rms(c)
DAV:   1    -0.288840888865E+04   -0.26885E-03   -0.13706E-01  5472   0.331E-01    0.100E-01
DAV:   2    -0.288840913748E+04   -0.24883E-03   -0.30292E-03  6432   0.467E-02    0.428E-02
DAV:   3    -0.288840911727E+04    0.20217E-04   -0.63357E-05  6480   0.937E-03    0.253E-02
DAV:   4    -0.288840910788E+04    0.93915E-05   -0.42159E-05  6160   0.830E-03    0.873E-03
DAV:   5    -0.288840911143E+04   -0.35557E-05   -0.10901E-05  4704   0.407E-03
  71 F= -.29230105E+04 E0= -.29230105E+04  d E =-.148560E-02  mag=     4.0000
       N       E                     dE             d eps       ncg     rms          rms(c)
DAV:   1    -0.288840984018E+04   -0.73230E-03   -0.12371E-01  5504   0.321E-01    0.867E-02
DAV:   2    -0.288841005576E+04   -0.21558E-03   -0.26122E-03  6448   0.442E-02    0.429E-02
DAV:   3    -0.288841003804E+04    0.17717E-04   -0.53272E-05  6272   0.816E-03    0.266E-02
DAV:   4    -0.288841002759E+04    0.10455E-04   -0.37252E-05  6000   0.755E-03    0.946E-03
DAV:   5    -0.288841003178E+04   -0.41961E-05   -0.10154E-05  4752   0.350E-03
  72 F= -.29230114E+04 E0= -.29230114E+04  d E =-.930268E-03  mag=     4.0000
       N       E                     dE             d eps       ncg     rms          rms(c)
DAV:   1    -0.288841015940E+04   -0.13182E-03   -0.15252E-01  5472   0.356E-01    0.973E-02
DAV:   2    -0.288841042392E+04   -0.26452E-03   -0.32218E-03  6448   0.491E-02    0.473E-02
DAV:   3    -0.288841040131E+04    0.22614E-04   -0.66061E-05  6432   0.915E-03    0.293E-02
DAV:   4    -0.288841038773E+04    0.13580E-04   -0.45489E-05  6144   0.855E-03    0.105E-02
DAV:   5    -0.288841039309E+04   -0.53666E-05   -0.12688E-05  4736   0.404E-03
  73 F= -.29230118E+04 E0= -.29230118E+04  d E =-.130272E-02  mag=     4.0000
       N       E                     dE             d eps       ncg     rms          rms(c)
DAV:   1    -0.288841094463E+04   -0.55691E-03   -0.13144E-01  5504   0.327E-01    0.857E-02
DAV:   2    -0.288841118466E+04   -0.24003E-03   -0.27938E-03  6496   0.446E-02    0.402E-02
DAV:   3    -0.288841117273E+04    0.11928E-04   -0.50086E-05  6160   0.792E-03    0.244E-02
DAV:   4    -0.288841116868E+04    0.40499E-05   -0.33561E-05  5808   0.724E-03    0.888E-03
DAV:   5    -0.288841117277E+04   -0.40944E-05   -0.93014E-06  4752   0.337E-03
  74 F= -.29230126E+04 E0= -.29230126E+04  d E =-.796868E-03  mag=     4.0000
       N       E                     dE             d eps       ncg     rms          rms(c)
DAV:   1    -0.288841125335E+04   -0.84673E-04   -0.12315E-01  5504   0.317E-01    0.835E-02
DAV:   2    -0.288841147933E+04   -0.22597E-03   -0.26559E-03  6496   0.432E-02    0.390E-02
DAV:   3    -0.288841146539E+04    0.13933E-04   -0.46925E-05  6064   0.772E-03    0.237E-02
DAV:   4    -0.288841145875E+04    0.66478E-05   -0.31598E-05  5600   0.713E-03    0.871E-03
DAV:   5    -0.288841146201E+04   -0.32661E-05   -0.93289E-06  4720   0.340E-03
  75 F= -.29230129E+04 E0= -.29230129E+04  d E =-.110282E-02  mag=     4.0000
       N       E                     dE             d eps       ncg     rms          rms(c)
DAV:   1    -0.288841209199E+04   -0.63325E-03   -0.15580E-01  5472   0.358E-01    0.962E-02
DAV:   2    -0.288841236543E+04   -0.27344E-03   -0.32661E-03  6384   0.495E-02    0.462E-02
DAV:   3    -0.288841234522E+04    0.20215E-04   -0.66780E-05  6480   0.958E-03    0.282E-02
DAV:   4    -0.288841233590E+04    0.93167E-05   -0.44279E-05  6176   0.882E-03    0.940E-03
DAV:   5    -0.288841234041E+04   -0.45108E-05   -0.13507E-05  4784   0.448E-03
  76 F= -.29230138E+04 E0= -.29230138E+04  d E =-.903419E-03  mag=     4.0000
       N       E                     dE             d eps       ncg     rms          rms(c)
DAV:   1    -0.288841242600E+04   -0.90099E-04   -0.98885E-02  5504   0.286E-01    0.783E-02
DAV:   2    -0.288841260180E+04   -0.17581E-03   -0.20904E-03  6448   0.396E-02    0.366E-02
DAV:   3    -0.288841258891E+04    0.12888E-04   -0.41532E-05  6112   0.789E-03    0.222E-02
DAV:   4    -0.288841258226E+04    0.66565E-05   -0.27458E-05  5456   0.764E-03    0.728E-03
DAV:   5    -0.288841258551E+04   -0.32498E-05   -0.11275E-05  4688   0.406E-03
  77 F= -.29230141E+04 E0= -.29230141E+04  d E =-.116854E-02  mag=     4.0000
       N       E                     dE             d eps       ncg     rms          rms(c)
DAV:   1    -0.288841320385E+04   -0.62159E-03   -0.20415E-01  5472   0.407E-01    0.105E-01
DAV:   2    -0.288841355965E+04   -0.35580E-03   -0.41307E-03  6400   0.549E-02    0.504E-02
DAV:   3    -0.288841353777E+04    0.21885E-04   -0.73420E-05  6528   0.949E-03    0.308E-02
DAV:   4    -0.288841352762E+04    0.10154E-04   -0.52423E-05  6448   0.893E-03    0.110E-02
DAV:   5    -0.288841353350E+04   -0.58842E-05   -0.13251E-05  4784   0.409E-03
  78 F= -.29230151E+04 E0= -.29230151E+04  d E =-.999213E-03  mag=     4.0000
       N       E                     dE             d eps       ncg     rms          rms(c)
DAV:   1    -0.288841360740E+04   -0.79780E-04   -0.16226E-01  5504   0.363E-01    0.954E-02
DAV:   2    -0.288841389312E+04   -0.28573E-03   -0.33002E-03  6416   0.491E-02    0.447E-02
DAV:   3    -0.288841387570E+04    0.17426E-04   -0.57832E-05  6432   0.855E-03    0.272E-02
DAV:   4    -0.288841386853E+04    0.71685E-05   -0.42243E-05  6096   0.812E-03    0.968E-03
DAV:   5    -0.288841387411E+04   -0.55831E-05   -0.10874E-05  4672   0.375E-03
  79 F= -.29230154E+04 E0= -.29230154E+04  d E =-.138561E-02  mag=     4.0000
       N       E                     dE             d eps       ncg     rms          rms(c)
DAV:   1    -0.288841451629E+04   -0.64776E-03   -0.27450E-01  5472   0.465E-01    0.123E-01
DAV:   2    -0.288841499308E+04   -0.47679E-03   -0.56404E-03  6352   0.630E-02    0.583E-02
DAV:   3    -0.288841496213E+04    0.30947E-04   -0.10293E-04  6544   0.114E-02    0.356E-02
DAV:   4    -0.288841495006E+04    0.12076E-04   -0.60929E-05  6464   0.100E-02    0.147E-02
DAV:   5    -0.288841495774E+04   -0.76882E-05   -0.18826E-05  5056   0.505E-03
  80 F= -.29230165E+04 E0= -.29230165E+04  d E =-.109507E-02  mag=     4.0000
       N       E                     dE             d eps       ncg     rms          rms(c)
DAV:   1    -0.288841502962E+04   -0.79560E-04   -0.70434E-02  5504   0.236E-01    0.651E-02
DAV:   2    -0.288841515706E+04   -0.12744E-03   -0.14763E-03  6480   0.322E-02    0.295E-02
DAV:   3    -0.288841515060E+04    0.64576E-05   -0.25568E-05  5280   0.607E-03    0.179E-02
DAV:   4    -0.288841514879E+04    0.18131E-05   -0.16192E-05  4784   0.579E-03    0.751E-03
DAV:   5    -0.288841515301E+04   -0.42201E-05   -0.77685E-06  4752   0.331E-03
  81 F= -.29230167E+04 E0= -.29230167E+04  d E =-.129622E-02  mag=     4.0000
       N       E                     dE             d eps       ncg     rms          rms(c)
DAV:   1    -0.288841582801E+04   -0.67922E-03   -0.29963E-01  5472   0.484E-01    0.124E-01
DAV:   2    -0.288841633891E+04   -0.51090E-03   -0.59924E-03  6384   0.649E-02    0.634E-02
DAV:   3    -0.288841630730E+04    0.31609E-04   -0.10610E-04  6528   0.113E-02    0.394E-02
DAV:   4    -0.288841628888E+04    0.18415E-04   -0.84819E-05  6400   0.113E-02    0.131E-02
DAV:   5    -0.288841629957E+04   -0.10687E-04   -0.22765E-05  5312   0.507E-03    0.891E-03
DAV:   6    -0.288841630480E+04   -0.52263E-05   -0.49092E-06  4672   0.252E-03
  82 F= -.29230178E+04 E0= -.29230178E+04  d E =-.111262E-02  mag=     4.0000
       N       E                     dE             d eps       ncg     rms          rms(c)
DAV:   1    -0.288841636207E+04   -0.62499E-04   -0.89368E-02  5504   0.264E-01    0.688E-02
DAV:   2    -0.288841651740E+04   -0.15532E-03   -0.18064E-03  6512   0.356E-02    0.344E-02
DAV:   3    -0.288841650861E+04    0.87840E-05   -0.30314E-05  5472   0.630E-03    0.212E-02
DAV:   4    -0.288841650248E+04    0.61301E-05   -0.25471E-05  5312   0.637E-03    0.704E-03
DAV:   5    -0.288841650727E+04   -0.47843E-05   -0.82030E-06  4704   0.300E-03
  83 F= -.29230180E+04 E0= -.29230180E+04  d E =-.129382E-02  mag=     4.0000
       N       E                     dE             d eps       ncg     rms          rms(c)
DAV:   1    -0.288841719884E+04   -0.69636E-03   -0.21715E-01  5472   0.401E-01    0.956E-02
DAV:   2    -0.288841756817E+04   -0.36933E-03   -0.42829E-03  6416   0.528E-02    0.497E-02
DAV:   3    -0.288841755473E+04    0.13438E-04   -0.65972E-05  6432   0.888E-03    0.307E-02
DAV:   4    -0.288841754961E+04    0.51216E-05   -0.48749E-05  6320   0.866E-03    0.109E-02
DAV:   5    -0.288841755703E+04   -0.74208E-05   -0.13784E-05  4896   0.418E-03
  84 F= -.29230190E+04 E0= -.29230190E+04  d E =-.992953E-03  mag=     4.0000
       N       E                     dE             d eps       ncg     rms          rms(c)
DAV:   1    -0.288841710540E+04    0.44421E-03   -0.70911E-01  5440   0.724E-01    0.173E-01
DAV:   2    -0.288841830889E+04   -0.12035E-02   -0.13927E-02  6384   0.954E-02    0.895E-02
DAV:   3    -0.288841825104E+04    0.57850E-04   -0.21375E-04  6544   0.161E-02    0.554E-02
DAV:   4    -0.288841822662E+04    0.24417E-04   -0.15972E-04  6464   0.160E-02    0.195E-02
DAV:   5    -0.288841824786E+04   -0.21245E-04   -0.50420E-05  6336   0.780E-03    0.130E-02
DAV:   6    -0.288841825240E+04   -0.45351E-05   -0.95022E-06  4704   0.372E-03
  85 F= -.29230196E+04 E0= -.29230196E+04  d E =-.158619E-02  mag=     4.0000
       N       E                     dE             d eps       ncg     rms          rms(c)
DAV:   1    -0.288841885194E+04   -0.60408E-03   -0.22433E-01  5504   0.402E-01    0.944E-02
DAV:   2    -0.288841921750E+04   -0.36556E-03   -0.42256E-03  6352   0.525E-02    0.503E-02
DAV:   3    -0.288841920560E+04    0.11901E-04   -0.64707E-05  6304   0.867E-03    0.313E-02
DAV:   4    -0.288841920339E+04    0.22097E-05   -0.48753E-05  6240   0.871E-03    0.979E-03
DAV:   5    -0.288841921404E+04   -0.10650E-04   -0.14848E-05  4960   0.415E-03    0.669E-03
DAV:   6    -0.288841921794E+04   -0.39025E-05   -0.28681E-06  4704   0.203E-03
  86 F= -.29230205E+04 E0= -.29230205E+04  d E =-.915883E-03  mag=     4.0000
       N       E                     dE             d eps       ncg     rms          rms(c)
DAV:   1    -0.288841922953E+04   -0.15491E-04   -0.38636E-01  5440   0.527E-01    0.123E-01
DAV:   2    -0.288841985784E+04   -0.62831E-03   -0.72849E-03  6368   0.688E-02    0.661E-02
DAV:   3    -0.288841983398E+04    0.23861E-04   -0.11096E-04  6512   0.113E-02    0.411E-02
DAV:   4    -0.288841982361E+04    0.10369E-04   -0.84448E-05  6352   0.114E-02    0.127E-02
DAV:   5    -0.288841983816E+04   -0.14553E-04   -0.26175E-05  5440   0.538E-03    0.890E-03
DAV:   6    -0.288841984233E+04   -0.41658E-05   -0.44323E-06  4640   0.248E-03
  87 F= -.29230211E+04 E0= -.29230211E+04  d E =-.147544E-02  mag=     4.0000
       N       E                     dE             d eps       ncg     rms          rms(c)
DAV:   1    -0.288841980893E+04    0.29231E-04   -0.77983E-02  5504   0.237E-01    0.564E-02
DAV:   2    -0.288841993745E+04   -0.12852E-03   -0.14760E-03  6480   0.310E-02    0.296E-02
DAV:   3    -0.288841993414E+04    0.33091E-05   -0.21099E-05  5024   0.523E-03    0.183E-02
DAV:   4    -0.288841993326E+04    0.88284E-06   -0.17817E-05  5056   0.548E-03    0.593E-03
DAV:   5    -0.288841993770E+04   -0.44434E-05   -0.66892E-06  4704   0.271E-03
  88 F= -.29230212E+04 E0= -.29230212E+04  d E =-.154182E-02  mag=     4.0000
       N       E                     dE             d eps       ncg     rms          rms(c)
DAV:   1    -0.288842067548E+04   -0.74222E-03   -0.20571E-01  5472   0.390E-01    0.101E-01
DAV:   2    -0.288842102425E+04   -0.34878E-03   -0.41045E-03  6384   0.523E-02    0.503E-02
DAV:   3    -0.288842100483E+04    0.19423E-04   -0.68850E-05  6480   0.938E-03    0.304E-02
DAV:   4    -0.288842099710E+04    0.77310E-05   -0.49459E-05  6320   0.903E-03    0.984E-03
DAV:   5    -0.288842100374E+04   -0.66370E-05   -0.15494E-05  5040   0.444E-03
  89 F= -.29230222E+04 E0= -.29230222E+04  d E =-.107849E-02  mag=     4.0000
       N       E                     dE             d eps       ncg     rms          rms(c)
DAV:   1    -0.288842109015E+04   -0.93049E-04   -0.24311E-01  5472   0.424E-01    0.111E-01
DAV:   2    -0.288842150264E+04   -0.41249E-03   -0.48586E-03  6400   0.571E-02    0.546E-02
DAV:   3    -0.288842147853E+04    0.24114E-04   -0.81463E-05  6512   0.104E-02    0.329E-02
DAV:   4    -0.288842146798E+04    0.10541E-04   -0.58129E-05  6368   0.103E-02    0.107E-02
DAV:   5    -0.288842147558E+04   -0.75969E-05   -0.20128E-05  5104   0.521E-03
  90 F= -.29230227E+04 E0= -.29230227E+04  d E =-.156414E-02  mag=     4.0000
       N       E                     dE             d eps       ncg     rms          rms(c)
DAV:   1    -0.288842224660E+04   -0.77862E-03   -0.18111E-01  5472   0.376E-01    0.981E-02
DAV:   2    -0.288842255454E+04   -0.30794E-03   -0.36394E-03  6400   0.505E-02    0.475E-02
DAV:   3    -0.288842253440E+04    0.20136E-04   -0.64280E-05  6432   0.908E-03    0.289E-02
DAV:   4    -0.288842252760E+04    0.68027E-05   -0.48960E-05  6288   0.865E-03    0.978E-03
DAV:   5    -0.288842253325E+04   -0.56498E-05   -0.12729E-05  4928   0.401E-03
  91 F= -.29230238E+04 E0= -.29230238E+04  d E =-.112484E-02  mag=     4.0000
       N       E                     dE             d eps       ncg     rms          rms(c)
DAV:   1    -0.288842248654E+04    0.41059E-04   -0.37771E-01  5440   0.543E-01    0.142E-01
DAV:   2    -0.288842312235E+04   -0.63581E-03   -0.75100E-03  6432   0.728E-02    0.682E-02
DAV:   3    -0.288842307761E+04    0.44738E-04   -0.13352E-04  6528   0.132E-02    0.413E-02
DAV:   4    -0.288842306100E+04    0.16606E-04   -0.99364E-05  6464   0.125E-02    0.142E-02
DAV:   5    -0.288842307088E+04   -0.98760E-05   -0.27840E-05  5536   0.594E-03
  92 F= -.29230245E+04 E0= -.29230245E+04  d E =-.175987E-02  mag=     4.0000
       N       E                     dE             d eps       ncg     rms          rms(c)
DAV:   1    -0.288842357738E+04   -0.51637E-03   -0.11576E-01  5472   0.299E-01    0.725E-02
DAV:   2    -0.288842376872E+04   -0.19135E-03   -0.21917E-03  6416   0.388E-02    0.368E-02
DAV:   3    -0.288842375889E+04    0.98350E-05   -0.35148E-05  5824   0.670E-03    0.228E-02
DAV:   4    -0.288842375631E+04    0.25816E-05   -0.31721E-05  6000   0.721E-03    0.728E-03
DAV:   5    -0.288842376139E+04   -0.50787E-05   -0.88111E-06  4784   0.322E-03
  93 F= -.29230252E+04 E0= -.29230252E+04  d E =-.758190E-03  mag=     4.0000
       N       E                     dE             d eps       ncg     rms          rms(c)
DAV:   1    -0.288842368527E+04    0.71043E-04   -0.42090E-01  5440   0.570E-01    0.136E-01
DAV:   2    -0.288842437129E+04   -0.68603E-03   -0.79312E-03  6400   0.736E-02    0.699E-02
DAV:   3    -0.288842433125E+04    0.40040E-04   -0.12804E-04  6512   0.126E-02    0.434E-02
DAV:   4    -0.288842431286E+04    0.18393E-04   -0.10524E-04  6432   0.132E-02    0.140E-02
DAV:   5    -0.288842432511E+04   -0.12244E-04   -0.32558E-05  5664   0.608E-03    0.103E-02
DAV:   6    -0.288842433040E+04   -0.52913E-05   -0.56708E-06  4656   0.282E-03
  94 F= -.29230259E+04 E0= -.29230259E+04  d E =-.145663E-02  mag=     4.0000
       N       E                     dE             d eps       ncg     rms          rms(c)
DAV:   1    -0.288842427574E+04    0.49369E-04   -0.47152E-02  5504   0.191E-01    0.466E-02
DAV:   2    -0.288842435682E+04   -0.81081E-04   -0.90000E-04  6560   0.248E-02    0.232E-02
DAV:   3    -0.288842435352E+04    0.32967E-05   -0.13373E-05  4912   0.443E-03    0.143E-02
DAV:   4    -0.288842435315E+04    0.37008E-06   -0.12263E-05  4816   0.489E-03    0.481E-03
DAV:   5    -0.288842435672E+04   -0.35664E-05   -0.50715E-06  4688   0.244E-03
  95 F= -.29230260E+04 E0= -.29230260E+04  d E =-.152634E-02  mag=     4.0000
       N       E                     dE             d eps       ncg     rms          rms(c)
DAV:   1    -0.288842511236E+04   -0.75921E-03   -0.13720E-01  5472   0.328E-01    0.933E-02
DAV:   2    -0.288842534736E+04   -0.23500E-03   -0.28356E-03  6432   0.447E-02    0.432E-02
DAV:   3    -0.288842532692E+04    0.20440E-04   -0.54750E-05  6464   0.880E-03    0.259E-02
DAV:   4    -0.288842531926E+04    0.76620E-05   -0.37571E-05  6224   0.789E-03    0.926E-03
DAV:   5    -0.288842532351E+04   -0.42466E-05   -0.11278E-05  4768   0.384E-03
  96 F= -.29230270E+04 E0= -.29230270E+04  d E =-.101985E-02  mag=     4.0000
       N       E                     dE             d eps       ncg     rms          rms(c)
DAV:   1    -0.288842541498E+04   -0.95720E-04   -0.16894E-01  5472   0.363E-01    0.106E-01
DAV:   2    -0.288842570298E+04   -0.28800E-03   -0.34967E-03  6464   0.498E-02    0.478E-02
DAV:   3    -0.288842567587E+04    0.27109E-04   -0.67534E-05  6464   0.101E-02    0.285E-02
DAV:   4    -0.288842566436E+04    0.11510E-04   -0.45925E-05  6272   0.933E-03    0.103E-02
DAV:   5    -0.288842566924E+04   -0.48842E-05   -0.16307E-05  4992   0.471E-03
  97 F= -.29230274E+04 E0= -.29230274E+04  d E =-.142466E-02  mag=     4.0000
       N       E                     dE             d eps       ncg     rms          rms(c)
DAV:   1    -0.288842635916E+04   -0.69480E-03   -0.18145E-01  5472   0.378E-01    0.985E-02
DAV:   2    -0.288842667101E+04   -0.31186E-03   -0.36647E-03  6416   0.504E-02    0.503E-02
DAV:   3    -0.288842664886E+04    0.22157E-04   -0.65245E-05  6368   0.920E-03    0.309E-02
DAV:   4    -0.288842664027E+04    0.85902E-05   -0.51711E-05  6336   0.911E-03    0.105E-02
DAV:   5    -0.288842664646E+04   -0.61878E-05   -0.14886E-05  5088   0.430E-03
  98 F= -.29230284E+04 E0= -.29230284E+04  d E =-.961471E-03  mag=     4.0000
       N       E                     dE             d eps       ncg     rms          rms(c)
DAV:   1    -0.288842675449E+04   -0.11423E-03   -0.11251E-01  5504   0.298E-01    0.783E-02
DAV:   2    -0.288842694479E+04   -0.19030E-03   -0.22368E-03  6496   0.398E-02    0.389E-02
DAV:   3    -0.288842693086E+04    0.13935E-04   -0.39363E-05  6000   0.733E-03    0.238E-02
DAV:   4    -0.288842692532E+04    0.55401E-05   -0.34085E-05  5984   0.759E-03    0.770E-03
DAV:   5    -0.288842692984E+04   -0.45252E-05   -0.10021E-05  4768   0.352E-03
  99 F= -.29230287E+04 E0= -.29230287E+04  d E =-.123263E-02  mag=     4.0000
       N       E                     dE             d eps       ncg     rms          rms(c)
DAV:   1    -0.288842775436E+04   -0.82904E-03   -0.21961E-01  5440   0.415E-01    0.114E-01
DAV:   2    -0.288842813529E+04   -0.38094E-03   -0.45870E-03  6464   0.566E-02    0.539E-02
DAV:   3    -0.288842810631E+04    0.28986E-04   -0.85301E-05  6560   0.107E-02    0.325E-02
DAV:   4    -0.288842809479E+04    0.11513E-04   -0.60512E-05  6416   0.101E-02    0.116E-02
DAV:   5    -0.288842810165E+04   -0.68585E-05   -0.18742E-05  5088   0.491E-03
 100 F= -.29230297E+04 E0= -.29230297E+04  d E =-.106172E-02  mag=     4.0000
       N       E                     dE             d eps       ncg     rms          rms(c)
DAV:   1    -0.288842822720E+04   -0.13241E-03   -0.90468E-02  5504   0.266E-01    0.762E-02
DAV:   2    -0.288842838263E+04   -0.15543E-03   -0.18766E-03  6512   0.365E-02    0.344E-02
DAV:   3    -0.288842837016E+04    0.12476E-04   -0.34507E-05  5824   0.724E-03    0.206E-02
DAV:   4    -0.288842836423E+04    0.59259E-05   -0.25196E-05  5456   0.734E-03    0.738E-03
DAV:   5    -0.288842836805E+04   -0.38231E-05   -0.10715E-05  4720   0.377E-03
 101 F= -.29230299E+04 E0= -.29230299E+04  d E =-.125764E-02  mag=     4.0000
       N       E                     dE             d eps       ncg     rms          rms(c)
DAV:   1    -0.288842902315E+04   -0.65892E-03   -0.21272E-01  5440   0.400E-01    0.101E-01
DAV:   2    -0.288842937578E+04   -0.35263E-03   -0.41559E-03  6384   0.534E-02    0.523E-02
DAV:   3    -0.288842935694E+04    0.18838E-04   -0.73706E-05  6480   0.962E-03    0.320E-02
DAV:   4    -0.288842934557E+04    0.11368E-04   -0.57092E-05  6416   0.982E-03    0.103E-02
DAV:   5    -0.288842935390E+04   -0.83233E-05   -0.17354E-05  5008   0.475E-03
 102 F= -.29230308E+04 E0= -.29230308E+04  d E =-.894414E-03  mag=     4.0000
       N       E                     dE             d eps       ncg     rms          rms(c)
DAV:   1    -0.288842950249E+04   -0.15692E-03   -0.13541E-01  5504   0.319E-01    0.826E-02
DAV:   2    -0.288842973222E+04   -0.22973E-03   -0.26882E-03  6416   0.428E-02    0.416E-02
DAV:   3    -0.288842971969E+04    0.12526E-04   -0.45827E-05  6128   0.782E-03    0.254E-02
DAV:   4    -0.288842971165E+04    0.80451E-05   -0.37414E-05  6112   0.822E-03    0.819E-03
DAV:   5    -0.288842971720E+04   -0.55506E-05   -0.12011E-05  4784   0.401E-03
 103 F= -.29230311E+04 E0= -.29230311E+04  d E =-.118496E-02  mag=     4.0000
       N       E                     dE             d eps       ncg     rms          rms(c)
DAV:   1    -0.288843044912E+04   -0.73748E-03   -0.27450E-01  5440   0.445E-01    0.126E-01
DAV:   2    -0.288843090820E+04   -0.45908E-03   -0.55350E-03  6400   0.608E-02    0.599E-02
DAV:   3    -0.288843088018E+04    0.28024E-04   -0.97701E-05  6512   0.118E-02    0.359E-02
DAV:   4    -0.288843086526E+04    0.14922E-04   -0.74195E-05  6448   0.118E-02    0.118E-02
DAV:   5    -0.288843087718E+04   -0.11928E-04   -0.26414E-05  5312   0.585E-03    0.967E-03
DAV:   6    -0.288843087982E+04   -0.26413E-05   -0.44991E-06  4752   0.248E-03
 104 F= -.29230323E+04 E0= -.29230323E+04  d E =-.117672E-02  mag=     4.0000
       N       E                     dE             d eps       ncg     rms          rms(c)
DAV:   1    -0.288843087024E+04    0.69430E-05   -0.13084E-01  5504   0.307E-01    0.886E-02
DAV:   2    -0.288843108892E+04   -0.21868E-03   -0.26496E-03  6400   0.421E-02    0.412E-02
DAV:   3    -0.288843107684E+04    0.12080E-04   -0.47372E-05  6304   0.863E-03    0.246E-02
DAV:   4    -0.288843106697E+04    0.98627E-05   -0.33103E-05  5824   0.871E-03    0.839E-03
DAV:   5    -0.288843107470E+04   -0.77289E-05   -0.14963E-05  4720   0.463E-03
 105 F= -.29230325E+04 E0= -.29230325E+04  d E =-.138148E-02  mag=     4.0000
       N       E                     dE             d eps       ncg     rms          rms(c)
DAV:   1    -0.288843162302E+04   -0.55605E-03   -0.24568E-01  5472   0.411E-01    0.106E-01
DAV:   2    -0.288843202869E+04   -0.40567E-03   -0.47554E-03  6320   0.547E-02    0.554E-02
DAV:   3    -0.288843201488E+04    0.13811E-04   -0.76596E-05  6480   0.950E-03    0.337E-02
DAV:   4    -0.288843200739E+04    0.74918E-05   -0.58995E-05  6336   0.948E-03    0.112E-02
DAV:   5    -0.288843201966E+04   -0.12264E-04   -0.16283E-05  4912   0.445E-03    0.740E-03
DAV:   6    -0.288843202317E+04   -0.35137E-05   -0.38213E-06  4688   0.240E-03
 106 F= -.29230335E+04 E0= -.29230335E+04  d E =-.101196E-02  mag=     4.0000
       N       E                     dE             d eps       ncg     rms          rms(c)
DAV:   1    -0.288843188016E+04    0.13950E-03   -0.32134E-01  5440   0.470E-01    0.121E-01
DAV:   2    -0.288843240984E+04   -0.52968E-03   -0.62126E-03  6320   0.624E-02    0.630E-02
DAV:   3    -0.288843239215E+04    0.17684E-04   -0.98587E-05  6512   0.108E-02    0.383E-02
DAV:   4    -0.288843237983E+04    0.12327E-04   -0.75689E-05  6400   0.107E-02    0.127E-02
DAV:   5    -0.288843239728E+04   -0.17449E-04   -0.21725E-05  5008   0.512E-03    0.842E-03
DAV:   6    -0.288843240146E+04   -0.41872E-05   -0.47519E-06  4720   0.267E-03
 107 F= -.29230340E+04 E0= -.29230340E+04  d E =-.146312E-02  mag=     4.0000
       N       E                     dE             d eps       ncg     rms          rms(c)
DAV:   1    -0.288843307739E+04   -0.68012E-03   -0.36558E-01  5472   0.500E-01    0.142E-01
DAV:   2    -0.288843366275E+04   -0.58536E-03   -0.70752E-03  6384   0.673E-02    0.683E-02
DAV:   3    -0.288843363359E+04    0.29160E-04   -0.12846E-04  6496   0.132E-02    0.410E-02
DAV:   4    -0.288843361386E+04    0.19731E-04   -0.86040E-05  6448   0.123E-02    0.139E-02
DAV:   5    -0.288843363436E+04   -0.20497E-04   -0.32220E-05  5648   0.635E-03    0.107E-02
DAV:   6    -0.288843363936E+04   -0.49988E-05   -0.46894E-06  4720   0.259E-03
 108 F= -.29230353E+04 E0= -.29230353E+04  d E =-.130953E-02  mag=     4.0000
       N       E                     dE             d eps       ncg     rms          rms(c)
DAV:   1    -0.288843361888E+04    0.15478E-04   -0.11415E-01  5504   0.279E-01    0.812E-02
DAV:   2    -0.288843380449E+04   -0.18561E-03   -0.22391E-03  6448   0.378E-02    0.381E-02
DAV:   3    -0.288843379683E+04    0.76677E-05   -0.40701E-05  5840   0.783E-03    0.228E-02
DAV:   4    -0.288843378953E+04    0.72974E-05   -0.25734E-05  5312   0.749E-03    0.796E-03
DAV:   5    -0.288843379815E+04   -0.86217E-05   -0.12816E-05  4720   0.420E-03
 109 F= -.29230355E+04 E0= -.29230355E+04  d E =-.150847E-02  mag=     4.0000
       N       E                     dE             d eps       ncg     rms          rms(c)
DAV:   1    -0.288843431462E+04   -0.52510E-03   -0.39856E-01  5440   0.526E-01    0.144E-01
DAV:   2    -0.288843497305E+04   -0.65842E-03   -0.77253E-03  6368   0.702E-02    0.725E-02
DAV:   3    -0.288843494345E+04    0.29600E-04   -0.13480E-04  6528   0.130E-02    0.438E-02
DAV:   4    -0.288843492728E+04    0.16169E-04   -0.97030E-05  6464   0.120E-02    0.156E-02
DAV:   5    -0.288843494728E+04   -0.20002E-04   -0.27217E-05  5344   0.584E-03    0.976E-03
DAV:   6    -0.288843495368E+04   -0.63956E-05   -0.58518E-06  4688   0.303E-03
 110 F= -.29230367E+04 E0= -.29230367E+04  d E =-.126495E-02  mag=     4.0000
       N       E                     dE             d eps       ncg     rms          rms(c)
DAV:   1    -0.288843490250E+04    0.44783E-04   -0.10628E-01  5504   0.271E-01    0.753E-02
DAV:   2    -0.288843508259E+04   -0.18009E-03   -0.20786E-03  6432   0.363E-02    0.371E-02
DAV:   3    -0.288843507618E+04    0.64104E-05   -0.35458E-05  5792   0.693E-03    0.224E-02
DAV:   4    -0.288843507221E+04    0.39682E-05   -0.25163E-05  5360   0.659E-03    0.799E-03
DAV:   5    -0.288843507958E+04   -0.73701E-05   -0.92057E-06  4736   0.342E-03
 111 F= -.29230369E+04 E0= -.29230369E+04  d E =-.144751E-02  mag=     4.0000
       N       E                     dE             d eps       ncg     rms          rms(c)
DAV:   1    -0.288843586158E+04   -0.78936E-03   -0.33671E-01  5440   0.486E-01    0.131E-01
DAV:   2    -0.288843640625E+04   -0.54468E-03   -0.63929E-03  6336   0.640E-02    0.655E-02
DAV:   3    -0.288843638082E+04    0.25429E-04   -0.11205E-04  6528   0.119E-02    0.397E-02
DAV:   4    -0.288843636889E+04    0.11930E-04   -0.78346E-05  6400   0.112E-02    0.137E-02
DAV:   5    -0.288843638628E+04   -0.17385E-04   -0.24421E-05  5248   0.537E-03    0.939E-03
DAV:   6    -0.288843639223E+04   -0.59507E-05   -0.41239E-06  4704   0.244E-03
 112 F= -.29230382E+04 E0= -.29230382E+04  d E =-.133727E-02  mag=     4.0000
       N       E                     dE             d eps       ncg     rms          rms(c)
DAV:   1    -0.288843646914E+04   -0.82866E-04   -0.18330E-01  5472   0.359E-01    0.978E-02
DAV:   2    -0.288843676702E+04   -0.29788E-03   -0.34924E-03  6384   0.473E-02    0.481E-02
DAV:   3    -0.288843675604E+04    0.10987E-04   -0.60484E-05  6336   0.900E-03    0.291E-02
DAV:   4    -0.288843674949E+04    0.65466E-05   -0.40749E-05  6176   0.852E-03    0.103E-02
DAV:   5    -0.288843676054E+04   -0.11050E-04   -0.14381E-05  4896   0.430E-03    0.704E-03
DAV:   6    -0.288843676490E+04   -0.43595E-05   -0.24394E-06  4720   0.194E-03
 113 F= -.29230386E+04 E0= -.29230386E+04  d E =-.172835E-02  mag=     4.0000
       N       E                     dE             d eps       ncg     rms          rms(c)
DAV:   1    -0.288843775714E+04   -0.99660E-03   -0.28439E-01  5440   0.453E-01    0.129E-01
DAV:   2    -0.288843822348E+04   -0.46634E-03   -0.56448E-03  6416   0.616E-02    0.626E-02
DAV:   3    -0.288843819235E+04    0.31132E-04   -0.11315E-04  6560   0.123E-02    0.375E-02
DAV:   4    -0.288843817844E+04    0.13910E-04   -0.70638E-05  6448   0.108E-02    0.128E-02
DAV:   5    -0.288843819241E+04   -0.13966E-04   -0.23053E-05  5136   0.546E-03    0.899E-03
DAV:   6    -0.288843819776E+04   -0.53556E-05   -0.39641E-06  4656   0.243E-03
 114 F= -.29230400E+04 E0= -.29230400E+04  d E =-.140862E-02  mag=     4.0000
       N       E                     dE             d eps       ncg     rms          rms(c)
DAV:   1    -0.288843825629E+04   -0.63879E-04   -0.12031E-01  5472   0.295E-01    0.851E-02
DAV:   2    -0.288843845439E+04   -0.19810E-03   -0.23860E-03  6464   0.402E-02    0.405E-02
DAV:   3    -0.288843844127E+04    0.13116E-04   -0.47686E-05  6256   0.827E-03    0.242E-02
DAV:   4    -0.288843843559E+04    0.56808E-05   -0.27886E-05  5648   0.739E-03    0.855E-03
DAV:   5    -0.288843844248E+04   -0.68877E-05   -0.11794E-05  4688   0.404E-03
 115 F= -.29230403E+04 E0= -.29230403E+04  d E =-.163771E-02  mag=     4.0000
       N       E                     dE             d eps       ncg     rms          rms(c)
DAV:   1    -0.288843895658E+04   -0.52099E-03   -0.22505E-01  5440   0.395E-01    0.104E-01
DAV:   2    -0.288843933797E+04   -0.38139E-03   -0.43815E-03  6384   0.510E-02    0.538E-02
[...]
 195 F= -.29230624E+04 E0= -.29230624E+04  d E =-.290702E-03  mag=     4.0000
       N       E                     dE             d eps       ncg     rms          rms(c)
DAV:   1    -0.288846265726E+04   -0.15493E-03   -0.61358E-02  5440   0.233E-01    0.616E-02
DAV:   2    -0.288846277157E+04   -0.11431E-03   -0.13226E-03  6432   0.324E-02    0.283E-02
DAV:   3    -0.288846276200E+04    0.95722E-05   -0.25453E-05  5216   0.607E-03    0.171E-02
DAV:   4    -0.288846275738E+04    0.46234E-05   -0.20339E-05  4832   0.602E-03    0.469E-03
DAV:   5    -0.288846275828E+04   -0.90111E-06   -0.72851E-06  4576   0.288E-03
 196 F= -.29230627E+04 E0= -.29230627E+04  d E =-.289739E-03  mag=     4.0000
       N       E                     dE             d eps       ncg     rms          rms(c)
DAV:   1    -0.288846276011E+04   -0.27347E-05   -0.66127E-03  5600   0.767E-02    0.221E-02
DAV:   2    -0.288846277330E+04   -0.13189E-04   -0.14587E-04  6560   0.108E-02    0.921E-03
DAV:   3    -0.288846277245E+04    0.84733E-06   -0.24678E-06  4656   0.212E-03    0.550E-03
DAV:   4    -0.288846277193E+04    0.52265E-06   -0.25129E-06  4544   0.239E-03    0.158E-03
DAV:   5    -0.288846277224E+04   -0.31397E-06   -0.10845E-06  4688   0.114E-03
 197 F= -.29230627E+04 E0= -.29230627E+04  d E =-.314919E-03  mag=     4.0000
       N       E                     dE             d eps       ncg     rms          rms(c)
DAV:   1    -0.288846289746E+04   -0.12553E-03   -0.71858E-02  5440   0.253E-01    0.686E-02
DAV:   2    -0.288846303105E+04   -0.13359E-03   -0.15489E-03  6448   0.350E-02    0.309E-02
DAV:   3    -0.288846301910E+04    0.11949E-04   -0.30301E-05  5600   0.677E-03    0.186E-02
DAV:   4    -0.288846301393E+04    0.51795E-05   -0.23046E-05  5152   0.662E-03    0.527E-03
DAV:   5    -0.288846301516E+04   -0.12346E-05   -0.83365E-06  4576   0.315E-03
 198 F= -.29230630E+04 E0= -.29230630E+04  d E =-.266846E-03  mag=     4.0000
       N       E                     dE             d eps       ncg     rms          rms(c)
DAV:   1    -0.288846301430E+04   -0.37084E-06   -0.36598E-04  6480   0.182E-02    0.730E-03
DAV:   2    -0.288846301553E+04   -0.12296E-05   -0.84146E-06  4768   0.273E-03    0.276E-03
DAV:   3    -0.288846301600E+04   -0.47265E-06   -0.56937E-07  4592   0.103E-03    0.146E-03
DAV:   4    -0.288846301645E+04   -0.45012E-06   -0.12095E-07  4672   0.105E-03    0.483E-04
DAV:   5    -0.288846301673E+04   -0.27684E-06   -0.16342E-07  4656   0.557E-04
 199 F= -.29230630E+04 E0= -.29230630E+04  d E =-.270128E-03  mag=     4.0000
       N       E                     dE             d eps       ncg     rms          rms(c)
DAV:   1    -0.288846310280E+04   -0.86349E-04   -0.55982E-02  5440   0.224E-01    0.620E-02
DAV:   2    -0.288846320695E+04   -0.10415E-03   -0.12284E-03  6416   0.314E-02    0.282E-02
DAV:   3    -0.288846319632E+04    0.10629E-04   -0.24271E-05  5200   0.608E-03    0.168E-02
DAV:   4    -0.288846319158E+04    0.47415E-05   -0.20090E-05  4848   0.593E-03    0.519E-03
DAV:   5    -0.288846319247E+04   -0.89558E-06   -0.71450E-06  4688   0.281E-03
 200 F= -.29230632E+04 E0= -.29230632E+04  d E =-.219606E-03  mag=     4.0000
       N       E                     dE             d eps       ncg     rms          rms(c)
DAV:   1    -0.288846318950E+04    0.20745E-05   -0.42102E-04  6448   0.196E-02    0.759E-03
DAV:   2    -0.288846319063E+04   -0.11281E-05   -0.96089E-06  4784   0.289E-03    0.289E-03
DAV:   3    -0.288846319096E+04   -0.32410E-06   -0.63665E-07  4608   0.963E-04    0.155E-03
DAV:   4    -0.288846319127E+04   -0.31356E-06   -0.14080E-07  4672   0.814E-04    0.614E-04
DAV:   5    -0.288846319152E+04   -0.25280E-06   -0.98595E-08  4672   0.448E-04
 201 F= -.29230632E+04 E0= -.29230632E+04  d E =-.222476E-03  mag=     4.0000
       N       E                     dE             d eps       ncg     rms          rms(c)
DAV:   1    -0.288846325794E+04   -0.66675E-04   -0.55005E-02  5440   0.223E-01    0.611E-02
DAV:   2    -0.288846335831E+04   -0.10036E-03   -0.11919E-03  6464   0.310E-02    0.277E-02
DAV:   3    -0.288846334774E+04    0.10568E-04   -0.24020E-05  5120   0.600E-03    0.166E-02
DAV:   4    -0.288846334269E+04    0.50537E-05   -0.19092E-05  4768   0.584E-03    0.466E-03
DAV:   5    -0.288846334359E+04   -0.90885E-06   -0.70864E-06  4656   0.288E-03
 202 F= -.29230635E+04 E0= -.29230635E+04  d E =-.213417E-03  mag=     4.0000
       N       E                     dE             d eps       ncg     rms          rms(c)
DAV:   1    -0.288846334085E+04    0.18348E-05   -0.18984E-04  6256   0.132E-02    0.563E-03
DAV:   2    -0.288846334163E+04   -0.77870E-06   -0.45948E-06  4720   0.205E-03    0.224E-03
DAV:   3    -0.288846334207E+04   -0.44034E-06   -0.32597E-07  4624   0.807E-04    0.117E-03
DAV:   4    -0.288846334255E+04   -0.48248E-06   -0.63085E-08  4672   0.814E-04    0.432E-04
DAV:   5    -0.288846334285E+04   -0.29773E-06   -0.89286E-08  4640   0.463E-04
 203 F= -.29230635E+04 E0= -.29230635E+04  d E =-.216295E-03  mag=     4.0000
       N       E                     dE             d eps       ncg     rms          rms(c)
DAV:   1    -0.288846343615E+04   -0.93598E-04   -0.51651E-02  5440   0.215E-01    0.590E-02
DAV:   2    -0.288846352910E+04   -0.92944E-04   -0.11191E-03  6448   0.301E-02    0.269E-02
DAV:   3    -0.288846351897E+04    0.10127E-04   -0.23263E-05  5040   0.598E-03    0.161E-02
DAV:   4    -0.288846351419E+04    0.47768E-05   -0.18061E-05  4768   0.574E-03    0.451E-03
DAV:   5    -0.288846351504E+04   -0.84803E-06   -0.69582E-06  4640   0.286E-03
 204 F= -.29230637E+04 E0= -.29230637E+04  d E =-.237395E-03  mag=     4.0000
       N       E                     dE             d eps       ncg     rms          rms(c)
DAV:   1    -0.288846350809E+04    0.61049E-05   -0.12852E-03  6304   0.341E-02    0.112E-02
DAV:   2    -0.288846351085E+04   -0.27642E-05   -0.28097E-05  5440   0.485E-03    0.424E-03
DAV:   3    -0.288846351100E+04   -0.14645E-06   -0.11470E-06  4592   0.132E-03    0.243E-03
DAV:   4    -0.288846351129E+04   -0.29575E-06   -0.45598E-07  4624   0.129E-03    0.774E-04
DAV:   5    -0.288846351163E+04   -0.33830E-06   -0.29651E-07  4640   0.663E-04
 205 F= -.29230637E+04 E0= -.29230637E+04  d E =-.244310E-03  mag=     4.0000
       N       E                     dE             d eps       ncg     rms          rms(c)
DAV:   1    -0.288846360766E+04   -0.96363E-04   -0.48987E-02  5440   0.209E-01    0.543E-02
DAV:   2    -0.288846369722E+04   -0.89569E-04   -0.10463E-03  6432   0.287E-02    0.252E-02
DAV:   3    -0.288846368922E+04    0.80041E-05   -0.18211E-05  4912   0.515E-03    0.153E-02
DAV:   4    -0.288846368557E+04    0.36493E-05   -0.17494E-05  4816   0.541E-03    0.438E-03
DAV:   5    -0.288846368643E+04   -0.86299E-06   -0.58355E-06  4624   0.248E-03
 206 F= -.29230639E+04 E0= -.29230639E+04  d E =-.225075E-03  mag=     4.0000
       N       E                     dE             d eps       ncg     rms          rms(c)
DAV:   1    -0.288846367957E+04    0.60023E-05   -0.26942E-03  5856   0.491E-02    0.144E-02
DAV:   2    -0.288846368502E+04   -0.54504E-05   -0.59451E-05  6528   0.683E-03    0.592E-03
DAV:   3    -0.288846368481E+04    0.20437E-06   -0.92956E-07  4608   0.133E-03    0.352E-03
DAV:   4    -0.288846368490E+04   -0.88767E-07   -0.10084E-06  4528   0.155E-03    0.112E-03
DAV:   5    -0.288846368520E+04   -0.29936E-06   -0.41856E-07  4656   0.723E-04
 207 F= -.29230639E+04 E0= -.29230639E+04  d E =-.235659E-03  mag=     4.0000
       N       E                     dE             d eps       ncg     rms          rms(c)
DAV:   1    -0.288846382453E+04   -0.13963E-03   -0.46443E-02  5440   0.203E-01    0.527E-02
DAV:   2    -0.288846390898E+04   -0.84445E-04   -0.99085E-04  6464   0.280E-02    0.246E-02
DAV:   3    -0.288846390150E+04    0.74750E-05   -0.18059E-05  4944   0.515E-03    0.149E-02
DAV:   4    -0.288846389859E+04    0.29100E-05   -0.16719E-05  4656   0.534E-03    0.379E-03
DAV:   5    -0.288846389952E+04   -0.92475E-06   -0.56533E-06  4544   0.248E-03
 208 F= -.29230642E+04 E0= -.29230642E+04  d E =-.255894E-03  mag=     4.0000
       N       E                     dE             d eps       ncg     rms          rms(c)
DAV:   1    -0.288846389487E+04    0.37185E-05   -0.62413E-03  5536   0.747E-02    0.208E-02
DAV:   2    -0.288846390693E+04   -0.12055E-04   -0.13568E-04  6576   0.103E-02    0.893E-03
DAV:   3    -0.288846390614E+04    0.78382E-06   -0.21928E-06  4640   0.197E-03    0.534E-03
DAV:   4    -0.288846390600E+04    0.13981E-06   -0.24472E-06  4512   0.223E-03    0.145E-03
DAV:   5    -0.288846390639E+04   -0.38289E-06   -0.90360E-07  4592   0.103E-03
 209 F= -.29230642E+04 E0= -.29230642E+04  d E =-.278037E-03  mag=     4.0000
       N       E                     dE             d eps       ncg     rms          rms(c)
DAV:   1    -0.288846403758E+04   -0.13158E-03   -0.45608E-02  5440   0.201E-01    0.519E-02
DAV:   2    -0.288846412045E+04   -0.82863E-04   -0.97053E-04  6512   0.277E-02    0.245E-02
DAV:   3    -0.288846411301E+04    0.74389E-05   -0.17641E-05  4896   0.507E-03    0.149E-02
DAV:   4    -0.288846411010E+04    0.29050E-05   -0.16771E-05  4784   0.523E-03    0.400E-03
DAV:   5    -0.288846411100E+04   -0.89768E-06   -0.54166E-06  4592   0.240E-03
 210 F= -.29230645E+04 E0= -.29230645E+04  d E =-.235687E-03  mag=     4.0000
       N       E                     dE             d eps       ncg     rms          rms(c)
DAV:   1    -0.288846411115E+04   -0.10453E-05   -0.54545E-03  5600   0.698E-02    0.195E-02
DAV:   2    -0.288846412169E+04   -0.10545E-04   -0.11856E-04  6608   0.965E-03    0.840E-03
DAV:   3    -0.288846412098E+04    0.71543E-06   -0.19338E-06  4576   0.183E-03    0.503E-03
DAV:   4    -0.288846412075E+04    0.23044E-06   -0.21401E-06  4560   0.203E-03    0.147E-03
DAV:   5    -0.288846412103E+04   -0.28382E-06   -0.76001E-07  4624   0.937E-04
 211 F= -.29230645E+04 E0= -.29230645E+04  d E =-.256493E-03  mag=     4.0000
       N       E                     dE             d eps       ncg     rms          rms(c)
DAV:   1    -0.288846426780E+04   -0.14706E-03   -0.50988E-02  5440   0.213E-01    0.585E-02
DAV:   2    -0.288846436211E+04   -0.94308E-04   -0.11134E-03  6432   0.298E-02    0.259E-02
DAV:   3    -0.288846435279E+04    0.93203E-05   -0.20163E-05  5056   0.551E-03    0.156E-02
DAV:   4    -0.288846434854E+04    0.42490E-05   -0.19545E-05  4944   0.585E-03    0.397E-03
DAV:   5    -0.288846434920E+04   -0.65600E-06   -0.65910E-06  4608   0.272E-03
 212 F= -.29230647E+04 E0= -.29230647E+04  d E =-.243648E-03  mag=     4.0000
       N       E                     dE             d eps       ncg     rms          rms(c)
DAV:   1    -0.288846435095E+04   -0.24080E-05   -0.21946E-03  5984   0.444E-02    0.139E-02
DAV:   2    -0.288846435533E+04   -0.43861E-05   -0.49622E-05  6416   0.629E-03    0.543E-03
DAV:   3    -0.288846435499E+04    0.34500E-06   -0.83325E-07  4544   0.133E-03    0.319E-03
DAV:   4    -0.288846435469E+04    0.29505E-06   -0.88256E-07  4640   0.163E-03    0.928E-04
DAV:   5    -0.288846435484E+04   -0.14843E-06   -0.45383E-07  4624   0.767E-04
 213 F= -.29230647E+04 E0= -.29230647E+04  d E =-.252518E-03  mag=     4.0000
       N       E                     dE             d eps       ncg     rms          rms(c)
DAV:   1    -0.288846442959E+04   -0.74894E-04   -0.53213E-02  5440   0.218E-01    0.593E-02
DAV:   2    -0.288846452885E+04   -0.99265E-04   -0.11551E-03  6496   0.303E-02    0.262E-02
DAV:   3    -0.288846452006E+04    0.87975E-05   -0.20542E-05  5008   0.548E-03    0.158E-02
DAV:   4    -0.288846451634E+04    0.37163E-05   -0.20429E-05  4976   0.577E-03    0.408E-03
DAV:   5    -0.288846451698E+04   -0.63796E-06   -0.60574E-06  4560   0.256E-03
 214 F= -.29230649E+04 E0= -.29230649E+04  d E =-.224315E-03  mag=     4.0000
       N       E                     dE             d eps       ncg     rms          rms(c)
DAV:   1    -0.288846450972E+04    0.66150E-05   -0.26890E-03  5904   0.492E-02    0.151E-02
DAV:   2    -0.288846451526E+04   -0.55332E-05   -0.60449E-05  6544   0.691E-03    0.591E-03
DAV:   3    -0.288846451495E+04    0.30291E-06   -0.91813E-07  4624   0.133E-03    0.349E-03
DAV:   4    -0.288846451475E+04    0.20117E-06   -0.11215E-06  4624   0.156E-03    0.102E-03
DAV:   5    -0.288846451489E+04   -0.13510E-06   -0.39629E-07  4640   0.706E-04
 215 F= -.29230650E+04 E0= -.29230650E+04  d E =-.236231E-03  mag=     4.0000
       N       E                     dE             d eps       ncg     rms          rms(c)
DAV:   1    -0.288846453938E+04   -0.24622E-04   -0.53038E-02  5440   0.218E-01    0.572E-02
DAV:   2    -0.288846463935E+04   -0.99973E-04   -0.11604E-03  6416   0.304E-02    0.267E-02
DAV:   3    -0.288846463070E+04    0.86459E-05   -0.22208E-05  5216   0.573E-03    0.162E-02
DAV:   4    -0.288846462715E+04    0.35551E-05   -0.17661E-05  4736   0.568E-03    0.439E-03
DAV:   5    -0.288846462773E+04   -0.58446E-06   -0.63581E-06  4576   0.270E-03
 216 F= -.29230652E+04 E0= -.29230652E+04  d E =-.234214E-03  mag=     4.0000
       N       E                     dE             d eps       ncg     rms          rms(c)
DAV:   1    -0.288846461235E+04    0.14798E-04   -0.12282E-03  6416   0.333E-02    0.105E-02
DAV:   2    -0.288846461493E+04   -0.25852E-05   -0.27400E-05  5408   0.478E-03    0.406E-03
DAV:   3    -0.288846461499E+04   -0.56578E-07   -0.11372E-06  4624   0.127E-03    0.237E-03
DAV:   4    -0.288846461497E+04    0.22119E-07   -0.39024E-07  4592   0.123E-03    0.717E-04
DAV:   5    -0.288846461510E+04   -0.13394E-06   -0.25521E-07  4656   0.630E-04
 217 F= -.29230652E+04 E0= -.29230652E+04  d E =-.240110E-03  mag=     4.0000
       N       E                     dE             d eps       ncg     rms          rms(c)
DAV:   1    -0.288846460590E+04    0.90659E-05   -0.49278E-02  5440   0.211E-01    0.601E-02
DAV:   2    -0.288846469869E+04   -0.92784E-04   -0.11002E-03  6496   0.297E-02    0.262E-02
DAV:   3    -0.288846468977E+04    0.89161E-05   -0.21712E-05  5152   0.558E-03    0.157E-02
DAV:   4    -0.288846468598E+04    0.37873E-05   -0.17897E-05  4800   0.546E-03    0.416E-03
DAV:   5    -0.288846468640E+04   -0.41979E-06   -0.60964E-06  4608   0.263E-03
 218 F= -.29230654E+04 E0= -.29230654E+04  d E =-.208366E-03  mag=     4.0000
       N       E                     dE             d eps       ncg     rms          rms(c)
DAV:   1    -0.288846467108E+04    0.14903E-04   -0.76296E-04  6528   0.263E-02    0.941E-03
DAV:   2    -0.288846467273E+04   -0.16501E-05   -0.17422E-05  5136   0.383E-03    0.338E-03
DAV:   3    -0.288846467282E+04   -0.84401E-07   -0.84396E-07  4576   0.106E-03    0.192E-03
DAV:   4    -0.288846467283E+04   -0.96043E-08   -0.25107E-07  4656   0.961E-04    0.593E-04
DAV:   5    -0.288846467294E+04   -0.11362E-06   -0.15129E-07  4608   0.511E-04
 219 F= -.29230654E+04 E0= -.29230654E+04  d E =-.212008E-03  mag=     4.0000
       N       E                     dE             d eps       ncg     rms          rms(c)
DAV:   1    -0.288846465617E+04    0.16659E-04   -0.44996E-02  5440   0.201E-01    0.546E-02
DAV:   2    -0.288846474133E+04   -0.85161E-04   -0.99338E-04  6384   0.282E-02    0.249E-02
DAV:   3    -0.288846473338E+04    0.79448E-05   -0.18815E-05  4944   0.544E-03    0.150E-02
DAV:   4    -0.288846472942E+04    0.39650E-05   -0.16080E-05  4736   0.555E-03    0.431E-03
DAV:   5    -0.288846472969E+04   -0.27049E-06   -0.63751E-06  4672   0.269E-03
 220 F= -.29230656E+04 E0= -.29230656E+04  d E =-.176501E-03  mag=     4.0000
       N       E                     dE             d eps       ncg     rms          rms(c)
DAV:   1    -0.288846472585E+04    0.35692E-05   -0.47447E-05  6128   0.668E-03    0.412E-03
DAV:   2    -0.288846472595E+04   -0.10373E-06   -0.14533E-06  4640   0.124E-03    0.187E-03
DAV:   3    -0.288846472611E+04   -0.16147E-06   -0.12101E-07  4656   0.661E-04    0.833E-04
DAV:   4    -0.288846472629E+04   -0.18044E-06   -0.12045E-08  4656   0.668E-04    0.321E-04
DAV:   5    -0.288846472645E+04   -0.16188E-06   -0.53190E-08  4640   0.405E-04
 221 F= -.29230656E+04 E0= -.29230656E+04  d E =-.177167E-03  mag=     4.0000
       N       E                     dE             d eps       ncg     rms          rms(c)
DAV:   1    -0.288846478274E+04   -0.56445E-04   -0.33414E-02  5440   0.173E-01    0.465E-02
DAV:   2    -0.288846484627E+04   -0.63530E-04   -0.73155E-04  6432   0.241E-02    0.215E-02
DAV:   3    -0.288846484071E+04    0.55623E-05   -0.13542E-05  4816   0.454E-03    0.129E-02
DAV:   4    -0.288846483808E+04    0.26227E-05   -0.12302E-05  4640   0.459E-03    0.359E-03
DAV:   5    -0.288846483829E+04   -0.20914E-06   -0.43799E-06  4624   0.218E-03
 222 F= -.29230658E+04 E0= -.29230658E+04  d E =-.196210E-03  mag=     4.0000
       N       E                     dE             d eps       ncg     rms          rms(c)
DAV:   1    -0.288846481866E+04    0.19422E-04   -0.46942E-03  5568   0.650E-02    0.188E-02
DAV:   2    -0.288846482813E+04   -0.94707E-05   -0.10483E-04  6560   0.912E-03    0.798E-03
DAV:   3    -0.288846482749E+04    0.64407E-06   -0.17867E-06  4560   0.178E-03    0.472E-03
DAV:   4    -0.288846482704E+04    0.45018E-06   -0.17484E-06  4528   0.193E-03    0.139E-03
DAV:   5    -0.288846482709E+04   -0.52096E-07   -0.70035E-07  4592   0.930E-04
 223 F= -.29230658E+04 E0= -.29230658E+04  d E =-.216677E-03  mag=     4.0000
       N       E                     dE             d eps       ncg     rms          rms(c)
DAV:   1    -0.288846489571E+04   -0.68669E-04   -0.32995E-02  5440   0.172E-01    0.495E-02
DAV:   2    -0.288846495828E+04   -0.62571E-04   -0.74139E-04  6432   0.244E-02    0.214E-02
DAV:   3    -0.288846495200E+04    0.62827E-05   -0.13965E-05  4752   0.474E-03    0.128E-02
DAV:   4    -0.288846494941E+04    0.25848E-05   -0.12966E-05  4576   0.489E-03    0.340E-03
DAV:   5    -0.288846494979E+04   -0.37579E-06   -0.50333E-06  4672   0.238E-03
 224 F= -.29230660E+04 E0= -.29230660E+04  d E =-.180912E-03  mag=     4.0000
       N       E                     dE             d eps       ncg     rms          rms(c)
DAV:   1    -0.288846494445E+04    0.49623E-05   -0.53790E-04  6384   0.221E-02    0.808E-03
DAV:   2    -0.288846494564E+04   -0.11888E-05   -0.12218E-05  4912   0.322E-03    0.291E-03
DAV:   3    -0.288846494576E+04   -0.12305E-06   -0.66297E-07  4576   0.996E-04    0.159E-03
DAV:   4    -0.288846494583E+04   -0.69384E-07   -0.14059E-07  4608   0.893E-04    0.551E-04
DAV:   5    -0.288846494593E+04   -0.98837E-07   -0.12194E-07  4592   0.515E-04
 225 F= -.29230660E+04 E0= -.29230660E+04  d E =-.184509E-03  mag=     4.0000
       N       E                     dE             d eps       ncg     rms          rms(c)
DAV:   1    -0.288846503709E+04   -0.91262E-04   -0.29951E-02  5440   0.165E-01    0.461E-02
DAV:   2    -0.288846509457E+04   -0.57481E-04   -0.67729E-04  6416   0.233E-02    0.203E-02
DAV:   3    -0.288846508899E+04    0.55876E-05   -0.12367E-05  4736   0.438E-03    0.122E-02
DAV:   4    -0.288846508652E+04    0.24654E-05   -0.12177E-05  4640   0.459E-03    0.316E-03
DAV:   5    -0.288846508674E+04   -0.22387E-06   -0.42719E-06  4656   0.218E-03
 226 F= -.29230662E+04 E0= -.29230662E+04  d E =-.170586E-03  mag=     4.0000
       N       E                     dE             d eps       ncg     rms          rms(c)
DAV:   1    -0.288846508448E+04    0.20371E-05   -0.57665E-04  6416   0.229E-02    0.794E-03
DAV:   2    -0.288846508565E+04   -0.11701E-05   -0.13117E-05  4960   0.334E-03    0.291E-03
DAV:   3    -0.288846508569E+04   -0.32654E-07   -0.71091E-07  4496   0.985E-04    0.164E-03
DAV:   4    -0.288846508566E+04    0.28580E-07   -0.17219E-07  4592   0.861E-04    0.531E-04
DAV:   5    -0.288846508572E+04   -0.58382E-07   -0.10965E-07  4576   0.465E-04
 227 F= -.29230662E+04 E0= -.29230662E+04  d E =-.173704E-03  mag=     4.0000
