       N       E                     dE             d eps       ncg     rms          rms(c)
DAV:   1     0.193114667907E+03    0.19311E+03   -0.70981E+03   384   0.307E+02
DAV:   2    -0.403699198332E+02   -0.23348E+03   -0.23341E+03   384   0.865E+01
DAV:   3    -0.590349778010E+02   -0.18665E+02   -0.18665E+02   288   0.333E+01
DAV:   4    -0.594196137744E+02   -0.38464E+00   -0.38464E+00   288   0.378E+00
DAV:   5    -0.594206392467E+02   -0.10255E-02   -0.10255E-02   240   0.210E-01    0.336E+01
DAV:   6    -0.376714396053E+02    0.21749E+02   -0.95550E+01   288   0.212E+01    0.108E+01
DAV:   7    -0.443035136673E+02   -0.66321E+01   -0.42076E+01   336   0.155E+01    0.138E+01
DAV:   8    -0.484110646572E+02   -0.41076E+01   -0.70309E+00   384   0.529E+00    0.418E+00
DAV:   9    -0.508914880027E+02   -0.24804E+01   -0.13094E+00   240   0.248E+00    0.174E+00
DAV:  10    -0.520611482577E+02   -0.11697E+01   -0.22800E-01   336   0.128E+00    0.113E+00
DAV:  11    -0.527349859000E+02   -0.67384E+00   -0.12669E-01   288   0.890E-01    0.773E-01
DAV:  12    -0.530783795490E+02   -0.34339E+00   -0.27238E-02   288   0.458E-01    0.617E-01
DAV:  13    -0.538538814769E+02   -0.77550E+00   -0.16203E-01   336   0.829E-01    0.400E-01
DAV:  14    -0.544011568016E+02   -0.54728E+00   -0.44989E-02   336   0.456E-01    0.295E-01
DAV:  15    -0.547571213717E+02   -0.35596E+00   -0.11968E-02   336   0.210E-01    0.242E-01
DAV:  16    -0.551368371986E+02   -0.37972E+00   -0.12465E-02   336   0.253E-01    0.166E-01
DAV:  17    -0.552194891711E+02   -0.82652E-01   -0.63366E-04   384   0.750E-02    0.136E-01
DAV:  18    -0.552970025934E+02   -0.77513E-01   -0.72120E-04   336   0.682E-02    0.984E-02
DAV:  19    -0.553354943631E+02   -0.38492E-01   -0.34175E-04   288   0.479E-02    0.666E-02
DAV:  20    -0.553510114642E+02   -0.15517E-01   -0.16273E-04   288   0.288E-02    0.505E-02
DAV:  21    -0.553658389274E+02   -0.14827E-01   -0.29170E-04   336   0.390E-02    0.316E-02
DAV:  22    -0.553642507399E+02    0.15882E-02   -0.10899E-04   336   0.314E-02    0.211E-02
DAV:  23    -0.553679307072E+02   -0.36800E-02   -0.48894E-05   288   0.178E-02    0.132E-02
DAV:  24    -0.553732669231E+02   -0.53362E-02   -0.28210E-05   336   0.130E-02    0.781E-03
DAV:  25    -0.553787818439E+02   -0.55149E-02   -0.15615E-05   240   0.916E-03    0.459E-03
DAV:  26    -0.553816262308E+02   -0.28444E-02   -0.62070E-06   240   0.655E-03    0.324E-03
DAV:  27    -0.553832912131E+02   -0.16650E-02   -0.33004E-06   384   0.488E-03    0.216E-03
DAV:  28    -0.553844874430E+02   -0.11962E-02   -0.24292E-06   240   0.343E-03    0.134E-03
DAV:  29    -0.553850677628E+02   -0.58032E-03   -0.76691E-07   336   0.207E-03    0.735E-04
DAV:  30    -0.553853148668E+02   -0.24710E-03   -0.23368E-07   288   0.140E-03    0.501E-04
DAV:  31    -0.553854178912E+02   -0.10302E-03   -0.27913E-08   288   0.984E-04    0.331E-04
DAV:  32    -0.553854700024E+02   -0.52111E-04    0.52571E-08   288   0.658E-04    0.264E-04
DAV:  33    -0.553854883262E+02   -0.18324E-04    0.10799E-07   288   0.358E-04    0.234E-04
DAV:  34    -0.553854962806E+02   -0.79544E-05    0.12569E-07   288   0.221E-04
   1 F= -.55608664E+02 E0= -.55608664E+02  d E =-.556087E+02  mag=     0.0000
       N       E                     dE             d eps       ncg     rms          rms(c)
DAV:   1    -0.553854985560E+02   -0.10230E-04    0.13720E-07   336   0.102E-04    0.224E-04
DAV:   2    -0.553854991790E+02   -0.62294E-06    0.13910E-07   288   0.475E-05
   2 F= -.55608667E+02 E0= -.55608667E+02  d E =-.289839E-05  mag=     0.0000
       N       E                     dE             d eps       ncg     rms          rms(c)
DAV:   1    -0.553854997324E+02   -0.11764E-05    0.14052E-07   336   0.390E-05    0.223E-04
DAV:   2    -0.553855000263E+02   -0.29388E-06    0.14176E-07   384   0.278E-05
   3 F= -.55608668E+02 E0= -.55608668E+02  d E =-.847354E-06  mag=     0.0000
       N       E                     dE             d eps       ncg     rms          rms(c)
DAV:   1    -0.553855003492E+02   -0.61677E-06    0.14343E-07   336   0.277E-05    0.223E-04
DAV:   2    -0.553855005036E+02   -0.15441E-06    0.14446E-07   384   0.214E-05
   4 F= -.55608668E+02 E0= -.55608668E+02  d E =-.477292E-06  mag=     0.0000
       N       E                     dE             d eps       ncg     rms          rms(c)
DAV:   1    -0.553855006435E+02   -0.29429E-06    0.14554E-07   336   0.171E-05    0.223E-04
DAV:   2    -0.553855007378E+02   -0.94338E-07    0.14639E-07   384   0.129E-05
   5 F= -.55608669E+02 E0= -.55608669E+02  d E =-.234223E-06  mag=     0.0000
       N       E                     dE             d eps       ncg     rms          rms(c)
DAV:   1    -0.553855008473E+02   -0.20383E-06    0.14761E-07   336   0.130E-05    0.223E-04
DAV:   2    -0.553855009032E+02   -0.55841E-07    0.14825E-07   384   0.102E-05
   6 F= -.55608669E+02 E0= -.55608669E+02  d E =-.165328E-06  mag=     0.0000
       N       E                     dE             d eps       ncg     rms          rms(c)
DAV:   1    -0.553855009557E+02   -0.10832E-06    0.14894E-07   336   0.831E-06    0.223E-04
DAV:   2    -0.553855009922E+02   -0.36541E-07    0.14952E-07   336   0.636E-06
   7 F= -.55608669E+02 E0= -.55608669E+02  d E =-.890163E-07  mag=     0.0000
       N       E                     dE             d eps       ncg     rms          rms(c)
DAV:   1    -0.553855010332E+02   -0.77539E-07    0.15037E-07   336   0.635E-06    0.223E-04
DAV:   2    -0.553855010563E+02   -0.23114E-07    0.15087E-07   384   0.498E-06
   8 F= -.55608669E+02 E0= -.55608669E+02  d E =-.641116E-07  mag=     0.0000
       N       E                     dE             d eps       ncg     rms          rms(c)
DAV:   1    -0.553855010773E+02   -0.44093E-07    0.15125E-07   336   0.407E-06    0.223E-04
DAV:   2    -0.553855010930E+02   -0.15723E-07    0.15179E-07   384   0.323E-06
   9 F= -.55608669E+02 E0= -.55608669E+02  d E =-.367027E-07  mag=     0.0000
       N       E                     dE             d eps       ncg     rms          rms(c)
DAV:   1    -0.553855011084E+02   -0.31079E-07    0.15233E-07   336   0.304E-06    0.223E-04
DAV:   2    -0.553855011189E+02   -0.10516E-07    0.15276E-07   384   0.239E-06
  10 F= -.55608669E+02 E0= -.55608669E+02  d E =-.258719E-07  mag=     0.0000
       N       E                     dE             d eps       ncg     rms          rms(c)
DAV:   1    -0.553855011279E+02   -0.19543E-07    0.15314E-07   384   0.213E-06    0.223E-04
DAV:   2    -0.553855011351E+02   -0.71768E-08    0.15350E-07   384   0.181E-06
  11 F= -.55608669E+02 E0= -.55608669E+02  d E =-.162040E-07  mag=     0.0000
       N       E                     dE             d eps       ncg     rms          rms(c)
DAV:   1    -0.553855011414E+02   -0.13478E-07    0.15398E-07   384   0.172E-06    0.223E-04
DAV:   2    -0.553855011461E+02   -0.47157E-08    0.15436E-07   384   0.146E-06
  12 F= -.55608669E+02 E0= -.55608669E+02  d E =-.110167E-07  mag=     0.0000
       N       E                     dE             d eps       ncg     rms          rms(c)
DAV:   1    -0.553855011501E+02   -0.86798E-08    0.15468E-07   384   0.136E-06    0.223E-04
DAV:   2    -0.553855011531E+02   -0.30518E-08    0.15508E-07   384   0.118E-06
  13 F= -.55608669E+02 E0= -.55608669E+02  d E =-.701584E-08  mag=     0.0000
       N       E                     dE             d eps       ncg     rms          rms(c)
DAV:   1    -0.553855011557E+02   -0.56148E-08    0.15543E-07   336   0.110E-06    0.223E-04
DAV:   2    -0.553855011576E+02   -0.19313E-08    0.15567E-07   384   0.944E-07
  14 F= -.55608669E+02 E0= -.55608669E+02  d E =-.449427E-08  mag=     0.0000
       N       E                     dE             d eps       ncg     rms          rms(c)
DAV:   1    -0.553855011592E+02   -0.35479E-08    0.15589E-07   288   0.916E-07    0.223E-04
DAV:   2    -0.553855011604E+02   -0.12105E-08    0.15609E-07   240   0.765E-07
  15 F= -.55608669E+02 E0= -.55608669E+02  d E =-.282716E-08  mag=     0.0000
       N       E                     dE             d eps       ncg     rms          rms(c)
DAV:   1    -0.553855011614E+02   -0.22078E-08    0.15619E-07   240   0.719E-07    0.223E-04
DAV:   2    -0.553855011622E+02   -0.75897E-09    0.15626E-07   240   0.648E-07
  16 F= -.55608669E+02 E0= -.55608669E+02  d E =-.175623E-08  mag=     0.0000
       N       E                     dE             d eps       ncg     rms          rms(c)
DAV:   1    -0.553855011629E+02   -0.14334E-08    0.15648E-07   192   0.642E-07    0.223E-04
DAV:   2    -0.553855011633E+02   -0.45975E-09    0.15656E-07   192   0.563E-07
  17 F= -.55608669E+02 E0= -.55608669E+02  d E =-.113414E-08  mag=     0.0000
       N       E                     dE             d eps       ncg     rms          rms(c)
DAV:   1    -0.553855011637E+02   -0.81764E-09    0.15665E-07   192   0.489E-07    0.223E-04
DAV:   2    -0.553855011640E+02   -0.29968E-09    0.15670E-07    96   0.508E-07
  18 F= -.55608669E+02 E0= -.55608669E+02  d E =-.657565E-09  mag=     0.0000
       N       E                     dE             d eps       ncg     rms          rms(c)
DAV:   1    -0.553855011642E+02   -0.52842E-09    0.15667E-07    96   0.500E-07    0.223E-04
DAV:   2    -0.553855011644E+02   -0.18963E-09    0.15680E-07    96   0.483E-07
  19 F= -.55608669E+02 E0= -.55608669E+02  d E =-.418368E-09  mag=     0.0000
       N       E                     dE             d eps       ncg     rms          rms(c)
DAV:   1    -0.553855011645E+02   -0.32469E-09    0.15685E-07    96   0.492E-07    0.223E-04
DAV:   2    -0.553855011647E+02   -0.11551E-09    0.15686E-07   192   0.510E-07
  20 F= -.55608669E+02 E0= -.55608669E+02  d E =-.250566E-09  mag=     0.0000
       N       E                     dE             d eps       ncg     rms          rms(c)
DAV:   1    -0.553855011648E+02   -0.23556E-09    0.15693E-07   192   0.708E-07    0.223E-04
DAV:   2    -0.553855011649E+02   -0.82309E-10    0.15694E-07    96   0.798E-07
  21 F= -.55608669E+02 E0= -.55608669E+02  d E =-.202363E-09  mag=     0.0000
       N       E                     dE             d eps       ncg     rms          rms(c)
DAV:   1    -0.553855011649E+02   -0.13142E-09    0.15697E-07    96   0.864E-07    0.223E-04
DAV:   2    -0.553855011649E+02   -0.44565E-10    0.15699E-07    96   0.528E-07
  22 F= -.55608669E+02 E0= -.55608669E+02  d E =-.936780E-10  mag=     0.0000
