 Entering Gaussian System, Link 0=g16
 Initial command:
 /home/chesagar/softwares/G16_AVX2//g16/l1.exe "/home/chesagar/scratch/Gau-201852.inp" -scrdir="/home/chesagar/scratch/"
 Entering Link 1 = /home/chesagar/softwares/G16_AVX2//g16/l1.exe PID=    201853.
  
 Copyright (c) 1988-2019, Gaussian, Inc.  All Rights Reserved.
  
 This is part of the Gaussian(R) 16 program.  It is based on
 the Gaussian(R) 09 system (copyright 2009, Gaussian, Inc.),
 the Gaussian(R) 03 system (copyright 2003, Gaussian, Inc.),
 the Gaussian(R) 98 system (copyright 1998, Gaussian, Inc.),
 the Gaussian(R) 94 system (copyright 1995, Gaussian, Inc.),
 the Gaussian 92(TM) system (copyright 1992, Gaussian, Inc.),
 the Gaussian 90(TM) system (copyright 1990, Gaussian, Inc.),
 the Gaussian 88(TM) system (copyright 1988, Gaussian, Inc.),
 the Gaussian 86(TM) system (copyright 1986, Carnegie Mellon
 University), and the Gaussian 82(TM) system (copyright 1983,
 Carnegie Mellon University). Gaussian is a federally registered
 trademark of Gaussian, Inc.
  
 This software contains proprietary and confidential information,
 including trade secrets, belonging to Gaussian, Inc.
  
 This software is provided under written license and may be
 used, copied, transmitted, or stored only in accord with that
 written license.
  
 The following legend is applicable only to US Government
 contracts under FAR:
  
                    RESTRICTED RIGHTS LEGEND
  
 Use, reproduction and disclosure by the US Government is
 subject to restrictions as set forth in subparagraphs (a)
 and (c) of the Commercial Computer Software - Restricted
 Rights clause in FAR 52.227-19.
  
 Gaussian, Inc.
 340 Quinnipiac St., Bldg. 40, Wallingford CT 06492
  
  
 ---------------------------------------------------------------
 Warning -- This program may not be used in any manner that
 competes with the business of Gaussian, Inc. or will provide
 assistance to any competitor of Gaussian, Inc.  The licensee
 of this program is prohibited from giving any competitor of
 Gaussian, Inc. access to this program.  By using this program,
 the user acknowledges that Gaussian, Inc. is engaged in the
 business of creating and licensing software in the field of
 computational chemistry and represents and warrants to the
 licensee that it is not a competitor of Gaussian, Inc. and that
 it will not use this program in any manner prohibited above.
 ---------------------------------------------------------------
  

 Cite this work as:
 Gaussian 16, Revision C.01,
 M. J. Frisch, G. W. Trucks, H. B. Schlegel, G. E. Scuseria, 
 M. A. Robb, J. R. Cheeseman, G. Scalmani, V. Barone, 
 G. A. Petersson, H. Nakatsuji, X. Li, M. Caricato, A. V. Marenich, 
 J. Bloino, B. G. Janesko, R. Gomperts, B. Mennucci, H. P. Hratchian, 
 J. V. Ortiz, A. F. Izmaylov, J. L. Sonnenberg, D. Williams-Young, 
 F. Ding, F. Lipparini, F. Egidi, J. Goings, B. Peng, A. Petrone, 
 T. Henderson, D. Ranasinghe, V. G. Zakrzewski, J. Gao, N. Rega, 
 G. Zheng, W. Liang, M. Hada, M. Ehara, K. Toyota, R. Fukuda, 
 J. Hasegawa, M. Ishida, T. Nakajima, Y. Honda, O. Kitao, H. Nakai, 
 T. Vreven, K. Throssell, J. A. Montgomery, Jr., J. E. Peralta, 
 F. Ogliaro, M. J. Bearpark, J. J. Heyd, E. N. Brothers, K. N. Kudin, 
 V. N. Staroverov, T. A. Keith, R. Kobayashi, J. Normand, 
 K. Raghavachari, A. P. Rendell, J. C. Burant, S. S. Iyengar, 
 J. Tomasi, M. Cossi, J. M. Millam, M. Klene, C. Adamo, R. Cammi, 
 J. W. Ochterski, R. L. Martin, K. Morokuma, O. Farkas, 
 J. B. Foresman, and D. J. Fox, Gaussian, Inc., Wallingford CT, 2019.
 
 ******************************************
 Gaussian 16:  ES64L-G16RevC.01  3-Jul-2019
                10-Dec-2022 
 ******************************************
 %nprocshared=46
 Will use up to   46 processors via shared memory.
 %mem=100GB
 -----------------------------------------------------------
 # opt=(calcfc,ts,noeigen) freq b3lyp/gen nosymm pseudo=read
 -----------------------------------------------------------
 1/5=1,10=4,11=1,18=20,26=3,38=1/1,3;
 2/9=110,12=2,15=1,17=6,18=5,40=1/2;
 3/5=7,11=2,16=1,17=8,25=1,30=1,71=2,74=-5,140=1/1,2,3;
 4//1;
 5/5=2,38=5/2;
 8/6=4,10=90,11=11/1;
 11/6=1,8=1,9=11,15=111,16=1,31=1/1,2,10;
 10/6=1,13=1,31=1/2;
 6/7=2,8=2,9=2,10=2,28=1/1;
 7/10=1,25=1,30=1/1,2,3,16;
 1/5=1,10=4,11=1,18=20,26=3/3(2);
 2/9=110,15=1/2;
 99//99;
 2/9=110,15=1/2;
 3/5=7,6=1,11=2,16=1,17=8,25=1,30=1,71=1,74=-5,82=7/1,2,3;
 4/5=5,16=3,69=1/1;
 5/5=2,38=5/2;
 7/30=1/1,2,3,16;
 1/5=1,11=1,18=20,26=3/3(-5);
 2/9=110,15=1/2;
 6/7=2,8=2,9=2,10=2,19=2,28=1/1;
 99/9=1/99;
 -------------------
 Title Card Required
 -------------------
 Symbolic Z-matrix:
 Charge =  0 Multiplicity = 1
 42                    0.3014    2.39679   12.27643 
 16                    1.23971   4.2584    11.69191 
 16                   -1.68532   2.90113   13.2811 
 16                   -0.40485   1.34818   10.24633 
 16                    1.98346   0.31383   11.94543 
 42                   -2.1802    2.78508   10.94154 
 16                   -3.26812   1.65412   8.97485 
 16                   -1.5825    4.96711   10.35027 
 42                    0.21735   3.58089   9.41018 
 16                   -0.64462   2.66112   7.25 
 16                    2.51414   2.47753   8.98105 
 42                    3.59742   1.59083   10.74272 
 42                   -2.4246    3.91046   8.40388 
 16                    4.48916   3.00151   12.38199 
 16                    5.12598   0.28953   10.10803 
 16                   -4.64295   4.96188   8.56005 
 16                   -1.88989   6.09062   7.21446 
 42                   -4.95767   3.04445   9.69623 
 16                   -6.88926   2.23821   9.35015 
 16                   -4.47889   3.39998   11.84591 
 42                    3.16816   1.50387   13.56685 
 16                    4.33413   0.19552   14.74126 
 16                    1.28591   2.33242   14.55873 
 42                   -0.06579   4.87968   7.0242 
 16                    1.564     5.2781    5.39699 
 1                     2.54517   5.22845   6.83403 
 16                    1.41143   5.70191   8.70189 
 1                     2.53067   5.28161   7.48821 
 
 Add virtual bond connecting atoms H26        and S25        Dist= 3.29D+00.
 Add virtual bond connecting atoms H28        and S27        Dist= 3.22D+00.

 GradGradGradGradGradGradGradGradGradGradGradGradGradGradGradGradGradGrad
 Berny optimization.
 Initialization pass.
                           ----------------------------
                           !    Initial Parameters    !
                           ! (Angstroms and Degrees)  !
 --------------------------                            --------------------------
 ! Name  Definition              Value          Derivative Info.                !
 --------------------------------------------------------------------------------
 ! R1    R(1,2)                  2.1651         calculate D2E/DX2 analytically  !
 ! R2    R(1,3)                  2.2827         calculate D2E/DX2 analytically  !
 ! R3    R(1,4)                  2.3916         calculate D2E/DX2 analytically  !
 ! R4    R(1,5)                  2.6977         calculate D2E/DX2 analytically  !
 ! R5    R(1,6)                  2.8445         calculate D2E/DX2 analytically  !
 ! R6    R(1,9)                  3.1024         calculate D2E/DX2 analytically  !
 ! R7    R(1,23)                 2.4864         calculate D2E/DX2 analytically  !
 ! R8    R(2,9)                  2.5905         calculate D2E/DX2 analytically  !
 ! R9    R(3,6)                  2.3941         calculate D2E/DX2 analytically  !
 ! R10   R(4,6)                  2.3874         calculate D2E/DX2 analytically  !
 ! R11   R(4,9)                  2.464          calculate D2E/DX2 analytically  !
 ! R12   R(5,12)                 2.3837         calculate D2E/DX2 analytically  !
 ! R13   R(5,21)                 2.3343         calculate D2E/DX2 analytically  !
 ! R14   R(6,7)                  2.516          calculate D2E/DX2 analytically  !
 ! R15   R(6,8)                  2.3384         calculate D2E/DX2 analytically  !
 ! R16   R(6,9)                  2.9541         calculate D2E/DX2 analytically  !
 ! R17   R(6,13)                 2.7867         calculate D2E/DX2 analytically  !
 ! R18   R(6,18)                 3.0549         calculate D2E/DX2 analytically  !
 ! R19   R(6,20)                 2.5456         calculate D2E/DX2 analytically  !
 ! R20   R(7,13)                 2.4756         calculate D2E/DX2 analytically  !
 ! R21   R(7,18)                 2.3039         calculate D2E/DX2 analytically  !
 ! R22   R(8,9)                  2.4586         calculate D2E/DX2 analytically  !
 ! R23   R(8,13)                 2.3694         calculate D2E/DX2 analytically  !
 ! R24   R(9,10)                 2.5011         calculate D2E/DX2 analytically  !
 ! R25   R(9,11)                 2.5839         calculate D2E/DX2 analytically  !
 ! R26   R(9,13)                 2.8462         calculate D2E/DX2 analytically  !
 ! R27   R(9,24)                 2.7313         calculate D2E/DX2 analytically  !
 ! R28   R(9,27)                 2.535          calculate D2E/DX2 analytically  !
 ! R29   R(10,13)                2.4618         calculate D2E/DX2 analytically  !
 ! R30   R(10,24)                2.3039         calculate D2E/DX2 analytically  !
 ! R31   R(11,12)                2.2502         calculate D2E/DX2 analytically  !
 ! R32   R(12,14)                2.3393         calculate D2E/DX2 analytically  !
 ! R33   R(12,15)                2.1054         calculate D2E/DX2 analytically  !
 ! R34   R(12,21)                2.8579         calculate D2E/DX2 analytically  !
 ! R35   R(13,16)                2.4599         calculate D2E/DX2 analytically  !
 ! R36   R(13,17)                2.5404         calculate D2E/DX2 analytically  !
 ! R37   R(13,18)                2.9726         calculate D2E/DX2 analytically  !
 ! R38   R(13,24)                2.8995         calculate D2E/DX2 analytically  !
 ! R39   R(14,21)                2.322          calculate D2E/DX2 analytically  !
 ! R40   R(16,18)                2.2509         calculate D2E/DX2 analytically  !
 ! R41   R(17,24)                2.1977         calculate D2E/DX2 analytically  !
 ! R42   R(18,19)                2.1215         calculate D2E/DX2 analytically  !
 ! R43   R(18,20)                2.2309         calculate D2E/DX2 analytically  !
 ! R44   R(21,22)                2.1096         calculate D2E/DX2 analytically  !
 ! R45   R(21,23)                2.2832         calculate D2E/DX2 analytically  !
 ! R46   R(24,25)                2.3373         calculate D2E/DX2 analytically  !
 ! R47   R(24,27)                2.3818         calculate D2E/DX2 analytically  !
 ! R48   R(25,26)                1.7408         calculate D2E/DX2 analytically  !
 ! R49   R(26,28)                0.6565         calculate D2E/DX2 analytically  !
 ! R50   R(27,28)                1.7036         calculate D2E/DX2 analytically  !
 ! A1    A(2,1,3)              107.8202         calculate D2E/DX2 analytically  !
 ! A2    A(2,1,4)              106.0099         calculate D2E/DX2 analytically  !
 ! A3    A(2,1,5)              111.1337         calculate D2E/DX2 analytically  !
 ! A4    A(2,1,6)               97.7018         calculate D2E/DX2 analytically  !
 ! A5    A(2,1,23)              95.6512         calculate D2E/DX2 analytically  !
 ! A6    A(3,1,4)              102.3251         calculate D2E/DX2 analytically  !
 ! A7    A(3,1,5)              140.1089         calculate D2E/DX2 analytically  !
 ! A8    A(3,1,9)              107.3805         calculate D2E/DX2 analytically  !
 ! A9    A(3,1,23)              86.9243         calculate D2E/DX2 analytically  !
 ! A10   A(4,1,5)               75.0149         calculate D2E/DX2 analytically  !
 ! A11   A(4,1,23)             152.2199         calculate D2E/DX2 analytically  !
 ! A12   A(5,1,6)              126.2843         calculate D2E/DX2 analytically  !
 ! A13   A(5,1,9)              101.4337         calculate D2E/DX2 analytically  !
 ! A14   A(5,1,23)              81.1269         calculate D2E/DX2 analytically  !
 ! A15   A(6,1,23)             141.237          calculate D2E/DX2 analytically  !
 ! A16   A(9,1,23)             150.303          calculate D2E/DX2 analytically  !
 ! A17   A(1,5,12)              94.0392         calculate D2E/DX2 analytically  !
 ! A18   A(1,5,21)              80.6527         calculate D2E/DX2 analytically  !
 ! A19   A(1,6,7)              133.0545         calculate D2E/DX2 analytically  !
 ! A20   A(1,6,8)               91.3207         calculate D2E/DX2 analytically  !
 ! A21   A(1,6,13)             123.9857         calculate D2E/DX2 analytically  !
 ! A22   A(1,6,20)             130.8485         calculate D2E/DX2 analytically  !
 ! A23   A(3,6,4)               99.2081         calculate D2E/DX2 analytically  !
 ! A24   A(3,6,7)              151.0454         calculate D2E/DX2 analytically  !
 ! A25   A(3,6,8)               98.5703         calculate D2E/DX2 analytically  !
 ! A26   A(3,6,9)              109.0108         calculate D2E/DX2 analytically  !
 ! A27   A(3,6,13)             152.6745         calculate D2E/DX2 analytically  !
 ! A28   A(3,6,18)             125.6033         calculate D2E/DX2 analytically  !
 ! A29   A(3,6,20)              80.083          calculate D2E/DX2 analytically  !
 ! A30   A(4,6,7)               79.8272         calculate D2E/DX2 analytically  !
 ! A31   A(4,6,8)              107.3321         calculate D2E/DX2 analytically  !
 ! A32   A(4,6,13)              92.4698         calculate D2E/DX2 analytically  !
 ! A33   A(4,6,18)             127.4798         calculate D2E/DX2 analytically  !
 ! A34   A(4,6,20)             156.9751         calculate D2E/DX2 analytically  !
 ! A35   A(7,6,8)              109.4094         calculate D2E/DX2 analytically  !
 ! A36   A(7,6,9)               93.8313         calculate D2E/DX2 analytically  !
 ! A37   A(7,6,20)              89.7609         calculate D2E/DX2 analytically  !
 ! A38   A(8,6,18)              92.8714         calculate D2E/DX2 analytically  !
 ! A39   A(8,6,20)              95.4653         calculate D2E/DX2 analytically  !
 ! A40   A(9,6,18)             120.2458         calculate D2E/DX2 analytically  !
 ! A41   A(9,6,20)             148.4282         calculate D2E/DX2 analytically  !
 ! A42   A(13,6,20)             98.4402         calculate D2E/DX2 analytically  !
 ! A43   A(1,9,8)               83.2098         calculate D2E/DX2 analytically  !
 ! A44   A(1,9,10)             131.8318         calculate D2E/DX2 analytically  !
 ! A45   A(1,9,11)              88.073          calculate D2E/DX2 analytically  !
 ! A46   A(1,9,13)             113.3276         calculate D2E/DX2 analytically  !
 ! A47   A(1,9,27)             124.3835         calculate D2E/DX2 analytically  !
 ! A48   A(2,9,4)               92.1632         calculate D2E/DX2 analytically  !
 ! A49   A(2,9,6)               86.2249         calculate D2E/DX2 analytically  !
 ! A50   A(2,9,8)               78.7353         calculate D2E/DX2 analytically  !
 ! A51   A(2,9,11)              84.6729         calculate D2E/DX2 analytically  !
 ! A52   A(2,9,13)             130.3507         calculate D2E/DX2 analytically  !
 ! A53   A(2,9,24)             133.3146         calculate D2E/DX2 analytically  !
 ! A54   A(2,9,27)              80.8731         calculate D2E/DX2 analytically  !
 ! A55   A(4,9,8)              101.32           calculate D2E/DX2 analytically  !
 ! A56   A(4,9,10)              82.6942         calculate D2E/DX2 analytically  !
 ! A57   A(4,9,11)              83.9085         calculate D2E/DX2 analytically  !
 ! A58   A(4,9,13)              89.4561         calculate D2E/DX2 analytically  !
 ! A59   A(4,9,24)             134.5197         calculate D2E/DX2 analytically  !
 ! A60   A(6,9,10)              93.9539         calculate D2E/DX2 analytically  !
 ! A61   A(6,9,11)             133.8257         calculate D2E/DX2 analytically  !
 ! A62   A(6,9,24)             119.7897         calculate D2E/DX2 analytically  !
 ! A63   A(6,9,27)             138.8104         calculate D2E/DX2 analytically  !
 ! A64   A(8,9,10)             106.5768         calculate D2E/DX2 analytically  !
 ! A65   A(8,9,11)             162.7375         calculate D2E/DX2 analytically  !
 ! A66   A(8,9,24)              89.4285         calculate D2E/DX2 analytically  !
 ! A67   A(8,9,27)              88.849          calculate D2E/DX2 analytically  !
 ! A68   A(10,9,11)             90.3362         calculate D2E/DX2 analytically  !
 ! A69   A(10,9,27)            103.2211         calculate D2E/DX2 analytically  !
 ! A70   A(11,9,13)            144.6657         calculate D2E/DX2 analytically  !
 ! A71   A(11,9,24)             98.6338         calculate D2E/DX2 analytically  !
 ! A72   A(11,9,27)             83.8106         calculate D2E/DX2 analytically  !
 ! A73   A(13,9,27)            103.9787         calculate D2E/DX2 analytically  !
 ! A74   A(9,11,12)            117.7858         calculate D2E/DX2 analytically  !
 ! A75   A(5,12,11)            106.2699         calculate D2E/DX2 analytically  !
 ! A76   A(5,12,14)            103.1553         calculate D2E/DX2 analytically  !
 ! A77   A(5,12,15)            108.2136         calculate D2E/DX2 analytically  !
 ! A78   A(11,12,14)           119.6372         calculate D2E/DX2 analytically  !
 ! A79   A(11,12,15)           110.9202         calculate D2E/DX2 analytically  !
 ! A80   A(11,12,21)           135.5073         calculate D2E/DX2 analytically  !
 ! A81   A(14,12,15)           107.8911         calculate D2E/DX2 analytically  !
 ! A82   A(15,12,21)           112.839          calculate D2E/DX2 analytically  !
 ! A83   A(6,13,10)             99.1182         calculate D2E/DX2 analytically  !
 ! A84   A(6,13,16)            101.1797         calculate D2E/DX2 analytically  !
 ! A85   A(6,13,17)            138.9779         calculate D2E/DX2 analytically  !
 ! A86   A(6,13,24)            119.7988         calculate D2E/DX2 analytically  !
 ! A87   A(7,13,8)             109.7609         calculate D2E/DX2 analytically  !
 ! A88   A(7,13,9)              97.4233         calculate D2E/DX2 analytically  !
 ! A89   A(7,13,10)             83.7959         calculate D2E/DX2 analytically  !
 ! A90   A(7,13,16)             93.8789         calculate D2E/DX2 analytically  !
 ! A91   A(7,13,17)            164.1295         calculate D2E/DX2 analytically  !
 ! A92   A(7,13,24)            133.7583         calculate D2E/DX2 analytically  !
 ! A93   A(8,13,10)            110.7553         calculate D2E/DX2 analytically  !
 ! A94   A(8,13,16)             94.459          calculate D2E/DX2 analytically  !
 ! A95   A(8,13,17)             85.8187         calculate D2E/DX2 analytically  !
 ! A96   A(8,13,18)             94.338          calculate D2E/DX2 analytically  !
 ! A97   A(8,13,24)             87.2877         calculate D2E/DX2 analytically  !
 ! A98   A(9,13,16)            149.7837         calculate D2E/DX2 analytically  !
 ! A99   A(9,13,17)             93.9871         calculate D2E/DX2 analytically  !
 ! A100  A(9,13,18)            127.1228         calculate D2E/DX2 analytically  !
 ! A101  A(10,13,16)           153.9889         calculate D2E/DX2 analytically  !
 ! A102  A(10,13,17)            93.6628         calculate D2E/DX2 analytically  !
 ! A103  A(10,13,18)           132.2249         calculate D2E/DX2 analytically  !
 ! A104  A(16,13,17)            81.5308         calculate D2E/DX2 analytically  !
 ! A105  A(16,13,24)           128.3882         calculate D2E/DX2 analytically  !
 ! A106  A(17,13,18)           129.2656         calculate D2E/DX2 analytically  !
 ! A107  A(6,18,16)             98.683          calculate D2E/DX2 analytically  !
 ! A108  A(6,18,19)            149.5449         calculate D2E/DX2 analytically  !
 ! A109  A(7,18,16)            104.6833         calculate D2E/DX2 analytically  !
 ! A110  A(7,18,19)            112.7853         calculate D2E/DX2 analytically  !
 ! A111  A(7,18,20)            103.9162         calculate D2E/DX2 analytically  !
 ! A112  A(13,18,19)           144.65           calculate D2E/DX2 analytically  !
 ! A113  A(13,18,20)           100.9303         calculate D2E/DX2 analytically  !
 ! A114  A(16,18,19)           111.6347         calculate D2E/DX2 analytically  !
 ! A115  A(16,18,20)           108.7013         calculate D2E/DX2 analytically  !
 ! A116  A(19,18,20)           114.4039         calculate D2E/DX2 analytically  !
 ! A117  A(5,21,14)            105.2542         calculate D2E/DX2 analytically  !
 ! A118  A(5,21,22)            110.5494         calculate D2E/DX2 analytically  !
 ! A119  A(5,21,23)             93.9199         calculate D2E/DX2 analytically  !
 ! A120  A(12,21,22)           119.0759         calculate D2E/DX2 analytically  !
 ! A121  A(12,21,23)           122.8244         calculate D2E/DX2 analytically  !
 ! A122  A(14,21,22)           111.693          calculate D2E/DX2 analytically  !
 ! A123  A(14,21,23)           117.1686         calculate D2E/DX2 analytically  !
 ! A124  A(22,21,23)           116.0302         calculate D2E/DX2 analytically  !
 ! A125  A(1,23,21)             86.3913         calculate D2E/DX2 analytically  !
 ! A126  A(9,24,17)            105.8088         calculate D2E/DX2 analytically  !
 ! A127  A(9,24,25)            128.0945         calculate D2E/DX2 analytically  !
 ! A128  A(10,24,17)           108.2747         calculate D2E/DX2 analytically  !
 ! A129  A(10,24,25)           114.0523         calculate D2E/DX2 analytically  !
 ! A130  A(10,24,27)           114.785          calculate D2E/DX2 analytically  !
 ! A131  A(13,24,25)           162.8524         calculate D2E/DX2 analytically  !
 ! A132  A(13,24,27)           106.5462         calculate D2E/DX2 analytically  !
 ! A133  A(17,24,25)           123.0325         calculate D2E/DX2 analytically  !
 ! A134  A(17,24,27)           105.283          calculate D2E/DX2 analytically  !
 ! A135  A(25,24,27)            89.9466         calculate D2E/DX2 analytically  !
 ! A136  A(24,25,26)            79.2478         calculate D2E/DX2 analytically  !
 ! A137  A(25,26,28)           143.8862         calculate D2E/DX2 analytically  !
 ! A138  A(9,27,28)            107.5831         calculate D2E/DX2 analytically  !
 ! A139  A(24,27,28)            79.6588         calculate D2E/DX2 analytically  !
 ! A140  A(26,28,27)           138.1063         calculate D2E/DX2 analytically  !
 ! A141  L(1,6,18,8,-1)        184.192          calculate D2E/DX2 analytically  !
 ! A142  L(1,9,24,8,-1)        172.6383         calculate D2E/DX2 analytically  !
 ! A143  L(2,9,10,4,-1)        174.8574         calculate D2E/DX2 analytically  !
 ! A144  L(4,9,27,2,-1)        173.0362         calculate D2E/DX2 analytically  !
 ! A145  L(18,13,24,8,-1)      181.6257         calculate D2E/DX2 analytically  !
 ! A146  L(1,6,18,8,-2)        182.8469         calculate D2E/DX2 analytically  !
 ! A147  L(1,9,24,8,-2)        178.4607         calculate D2E/DX2 analytically  !
 ! A148  L(2,9,10,4,-2)        184.4684         calculate D2E/DX2 analytically  !
 ! A149  L(4,9,27,2,-2)        168.241          calculate D2E/DX2 analytically  !
 ! A150  L(18,13,24,8,-2)      183.7293         calculate D2E/DX2 analytically  !
 ! D1    D(2,1,5,12)           -10.219          calculate D2E/DX2 analytically  !
 ! D2    D(2,1,5,21)            63.3919         calculate D2E/DX2 analytically  !
 ! D3    D(3,1,5,12)          -177.1343         calculate D2E/DX2 analytically  !
 ! D4    D(3,1,5,21)          -103.5235         calculate D2E/DX2 analytically  !
 ! D5    D(4,1,5,12)            91.472          calculate D2E/DX2 analytically  !
 ! D6    D(4,1,5,21)           165.0829         calculate D2E/DX2 analytically  !
 ! D7    D(6,1,5,12)           107.299          calculate D2E/DX2 analytically  !
 ! D8    D(6,1,5,21)          -179.0901         calculate D2E/DX2 analytically  !
 ! D9    D(9,1,5,12)            47.0446         calculate D2E/DX2 analytically  !
 ! D10   D(9,1,5,21)           120.6554         calculate D2E/DX2 analytically  !
 ! D11   D(23,1,5,12)         -102.8846         calculate D2E/DX2 analytically  !
 ! D12   D(23,1,5,21)          -29.2737         calculate D2E/DX2 analytically  !
 ! D13   D(2,1,6,7)            112.0085         calculate D2E/DX2 analytically  !
 ! D14   D(2,1,6,8)             -6.4453         calculate D2E/DX2 analytically  !
 ! D15   D(2,1,6,13)            39.9436         calculate D2E/DX2 analytically  !
 ! D16   D(2,1,6,20)          -104.8333         calculate D2E/DX2 analytically  !
 ! D17   D(5,1,6,7)            -11.402          calculate D2E/DX2 analytically  !
 ! D18   D(5,1,6,8)           -129.8558         calculate D2E/DX2 analytically  !
 ! D19   D(5,1,6,13)           -83.4669         calculate D2E/DX2 analytically  !
 ! D20   D(5,1,6,20)           131.7562         calculate D2E/DX2 analytically  !
 ! D21   D(23,1,6,7)          -138.8965         calculate D2E/DX2 analytically  !
 ! D22   D(23,1,6,8)           102.6497         calculate D2E/DX2 analytically  !
 ! D23   D(23,1,6,13)          149.0386         calculate D2E/DX2 analytically  !
 ! D24   D(23,1,6,20)            4.2617         calculate D2E/DX2 analytically  !
 ! D25   D(3,1,9,8)             19.2488         calculate D2E/DX2 analytically  !
 ! D26   D(3,1,9,10)           -86.9533         calculate D2E/DX2 analytically  !
 ! D27   D(3,1,9,11)          -175.6791         calculate D2E/DX2 analytically  !
 ! D28   D(3,1,9,13)           -24.7041         calculate D2E/DX2 analytically  !
 ! D29   D(3,1,9,27)           103.1646         calculate D2E/DX2 analytically  !
 ! D30   D(5,1,9,8)            171.323          calculate D2E/DX2 analytically  !
 ! D31   D(5,1,9,10)            65.121          calculate D2E/DX2 analytically  !
 ! D32   D(5,1,9,11)           -23.6049         calculate D2E/DX2 analytically  !
 ! D33   D(5,1,9,13)           127.3701         calculate D2E/DX2 analytically  !
 ! D34   D(5,1,9,27)          -104.7612         calculate D2E/DX2 analytically  !
 ! D35   D(23,1,9,8)           -96.5584         calculate D2E/DX2 analytically  !
 ! D36   D(23,1,9,10)          157.2396         calculate D2E/DX2 analytically  !
 ! D37   D(23,1,9,11)           68.5138         calculate D2E/DX2 analytically  !
 ! D38   D(23,1,9,13)         -140.5113         calculate D2E/DX2 analytically  !
 ! D39   D(23,1,9,27)          -12.6426         calculate D2E/DX2 analytically  !
 ! D40   D(2,1,23,21)          -80.9433         calculate D2E/DX2 analytically  !
 ! D41   D(3,1,23,21)          171.4398         calculate D2E/DX2 analytically  !
 ! D42   D(4,1,23,21)           60.5452         calculate D2E/DX2 analytically  !
 ! D43   D(5,1,23,21)           29.6203         calculate D2E/DX2 analytically  !
 ! D44   D(6,1,23,21)          169.2814         calculate D2E/DX2 analytically  !
 ! D45   D(9,1,23,21)          -67.9217         calculate D2E/DX2 analytically  !
 ! D46   D(1,4,6,9)             83.2635         calculate D2E/DX2 analytically  !
 ! D47   D(1,5,12,11)          -56.5292         calculate D2E/DX2 analytically  !
 ! D48   D(1,5,12,14)           70.1428         calculate D2E/DX2 analytically  !
 ! D49   D(1,5,12,15)         -175.7131         calculate D2E/DX2 analytically  !
 ! D50   D(1,5,21,14)          -87.7163         calculate D2E/DX2 analytically  !
 ! D51   D(1,5,21,22)          151.5266         calculate D2E/DX2 analytically  !
 ! D52   D(1,5,21,23)           31.827          calculate D2E/DX2 analytically  !
 ! D53   D(3,6,9,2)             -8.2908         calculate D2E/DX2 analytically  !
 ! D54   D(3,6,9,10)           164.8943         calculate D2E/DX2 analytically  !
 ! D55   D(3,6,9,11)            70.6221         calculate D2E/DX2 analytically  !
 ! D56   D(3,6,9,24)          -147.2642         calculate D2E/DX2 analytically  !
 ! D57   D(3,6,9,27)           -79.8219         calculate D2E/DX2 analytically  !
 ! D58   D(7,6,9,2)           -170.2116         calculate D2E/DX2 analytically  !
 ! D59   D(7,6,9,10)             2.9734         calculate D2E/DX2 analytically  !
 ! D60   D(7,6,9,11)           -91.2987         calculate D2E/DX2 analytically  !
 ! D61   D(7,6,9,24)            50.815          calculate D2E/DX2 analytically  !
 ! D62   D(7,6,9,27)           118.2572         calculate D2E/DX2 analytically  !
 ! D63   D(18,6,9,2)           147.728          calculate D2E/DX2 analytically  !
 ! D64   D(18,6,9,10)          -39.0869         calculate D2E/DX2 analytically  !
 ! D65   D(18,6,9,11)         -133.359          calculate D2E/DX2 analytically  !
 ! D66   D(18,6,9,24)            8.7546         calculate D2E/DX2 analytically  !
 ! D67   D(18,6,9,27)           76.1969         calculate D2E/DX2 analytically  !
 ! D68   D(20,6,9,2)            93.9923         calculate D2E/DX2 analytically  !
 ! D69   D(20,6,9,10)          -92.8226         calculate D2E/DX2 analytically  !
 ! D70   D(20,6,9,11)          172.9053         calculate D2E/DX2 analytically  !
 ! D71   D(20,6,9,24)          -44.9811         calculate D2E/DX2 analytically  !
 ! D72   D(20,6,9,27)           22.4612         calculate D2E/DX2 analytically  !
 ! D73   D(1,6,13,10)           46.0028         calculate D2E/DX2 analytically  !
 ! D74   D(1,6,13,16)         -150.3517         calculate D2E/DX2 analytically  !
 ! D75   D(1,6,13,17)          -60.4405         calculate D2E/DX2 analytically  !
 ! D76   D(1,6,13,24)           -2.9327         calculate D2E/DX2 analytically  !
 ! D77   D(3,6,13,10)          115.1158         calculate D2E/DX2 analytically  !
 ! D78   D(3,6,13,16)          -81.2387         calculate D2E/DX2 analytically  !
 ! D79   D(3,6,13,17)            8.6725         calculate D2E/DX2 analytically  !
 ! D80   D(3,6,13,24)           66.1803         calculate D2E/DX2 analytically  !
 ! D81   D(4,6,13,10)           -0.5039         calculate D2E/DX2 analytically  !
 ! D82   D(4,6,13,16)          163.1416         calculate D2E/DX2 analytically  !
 ! D83   D(4,6,13,17)         -106.9472         calculate D2E/DX2 analytically  !
 ! D84   D(4,6,13,24)          -49.4394         calculate D2E/DX2 analytically  !
 ! D85   D(20,6,13,10)        -160.1689         calculate D2E/DX2 analytically  !
 ! D86   D(20,6,13,16)           3.4766         calculate D2E/DX2 analytically  !
 ! D87   D(20,6,13,17)          93.3877         calculate D2E/DX2 analytically  !
 ! D88   D(20,6,13,24)         150.8956         calculate D2E/DX2 analytically  !
 ! D89   D(3,6,18,16)          114.6469         calculate D2E/DX2 analytically  !
 ! D90   D(3,6,18,19)          -70.759          calculate D2E/DX2 analytically  !
 ! D91   D(4,6,18,16)         -102.5061         calculate D2E/DX2 analytically  !
 ! D92   D(4,6,18,19)           72.088          calculate D2E/DX2 analytically  !
 ! D93   D(8,6,18,16)           11.9714         calculate D2E/DX2 analytically  !
 ! D94   D(8,6,18,19)         -173.4345         calculate D2E/DX2 analytically  !
 ! D95   D(9,6,18,16)          -37.1489         calculate D2E/DX2 analytically  !
 ! D96   D(9,6,18,19)          137.4452         calculate D2E/DX2 analytically  !
 ! D97   D(6,7,13,18)          -82.7998         calculate D2E/DX2 analytically  !
 ! D98   D(6,8,9,13)            75.8866         calculate D2E/DX2 analytically  !
 ! D99   D(1,9,11,12)           -9.8733         calculate D2E/DX2 analytically  !
 ! D100  D(2,9,11,12)           33.6519         calculate D2E/DX2 analytically  !
 ! D101  D(4,9,11,12)          -59.1037         calculate D2E/DX2 analytically  !
 ! D102  D(6,9,11,12)          -45.911          calculate D2E/DX2 analytically  !
 ! D103  D(8,9,11,12)           49.6675         calculate D2E/DX2 analytically  !
 ! D104  D(10,9,11,12)        -141.7199         calculate D2E/DX2 analytically  !
 ! D105  D(13,9,11,12)        -139.4878         calculate D2E/DX2 analytically  !
 ! D106  D(24,9,11,12)         166.7083         calculate D2E/DX2 analytically  !
 ! D107  D(27,9,11,12)         115.0173         calculate D2E/DX2 analytically  !
 ! D108  D(1,9,13,7)           -48.5388         calculate D2E/DX2 analytically  !
 ! D109  D(1,9,13,16)           62.5168         calculate D2E/DX2 analytically  !
 ! D110  D(1,9,13,17)          142.5152         calculate D2E/DX2 analytically  !
 ! D111  D(1,9,13,18)           -5.5297         calculate D2E/DX2 analytically  !
 ! D112  D(2,9,13,7)           -96.5378         calculate D2E/DX2 analytically  !
 ! D113  D(2,9,13,16)           14.5177         calculate D2E/DX2 analytically  !
 ! D114  D(2,9,13,17)           94.5162         calculate D2E/DX2 analytically  !
 ! D115  D(2,9,13,18)          -53.5287         calculate D2E/DX2 analytically  !
 ! D116  D(4,9,13,7)            -4.1614         calculate D2E/DX2 analytically  !
 ! D117  D(4,9,13,16)          106.8942         calculate D2E/DX2 analytically  !
 ! D118  D(4,9,13,17)         -173.1074         calculate D2E/DX2 analytically  !
 ! D119  D(4,9,13,18)           38.8477         calculate D2E/DX2 analytically  !
 ! D120  D(11,9,13,7)           74.4839         calculate D2E/DX2 analytically  !
 ! D121  D(11,9,13,16)        -174.4606         calculate D2E/DX2 analytically  !
 ! D122  D(11,9,13,17)         -94.4622         calculate D2E/DX2 analytically  !
 ! D123  D(11,9,13,18)         117.4929         calculate D2E/DX2 analytically  !
 ! D124  D(27,9,13,7)          173.6342         calculate D2E/DX2 analytically  !
 ! D125  D(27,9,13,16)         -75.3103         calculate D2E/DX2 analytically  !
 ! D126  D(27,9,13,17)           4.6881         calculate D2E/DX2 analytically  !
 ! D127  D(27,9,13,18)        -143.3567         calculate D2E/DX2 analytically  !
 ! D128  D(2,9,24,17)          -83.4648         calculate D2E/DX2 analytically  !
 ! D129  D(2,9,24,25)           76.8994         calculate D2E/DX2 analytically  !
 ! D130  D(4,9,24,17)           95.7975         calculate D2E/DX2 analytically  !
 ! D131  D(4,9,24,25)         -103.8383         calculate D2E/DX2 analytically  !
 ! D132  D(6,9,24,17)           32.3506         calculate D2E/DX2 analytically  !
 ! D133  D(6,9,24,25)         -167.2853         calculate D2E/DX2 analytically  !
 ! D134  D(8,9,24,17)           -9.5992         calculate D2E/DX2 analytically  !
 ! D135  D(8,9,24,25)          150.7649         calculate D2E/DX2 analytically  !
 ! D136  D(11,9,24,17)        -174.2725         calculate D2E/DX2 analytically  !
 ! D137  D(11,9,24,25)         -13.9083         calculate D2E/DX2 analytically  !
 ! D138  D(1,9,27,28)          118.5197         calculate D2E/DX2 analytically  !
 ! D139  D(2,9,27,28)          120.7092         calculate D2E/DX2 analytically  !
 ! D140  D(6,9,27,28)         -165.8403         calculate D2E/DX2 analytically  !
 ! D141  D(8,9,27,28)         -160.5156         calculate D2E/DX2 analytically  !
 ! D142  D(10,9,27,28)         -53.753          calculate D2E/DX2 analytically  !
 ! D143  D(11,9,27,28)          35.1345         calculate D2E/DX2 analytically  !
 ! D144  D(13,9,27,28)        -109.8124         calculate D2E/DX2 analytically  !
 ! D145  D(9,10,13,24)          72.8998         calculate D2E/DX2 analytically  !
 ! D146  D(9,11,12,5)           46.2319         calculate D2E/DX2 analytically  !
 ! D147  D(9,11,12,14)         -69.7964         calculate D2E/DX2 analytically  !
 ! D148  D(9,11,12,15)         163.6282         calculate D2E/DX2 analytically  !
 ! D149  D(9,11,12,21)          -5.4919         calculate D2E/DX2 analytically  !
 ! D150  D(11,12,21,22)        168.242          calculate D2E/DX2 analytically  !
 ! D151  D(11,12,21,23)          5.2608         calculate D2E/DX2 analytically  !
 ! D152  D(15,12,21,22)         -0.729          calculate D2E/DX2 analytically  !
 ! D153  D(15,12,21,23)       -163.7102         calculate D2E/DX2 analytically  !
 ! D154  D(8,13,18,19)         168.5244         calculate D2E/DX2 analytically  !
 ! D155  D(8,13,18,20)         -13.1781         calculate D2E/DX2 analytically  !
 ! D156  D(9,13,18,19)        -142.6126         calculate D2E/DX2 analytically  !
 ! D157  D(9,13,18,20)          35.6849         calculate D2E/DX2 analytically  !
 ! D158  D(10,13,18,19)        -68.1926         calculate D2E/DX2 analytically  !
 ! D159  D(10,13,18,20)        110.1049         calculate D2E/DX2 analytically  !
 ! D160  D(17,13,18,19)         80.383          calculate D2E/DX2 analytically  !
 ! D161  D(17,13,18,20)       -101.3195         calculate D2E/DX2 analytically  !
 ! D162  D(6,13,24,25)         130.6877         calculate D2E/DX2 analytically  !
 ! D163  D(6,13,24,27)         -32.9625         calculate D2E/DX2 analytically  !
 ! D164  D(7,13,24,25)          59.7312         calculate D2E/DX2 analytically  !
 ! D165  D(7,13,24,27)        -103.919          calculate D2E/DX2 analytically  !
 ! D166  D(8,13,24,25)         174.7723         calculate D2E/DX2 analytically  !
 ! D167  D(8,13,24,27)          11.1221         calculate D2E/DX2 analytically  !
 ! D168  D(16,13,24,25)        -91.6865         calculate D2E/DX2 analytically  !
 ! D169  D(16,13,24,27)        104.6633         calculate D2E/DX2 analytically  !
 ! D170  D(5,21,23,1)          -34.4504         calculate D2E/DX2 analytically  !
 ! D171  D(12,21,23,1)          13.8579         calculate D2E/DX2 analytically  !
 ! D172  D(14,21,23,1)          74.915          calculate D2E/DX2 analytically  !
 ! D173  D(22,21,23,1)        -149.6025         calculate D2E/DX2 analytically  !
 ! D174  D(9,24,25,26)         -28.722          calculate D2E/DX2 analytically  !
 ! D175  D(10,24,25,26)        -96.9962         calculate D2E/DX2 analytically  !
 ! D176  D(13,24,25,26)       -144.0407         calculate D2E/DX2 analytically  !
 ! D177  D(17,24,25,26)        128.5927         calculate D2E/DX2 analytically  !
 ! D178  D(27,24,25,26)         20.3043         calculate D2E/DX2 analytically  !
 ! D179  D(10,24,27,28)         94.66           calculate D2E/DX2 analytically  !
 ! D180  D(13,24,27,28)        153.2522         calculate D2E/DX2 analytically  !
 ! D181  D(17,24,27,28)       -146.3785         calculate D2E/DX2 analytically  !
 ! D182  D(25,24,27,28)        -21.987          calculate D2E/DX2 analytically  !
 ! D183  D(24,25,26,28)        -19.85           calculate D2E/DX2 analytically  !
 ! D184  D(25,26,28,27)         -7.0655         calculate D2E/DX2 analytically  !
 ! D185  D(9,27,28,26)          89.6584         calculate D2E/DX2 analytically  !
 ! D186  D(24,27,28,26)         27.5295         calculate D2E/DX2 analytically  !
 --------------------------------------------------------------------------------
 Trust Radius=3.00D-01 FncErr=1.00D-07 GrdErr=1.00D-06 EigMax=2.50D+02 EigMin=1.00D-04
 Number of steps in this run=    168 maximum allowed number of steps=    168.
 Search for a saddle point of order  1.
 GradGradGradGradGradGradGradGradGradGradGradGradGradGradGradGradGradGrad

                          Input orientation:                          
 ---------------------------------------------------------------------
 Center     Atomic      Atomic             Coordinates (Angstroms)
 Number     Number       Type             X           Y           Z
 ---------------------------------------------------------------------
      1         42           0        0.301396    2.396785   12.276435
      2         16           0        1.239705    4.258398   11.691909
      3         16           0       -1.685315    2.901134   13.281095
      4         16           0       -0.404850    1.348178   10.246325
      5         16           0        1.983456    0.313831   11.945429
      6         42           0       -2.180202    2.785084   10.941543
      7         16           0       -3.268117    1.654121    8.974854
      8         16           0       -1.582496    4.967114   10.350268
      9         42           0        0.217348    3.580891    9.410178
     10         16           0       -0.644620    2.661119    7.249996
     11         16           0        2.514135    2.477525    8.981051
     12         42           0        3.597415    1.590825   10.742721
     13         42           0       -2.424596    3.910455    8.403881
     14         16           0        4.489158    3.001506   12.381990
     15         16           0        5.125978    0.289525   10.108026
     16         16           0       -4.642954    4.961875    8.560045
     17         16           0       -1.889891    6.090618    7.214456
     18         42           0       -4.957674    3.044448    9.696235
     19         16           0       -6.889259    2.238212    9.350148
     20         16           0       -4.478888    3.399984   11.845915
     21         42           0        3.168157    1.503874   13.566854
     22         16           0        4.334125    0.195522   14.741256
     23         16           0        1.285905    2.332418   14.558729
     24         42           0       -0.065789    4.879682    7.024197
     25         16           0        1.564001    5.278097    5.396987
     26          1           0        2.545173    5.228451    6.834031
     27         16           0        1.411427    5.701913    8.701885
     28          1           0        2.530666    5.281612    7.488214
 ---------------------------------------------------------------------
                    Distance matrix (angstroms):
                    1          2          3          4          5
     1  Mo   0.000000
     2  S    2.165109   0.000000
     3  S    2.282702   3.594916   0.000000
     4  S    2.391591   3.641930   3.641578   0.000000
     5  S    2.697701   4.022070   4.683804   3.108188   0.000000
     6  Mo   2.844476   3.798614   2.394135   2.387447   4.944788
     7  S    4.918680   5.872402   4.754368   3.147783   6.180592
     8  S    3.723676   3.204231   3.587282   3.807145   6.075656
     9  Mo   3.102354   2.590468   4.366485   2.463997   4.496701
    10  S    5.121514   5.082575   6.124933   3.280136   5.870574
    11  S    3.970175   3.484886   6.025380   3.375917   3.708198
    12  Mo   3.723653   3.684522   6.005621   4.040224   2.383712
    13  Mo   4.971811   4.935514   5.035125   3.746897   6.701432
    14  S    4.232515   3.551751   6.240399   5.589801   3.700368
    15  S    5.693780   5.776137   7.955035   5.632933   3.640341
    16  S    6.696106   6.701427   5.939915   5.819267   8.773508
    17  S    6.638507   5.761856   6.857023   5.821367   8.411670
    18  Mo   5.893617   6.622982   4.855934   4.889595   7.790663
    19  S    7.764910   8.697416   6.555367   6.606274   9.442658
    20  S    4.903353   5.784712   3.180038   4.833879   7.162132
    21  Mo   3.268148   3.849902   5.058674   4.880219   2.334253
    22  S    5.213809   5.948186   6.759147   6.632564   3.654626
    23  S    2.486416   3.454011   3.283890   4.735421   3.374997
    24  Mo   5.821134   4.886496   6.759163   4.792556   7.018898
    25  S    7.564584   6.385217   8.852523   6.544976   8.228121
    26  H    6.532429   5.122912   8.054692   5.950034   7.113045
    27  S    4.993340   3.324676   6.197043   4.963785   6.315000
    28  H    6.018217   4.514931   7.549745   5.629950   6.696645
                    6          7          8          9         10
     6  Mo   0.000000
     7  S    2.516049   0.000000
     8  S    2.338400   3.963459   0.000000
     9  Mo   2.954088   4.006297   2.458622   0.000000
    10  S    4.000112   3.297259   3.976042   2.501071   0.000000
    11  S    5.096560   5.840588   4.985498   2.583950   3.606659
    12  Mo   5.903105   7.089774   6.195549   4.142570   5.598171
    13  Mo   2.786739   2.475597   2.369406   2.846246   2.461830
    14  S    6.826572   8.579006   6.697499   5.236002   7.266973
    15  S    7.765490   8.579454   8.181818   5.951028   6.862404
    16  S    4.058953   3.606034   3.545607   5.123707   4.795454
    17  S    4.990192   4.967999   3.345156   3.944665   3.648757
    18  Mo   3.054900   2.303910   3.939065   5.210610   4.973275
    19  S    5.000682   3.687096   6.050527   7.232583   6.601894
    20  S    2.545574   3.571694   3.616897   5.293409   6.030755
    21  Mo   6.094153   7.907886   6.701430   5.504474   7.468546
    22  S    7.973713   9.652616   8.778113   7.538499   9.326631
    23  S    5.030193   7.237324   5.734151   5.404450   7.566541
    24  Mo   4.919724   4.946131   3.656609   2.731287   2.303921
    25  S    7.139767   7.020235   5.876406   4.560667   3.893613
    26  H    6.720927   7.152153   5.428616   3.843144   4.115701
    27  S    5.140404   6.193324   3.495808   2.535003   3.947371
    28  H    6.352198   6.999620   5.020793   3.455118   4.123854
                   11         12         13         14         15
    11  S    0.000000
    12  Mo   2.250159   0.000000
    13  Mo   5.174696   6.864071   0.000000
    14  S    3.967576   2.339322   8.028171   0.000000
    15  S    3.588752   2.105404   8.545549   3.596011   0.000000
    16  S    7.587698   9.166882   2.459875  10.091867  10.938882
    17  S    5.964121   7.925107   2.540424   8.771447   9.552374
    18  Mo   7.527338   8.740578   2.972647   9.821291  10.461320
    19  S    9.413677  10.598524   4.860559  11.800130  12.195806
    20  S    7.613196   8.349656   4.040828   8.992887  10.244446
    21  Mo   4.733427   2.857893   7.982907   2.322035   4.155863
    22  S    6.457543   4.298592   9.982152   3.669294   4.701350
    23  S    5.713151   4.522716   7.358001   3.930229   6.223209
    24  Mo   4.031829   6.169527   2.899465   7.278807   7.585116
    25  S    4.646663   6.804970   5.178877   7.907571   7.730939
    26  H    3.489735   5.442186   5.375885   6.286351   6.463172
    27  S    3.419149   5.083758   4.244196   5.505252   6.713350
    28  H    3.176750   5.035045   5.222369   5.743136   6.206448
                   16         17         18         19         20
    16  S    0.000000
    17  S    3.265582   0.000000
    18  Mo   2.250889   4.984944   0.000000
    19  S    3.617802   6.663024   2.121512   0.000000
    20  S    3.641890   5.949187   2.230867   3.659024   0.000000
    21  Mo   9.901483   9.326040   9.131494  10.930301   8.064376
    22  S   11.895942  11.408034  10.950166  12.617487   9.814315
    23  S    8.834570   8.840141   7.945635   9.693890   6.460023
    24  Mo   4.828667   2.197706   5.868425   7.677705   6.701784
    25  S    6.973609   3.986572   8.124344   9.814580   9.035070
    26  H    7.397253   4.534076   8.321946  10.211801   8.820414
    27  S    6.101090   3.641735   6.972539   9.017697   7.062550
    28  H    7.260295   4.502306   8.121299  10.072938   8.465455
                   21         22         23         24         25
    21  Mo   0.000000
    22  S    2.109618   0.000000
    23  S    2.283238   3.727102   0.000000
    24  Mo   8.041197  10.042589   8.067515   0.000000
    25  S    9.141379  10.991884   9.627662   2.337255   0.000000
    26  H    7.719552   9.542271   8.345281   2.641008   1.740764
    27  S    6.661648   8.679661   6.758097   2.381778   3.335453
    28  H    7.185232   9.040320   7.761402   2.668040   2.303841
                   26         27         28
    26  H    0.000000
    27  S    2.235716   0.000000
    28  H    0.656500   1.703627   0.000000
 Symmetry turned off by external request.
 Stoichiometry    H2Mo8S18
 Framework group  C1[X(H2Mo8S18)]
 Deg. of freedom    78
 Full point group                 C1      NOp   1
 Rotational constants (GHZ):           0.0716846           0.0326767           0.0253437
 General basis read from cards:  (5D, 7F)
 ======================================================================================================
                                       Pseudopotential Parameters
 ======================================================================================================
  Center     Atomic      Valence      Angular      Power
  Number     Number     Electrons     Momentum     of R      Exponent        Coefficient   SO-Coeffient
 ======================================================================================================
    1         42           14
                                      F and up 
                                                     0      537.9667807       -0.04694920    0.00000000
                                                     1      147.8982938      -20.20800840    0.00000000
                                                     2       45.7358898     -106.21163020    0.00000000
                                                     2       13.2911467      -41.81073680    0.00000000
                                                     2        4.7059961       -4.20541030    0.00000000
                                      S - F
                                                     0      110.2991760        2.80637170    0.00000000
                                                     1       23.2014645       44.51620120    0.00000000
                                                     2        5.3530131       82.77852270    0.00000000
                                      P - F
                                                     0       63.2901397        4.94208760    0.00000000
                                                     1       23.3315302       25.86049760    0.00000000
                                                     2       24.6759423      132.47087420    0.00000000
                                                     2        4.6493040       57.31497940    0.00000000
                                      D - F
                                                     0      104.4839977        3.00545910    0.00000000
                                                     1       66.2307245       26.36378510    0.00000000
                                                     2       39.1283176      183.38491990    0.00000000
                                                     2       13.1164437       98.44530680    0.00000000
                                                     2        3.6280263       22.49013770    0.00000000
    2         16
                                   No pseudopotential on this center.
    3         16
                                   No pseudopotential on this center.
    4         16
                                   No pseudopotential on this center.
    5         16
                                   No pseudopotential on this center.
    6         42           14
                                      F and up 
                                                     0      537.9667807       -0.04694920    0.00000000
                                                     1      147.8982938      -20.20800840    0.00000000
                                                     2       45.7358898     -106.21163020    0.00000000
                                                     2       13.2911467      -41.81073680    0.00000000
                                                     2        4.7059961       -4.20541030    0.00000000
                                      S - F
                                                     0      110.2991760        2.80637170    0.00000000
                                                     1       23.2014645       44.51620120    0.00000000
                                                     2        5.3530131       82.77852270    0.00000000
                                      P - F
                                                     0       63.2901397        4.94208760    0.00000000
                                                     1       23.3315302       25.86049760    0.00000000
                                                     2       24.6759423      132.47087420    0.00000000
                                                     2        4.6493040       57.31497940    0.00000000
                                      D - F
                                                     0      104.4839977        3.00545910    0.00000000
                                                     1       66.2307245       26.36378510    0.00000000
                                                     2       39.1283176      183.38491990    0.00000000
                                                     2       13.1164437       98.44530680    0.00000000
                                                     2        3.6280263       22.49013770    0.00000000
    7         16
                                   No pseudopotential on this center.
    8         16
                                   No pseudopotential on this center.
    9         42           14
                                      F and up 
                                                     0      537.9667807       -0.04694920    0.00000000
                                                     1      147.8982938      -20.20800840    0.00000000
                                                     2       45.7358898     -106.21163020    0.00000000
                                                     2       13.2911467      -41.81073680    0.00000000
                                                     2        4.7059961       -4.20541030    0.00000000
                                      S - F
                                                     0      110.2991760        2.80637170    0.00000000
                                                     1       23.2014645       44.51620120    0.00000000
                                                     2        5.3530131       82.77852270    0.00000000
                                      P - F
                                                     0       63.2901397        4.94208760    0.00000000
                                                     1       23.3315302       25.86049760    0.00000000
                                                     2       24.6759423      132.47087420    0.00000000
                                                     2        4.6493040       57.31497940    0.00000000
                                      D - F
                                                     0      104.4839977        3.00545910    0.00000000
                                                     1       66.2307245       26.36378510    0.00000000
                                                     2       39.1283176      183.38491990    0.00000000
                                                     2       13.1164437       98.44530680    0.00000000
                                                     2        3.6280263       22.49013770    0.00000000
   10         16
                                   No pseudopotential on this center.
   11         16
                                   No pseudopotential on this center.
   12         42           14
                                      F and up 
                                                     0      537.9667807       -0.04694920    0.00000000
                                                     1      147.8982938      -20.20800840    0.00000000
                                                     2       45.7358898     -106.21163020    0.00000000
                                                     2       13.2911467      -41.81073680    0.00000000
                                                     2        4.7059961       -4.20541030    0.00000000
                                      S - F
                                                     0      110.2991760        2.80637170    0.00000000
                                                     1       23.2014645       44.51620120    0.00000000
                                                     2        5.3530131       82.77852270    0.00000000
                                      P - F
                                                     0       63.2901397        4.94208760    0.00000000
                                                     1       23.3315302       25.86049760    0.00000000
                                                     2       24.6759423      132.47087420    0.00000000
                                                     2        4.6493040       57.31497940    0.00000000
                                      D - F
                                                     0      104.4839977        3.00545910    0.00000000
                                                     1       66.2307245       26.36378510    0.00000000
                                                     2       39.1283176      183.38491990    0.00000000
                                                     2       13.1164437       98.44530680    0.00000000
                                                     2        3.6280263       22.49013770    0.00000000
   13         42           14
                                      F and up 
                                                     0      537.9667807       -0.04694920    0.00000000
                                                     1      147.8982938      -20.20800840    0.00000000
                                                     2       45.7358898     -106.21163020    0.00000000
                                                     2       13.2911467      -41.81073680    0.00000000
                                                     2        4.7059961       -4.20541030    0.00000000
                                      S - F
                                                     0      110.2991760        2.80637170    0.00000000
                                                     1       23.2014645       44.51620120    0.00000000
                                                     2        5.3530131       82.77852270    0.00000000
                                      P - F
                                                     0       63.2901397        4.94208760    0.00000000
                                                     1       23.3315302       25.86049760    0.00000000
                                                     2       24.6759423      132.47087420    0.00000000
                                                     2        4.6493040       57.31497940    0.00000000
                                      D - F
                                                     0      104.4839977        3.00545910    0.00000000
                                                     1       66.2307245       26.36378510    0.00000000
                                                     2       39.1283176      183.38491990    0.00000000
                                                     2       13.1164437       98.44530680    0.00000000
                                                     2        3.6280263       22.49013770    0.00000000
   14         16
                                   No pseudopotential on this center.
   15         16
                                   No pseudopotential on this center.
   16         16
                                   No pseudopotential on this center.
   17         16
                                   No pseudopotential on this center.
   18         42           14
                                      F and up 
                                                     0      537.9667807       -0.04694920    0.00000000
                                                     1      147.8982938      -20.20800840    0.00000000
                                                     2       45.7358898     -106.21163020    0.00000000
                                                     2       13.2911467      -41.81073680    0.00000000
                                                     2        4.7059961       -4.20541030    0.00000000
                                      S - F
                                                     0      110.2991760        2.80637170    0.00000000
                                                     1       23.2014645       44.51620120    0.00000000
                                                     2        5.3530131       82.77852270    0.00000000
                                      P - F
                                                     0       63.2901397        4.94208760    0.00000000
                                                     1       23.3315302       25.86049760    0.00000000
                                                     2       24.6759423      132.47087420    0.00000000
                                                     2        4.6493040       57.31497940    0.00000000
                                      D - F
                                                     0      104.4839977        3.00545910    0.00000000
                                                     1       66.2307245       26.36378510    0.00000000
                                                     2       39.1283176      183.38491990    0.00000000
                                                     2       13.1164437       98.44530680    0.00000000
                                                     2        3.6280263       22.49013770    0.00000000
   19         16
                                   No pseudopotential on this center.
   20         16
                                   No pseudopotential on this center.
   21         42           14
                                      F and up 
                                                     0      537.9667807       -0.04694920    0.00000000
                                                     1      147.8982938      -20.20800840    0.00000000
                                                     2       45.7358898     -106.21163020    0.00000000
                                                     2       13.2911467      -41.81073680    0.00000000
                                                     2        4.7059961       -4.20541030    0.00000000
                                      S - F
                                                     0      110.2991760        2.80637170    0.00000000
                                                     1       23.2014645       44.51620120    0.00000000
                                                     2        5.3530131       82.77852270    0.00000000
                                      P - F
                                                     0       63.2901397        4.94208760    0.00000000
                                                     1       23.3315302       25.86049760    0.00000000
                                                     2       24.6759423      132.47087420    0.00000000
                                                     2        4.6493040       57.31497940    0.00000000
                                      D - F
                                                     0      104.4839977        3.00545910    0.00000000
                                                     1       66.2307245       26.36378510    0.00000000
                                                     2       39.1283176      183.38491990    0.00000000
                                                     2       13.1164437       98.44530680    0.00000000
                                                     2        3.6280263       22.49013770    0.00000000
   22         16
                                   No pseudopotential on this center.
   23         16
                                   No pseudopotential on this center.
   24         42           14
                                      F and up 
                                                     0      537.9667807       -0.04694920    0.00000000
                                                     1      147.8982938      -20.20800840    0.00000000
                                                     2       45.7358898     -106.21163020    0.00000000
                                                     2       13.2911467      -41.81073680    0.00000000
                                                     2        4.7059961       -4.20541030    0.00000000
                                      S - F
                                                     0      110.2991760        2.80637170    0.00000000
                                                     1       23.2014645       44.51620120    0.00000000
                                                     2        5.3530131       82.77852270    0.00000000
                                      P - F
                                                     0       63.2901397        4.94208760    0.00000000
                                                     1       23.3315302       25.86049760    0.00000000
                                                     2       24.6759423      132.47087420    0.00000000
                                                     2        4.6493040       57.31497940    0.00000000
                                      D - F
                                                     0      104.4839977        3.00545910    0.00000000
                                                     1       66.2307245       26.36378510    0.00000000
                                                     2       39.1283176      183.38491990    0.00000000
                                                     2       13.1164437       98.44530680    0.00000000
                                                     2        3.6280263       22.49013770    0.00000000
   25         16
                                   No pseudopotential on this center.
   26          1
                                   No pseudopotential on this center.
   27         16
                                   No pseudopotential on this center.
   28          1
                                   No pseudopotential on this center.
 ======================================================================================================
   510 basis functions,  1342 primitive gaussians,   544 cartesian basis functions
   201 alpha electrons      201 beta electrons
       nuclear repulsion energy      8796.6453605979 Hartrees.
 NAtoms=   28 NActive=   28 NUniq=   28 SFac= 1.00D+00 NAtFMM=   60 NAOKFM=F Big=F
 Integral buffers will be    131072 words long.
 Raffenetti 2 integral format.
 Two-electron integral symmetry is turned off.
 One-electron integrals computed using PRISM.
   1 Symmetry operations used in ECPInt.
 ECPInt:  NShTT=   12880 NPrTT=  103082 LenC2=   11141 LenP2D=   52734.
 LDataN:  DoStor=T MaxTD1= 5 Len=  102
 NBasis=   510 RedAO= T EigKep=  3.23D-04  NBF=   510
 NBsUse=   510 1.00D-06 EigRej= -1.00D+00 NBFU=   510
 Defaulting to unpruned grid for atomic number  42.
 Defaulting to unpruned grid for atomic number  42.
 Defaulting to unpruned grid for atomic number  42.
 Defaulting to unpruned grid for atomic number  42.
 Defaulting to unpruned grid for atomic number  42.
 Defaulting to unpruned grid for atomic number  42.
 Defaulting to unpruned grid for atomic number  42.
 Defaulting to unpruned grid for atomic number  42.
 ExpMin= 2.47D-02 ExpMax= 2.19D+04 ExpMxC= 3.30D+03 IAcc=3 IRadAn=         5 AccDes= 0.00D+00
 Harris functional with IExCor=  402 and IRadAn=       5 diagonalized for initial guess.
 HarFok:  IExCor=  402 AccDes= 0.00D+00 IRadAn=         5 IDoV= 1 UseB2=F ITyADJ=14
 ICtDFT=  3500011 ScaDFX=  1.000000  1.000000  1.000000  1.000000
 Defaulting to unpruned grid for atomic number  42.
 FoFCou: FMM=F IPFlag=           0 FMFlag=      100000 FMFlg1=           0
         NFxFlg=           0 DoJE=T BraDBF=F KetDBF=T FulRan=T
         wScrn=  0.000000 ICntrl=       500 IOpCl=  0 I1Cent=   200000004 NGrid=           0
         NMat0=    1 NMatS0=      1 NMatT0=    0 NMatD0=    1 NMtDS0=    0 NMtDT0=    0
 Symmetry not used in FoFCou.
 Requested convergence on RMS density matrix=1.00D-08 within 128 cycles.
 Requested convergence on MAX density matrix=1.00D-06.
 Requested convergence on             energy=1.00D-06.
 No special actions if energy rises.
 Defaulting to unpruned grid for atomic number  42.
 Defaulting to unpruned grid for atomic number  42.
 Defaulting to unpruned grid for atomic number  42.
 Defaulting to unpruned grid for atomic number  42.
 Defaulting to unpruned grid for atomic number  42.
 Defaulting to unpruned grid for atomic number  42.
 Defaulting to unpruned grid for atomic number  42.
 Defaulting to unpruned grid for atomic number  42.
 Defaulting to unpruned grid for atomic number  42.
 Defaulting to unpruned grid for atomic number  42.
 Defaulting to unpruned grid for atomic number  42.
 Defaulting to unpruned grid for atomic number  42.
 Defaulting to unpruned grid for atomic number  42.
 Defaulting to unpruned grid for atomic number  42.
 Defaulting to unpruned grid for atomic number  42.
 Defaulting to unpruned grid for atomic number  42.
 Defaulting to unpruned grid for atomic number  42.
 Defaulting to unpruned grid for atomic number  42.
 Defaulting to unpruned grid for atomic number  42.
 Defaulting to unpruned grid for atomic number  42.
 Defaulting to unpruned grid for atomic number  42.
 Defaulting to unpruned grid for atomic number  42.
 Defaulting to unpruned grid for atomic number  42.
 Defaulting to unpruned grid for atomic number  42.
 Defaulting to unpruned grid for atomic number  42.
 Defaulting to unpruned grid for atomic number  42.
 Defaulting to unpruned grid for atomic number  42.
 Defaulting to unpruned grid for atomic number  42.
 Defaulting to unpruned grid for atomic number  42.
 Defaulting to unpruned grid for atomic number  42.
 Defaulting to unpruned grid for atomic number  42.
 Defaulting to unpruned grid for atomic number  42.
 Defaulting to unpruned grid for atomic number  42.
 Defaulting to unpruned grid for atomic number  42.
 Defaulting to unpruned grid for atomic number  42.
 Defaulting to unpruned grid for atomic number  42.
 Defaulting to unpruned grid for atomic number  42.
 Defaulting to unpruned grid for atomic number  42.
 Defaulting to unpruned grid for atomic number  42.
 Defaulting to unpruned grid for atomic number  42.
 Defaulting to unpruned grid for atomic number  42.
 Defaulting to unpruned grid for atomic number  42.
 Defaulting to unpruned grid for atomic number  42.
 Defaulting to unpruned grid for atomic number  42.
 Defaulting to unpruned grid for atomic number  42.
 Defaulting to unpruned grid for atomic number  42.
 EnCoef did     4 forward-backward iterations
 EnCoef did   100 forward-backward iterations
 EnCoef did   100 forward-backward iterations
 EnCoef did     7 forward-backward iterations
 EnCoef did     2 forward-backward iterations
 EnCoef did     5 forward-backward iterations
 EnCoef did     2 forward-backward iterations
 EnCoef did     4 forward-backward iterations
 EnCoef did     5 forward-backward iterations
 Restarting incremental Fock formation.
 SCF Done:  E(RB3LYP) =  -7709.77874290     A.U. after   31 cycles
            NFock= 31  Conv=0.78D-08     -V/T= 2.0515
 DoSCS=F DFT=T ScalE2(SS,OS)=  1.000000  1.000000
 Range of M.O.s used for correlation:     1   510
 NBasis=   510 NAE=   201 NBE=   201 NFC=     0 NFV=     0
 NROrb=    510 NOA=   201 NOB=   201 NVA=   309 NVB=   309

 **** Warning!!: The largest alpha MO coefficient is  0.19502083D+02


 **** Warning!!: The smallest alpha delta epsilon is  0.56503452D-01

   1 Symmetry operations used in ECPInt.
 ECPInt:  NShTT=   12880 NPrTT=  103082 LenC2=   11141 LenP2D=   52734.
 LDataN:  DoStor=T MaxTD1= 6 Len=  172
 Number of processors reduced to  31 by ecpmxn.
 Symmetrizing basis deriv contribution to polar:
 IMax=3 JMax=2 DiffMx= 0.00D+00
 G2DrvN: will do    29 centers at a time, making    1 passes.
 Calling FoFCou, ICntrl=  3107 FMM=F I1Cent=   0 AccDes= 0.00D+00.
 Defaulting to unpruned grid for atomic number  42.
 Defaulting to unpruned grid for atomic number  42.
 Defaulting to unpruned grid for atomic number  42.
 Defaulting to unpruned grid for atomic number  42.
 Defaulting to unpruned grid for atomic number  42.
 Defaulting to unpruned grid for atomic number  42.
 Defaulting to unpruned grid for atomic number  42.
 Defaulting to unpruned grid for atomic number  42.
 Defaulting to unpruned grid for atomic number  42.
 Defaulting to unpruned grid for atomic number  42.
 Defaulting to unpruned grid for atomic number  42.
 Defaulting to unpruned grid for atomic number  42.
 Defaulting to unpruned grid for atomic number  42.
 Defaulting to unpruned grid for atomic number  42.
 Defaulting to unpruned grid for atomic number  42.
 Defaulting to unpruned grid for atomic number  42.
 Defaulting to unpruned grid for atomic number  42.
 Defaulting to unpruned grid for atomic number  42.
 Defaulting to unpruned grid for atomic number  42.
 Defaulting to unpruned grid for atomic number  42.
 Defaulting to unpruned grid for atomic number  42.
 Defaulting to unpruned grid for atomic number  42.
 Defaulting to unpruned grid for atomic number  42.
 Defaulting to unpruned grid for atomic number  42.
 Defaulting to unpruned grid for atomic number  42.
 Defaulting to unpruned grid for atomic number  42.
 Defaulting to unpruned grid for atomic number  42.
 Defaulting to unpruned grid for atomic number  42.
 Defaulting to unpruned grid for atomic number  42.
 Defaulting to unpruned grid for atomic number  42.
 Defaulting to unpruned grid for atomic number  42.
 Defaulting to unpruned grid for atomic number  42.
 Defaulting to unpruned grid for atomic number  42.
 Defaulting to unpruned grid for atomic number  42.
 Defaulting to unpruned grid for atomic number  42.
 Defaulting to unpruned grid for atomic number  42.
 Defaulting to unpruned grid for atomic number  42.
 Defaulting to unpruned grid for atomic number  42.
 Defaulting to unpruned grid for atomic number  42.
 Defaulting to unpruned grid for atomic number  42.
 Defaulting to unpruned grid for atomic number  42.
 Defaulting to unpruned grid for atomic number  42.
 Defaulting to unpruned grid for atomic number  42.
 Defaulting to unpruned grid for atomic number  42.
 Defaulting to unpruned grid for atomic number  42.
 Defaulting to unpruned grid for atomic number  42.
 End of G2Drv F.D. properties file   721 does not exist.
 End of G2Drv F.D. properties file   722 does not exist.
 End of G2Drv F.D. properties file   788 does not exist.
          IDoAtm=1111111111111111111111111111
          Differentiating once with respect to nuclear coordinates.
 Defaulting to unpruned grid for atomic number  42.
 Defaulting to unpruned grid for atomic number  42.
 Defaulting to unpruned grid for atomic number  42.
 Defaulting to unpruned grid for atomic number  42.
 Defaulting to unpruned grid for atomic number  42.
 Defaulting to unpruned grid for atomic number  42.
 Defaulting to unpruned grid for atomic number  42.
 Defaulting to unpruned grid for atomic number  42.
 CalDSu exits because no D1Ps are significant.
 Defaulting to unpruned grid for atomic number  42.
 Defaulting to unpruned grid for atomic number  42.
 Defaulting to unpruned grid for atomic number  42.
 Defaulting to unpruned grid for atomic number  42.
 Defaulting to unpruned grid for atomic number  42.
 Defaulting to unpruned grid for atomic number  42.
 Defaulting to unpruned grid for atomic number  42.
 Defaulting to unpruned grid for atomic number  42.
 Defaulting to unpruned grid for atomic number  42.
 Defaulting to unpruned grid for atomic number  42.
 Defaulting to unpruned grid for atomic number  42.
 Defaulting to unpruned grid for atomic number  42.
 Defaulting to unpruned grid for atomic number  42.
 Defaulting to unpruned grid for atomic number  42.
 Defaulting to unpruned grid for atomic number  42.
 Defaulting to unpruned grid for atomic number  42.
 Defaulting to unpruned grid for atomic number  42.
 Defaulting to unpruned grid for atomic number  42.
 Defaulting to unpruned grid for atomic number  42.
 Defaulting to unpruned grid for atomic number  42.
 Defaulting to unpruned grid for atomic number  42.
 Defaulting to unpruned grid for atomic number  42.
 Defaulting to unpruned grid for atomic number  42.
 Defaulting to unpruned grid for atomic number  42.
 Defaulting to unpruned grid for atomic number  42.
 Defaulting to unpruned grid for atomic number  42.
 Defaulting to unpruned grid for atomic number  42.
 Defaulting to unpruned grid for atomic number  42.
 Defaulting to unpruned grid for atomic number  42.
 Defaulting to unpruned grid for atomic number  42.
 Defaulting to unpruned grid for atomic number  42.
 Defaulting to unpruned grid for atomic number  42.
 Defaulting to unpruned grid for atomic number  42.
 Defaulting to unpruned grid for atomic number  42.
 Defaulting to unpruned grid for atomic number  42.
 Defaulting to unpruned grid for atomic number  42.
 Defaulting to unpruned grid for atomic number  42.
 Defaulting to unpruned grid for atomic number  42.
 Defaulting to unpruned grid for atomic number  42.
 Defaulting to unpruned grid for atomic number  42.
 Defaulting to unpruned grid for atomic number  42.
 Defaulting to unpruned grid for atomic number  42.
 Defaulting to unpruned grid for atomic number  42.
 Defaulting to unpruned grid for atomic number  42.
 Defaulting to unpruned grid for atomic number  42.
 Defaulting to unpruned grid for atomic number  42.
          There are    87 degrees of freedom in the 1st order CPHF.  IDoFFX=6 NUNeed=     0.
     81 vectors produced by pass  0 Test12= 7.14D-14 1.15D-09 XBig12= 2.69D-01 1.14D-01.
 AX will form    81 AO Fock derivatives at one time.
     81 vectors produced by pass  1 Test12= 7.14D-14 1.15D-09 XBig12= 1.73D-01 9.50D-02.
     81 vectors produced by pass  2 Test12= 7.14D-14 1.15D-09 XBig12= 2.86D-02 2.03D-02.
     81 vectors produced by pass  3 Test12= 7.14D-14 1.15D-09 XBig12= 1.69D-03 5.16D-03.
     81 vectors produced by pass  4 Test12= 7.14D-14 1.15D-09 XBig12= 2.67D-05 5.05D-04.
     81 vectors produced by pass  5 Test12= 7.14D-14 1.15D-09 XBig12= 3.14D-07 4.90D-05.
     81 vectors produced by pass  6 Test12= 7.14D-14 1.15D-09 XBig12= 2.49D-09 4.12D-06.
     79 vectors produced by pass  7 Test12= 7.14D-14 1.15D-09 XBig12= 1.51D-11 3.27D-07.
     41 vectors produced by pass  8 Test12= 7.14D-14 1.15D-09 XBig12= 7.42D-14 2.15D-08.
      3 vectors produced by pass  9 Test12= 7.14D-14 1.15D-09 XBig12= 3.83D-16 1.39D-09.
 InvSVY:  IOpt=1 It=  1 EMax= 7.77D-16
 Solved reduced A of dimension   690 with    87 vectors.
 End of Minotr F.D. properties file   721 does not exist.
 End of Minotr F.D. properties file   722 does not exist.
 End of Minotr F.D. properties file   788 does not exist.

 **********************************************************************

            Population analysis using the SCF Density.

 **********************************************************************

 Alpha  occ. eigenvalues --  -88.94037 -88.93253 -88.92874 -88.92855 -88.92579
 Alpha  occ. eigenvalues --  -88.92424 -88.92090 -88.90871 -88.90688 -88.90452
 Alpha  occ. eigenvalues --  -88.90092 -88.89477 -88.89161 -88.89072 -88.88728
 Alpha  occ. eigenvalues --  -88.88598 -88.88470 -88.88447  -8.01375  -8.00696
 Alpha  occ. eigenvalues --   -8.00461  -8.00428  -7.99992  -7.99949  -7.99705
 Alpha  occ. eigenvalues --   -7.98481  -7.98435  -7.98179  -7.97817  -7.97009
 Alpha  occ. eigenvalues --   -7.96947  -7.96927  -7.96695  -7.96392  -7.96301
 Alpha  occ. eigenvalues --   -7.96247  -5.97385  -5.97367  -5.97292  -5.96763
 Alpha  occ. eigenvalues --   -5.96691  -5.96536  -5.96502  -5.96461  -5.96429
 Alpha  occ. eigenvalues --   -5.96399  -5.96315  -5.96307  -5.96153  -5.95968
 Alpha  occ. eigenvalues --   -5.95916  -5.95897  -5.95852  -5.95827  -5.95744
 Alpha  occ. eigenvalues --   -5.95652  -5.95588  -5.94579  -5.94463  -5.94406
 Alpha  occ. eigenvalues --   -5.94351  -5.94333  -5.94324  -5.94270  -5.94131
 Alpha  occ. eigenvalues --   -5.93981  -5.93906  -5.93751  -5.93640  -5.93268
 Alpha  occ. eigenvalues --   -5.92988  -5.92947  -5.92876  -5.92856  -5.92851
 Alpha  occ. eigenvalues --   -5.92832  -5.92793  -5.92781  -5.92688  -5.92665
 Alpha  occ. eigenvalues --   -5.92522  -5.92380  -5.92365  -5.92360  -5.92311
 Alpha  occ. eigenvalues --   -5.92275  -5.92232  -5.92226  -5.92135  -5.92044
[...]
 03899,0.04852612,-0.06013313,0.30569142,-0.00015362,0.00028501,0.00088
 781,0.00042440,-0.00019527,-0.00007464,0.00018696,0.00002108,0.0000120
 1,-0.00002219,-0.00002969,-0.00013689,-0.00192506,0.00312319,-0.000823
 99,-0.00016820,0.00016483,-0.00025343,0.00004392,-0.00002584,-0.000039
 93,0.00001032,-0.00005905,0.00007024,0.00021666,0.00001302,-0.00029177
 ,-0.00002405,0.00003779,-0.00008121,-0.00091776,0.00044819,0.00026315,
 0.00181139,-0.00044026,-0.00166712,0.00004251,-0.00005690,-0.00008327,
 0.00846508,0.00000996,-0.00126057,0.00089993,-0.00105825,-0.00003712,-
 0.00004205,0.00001613,-0.00000455,-0.00001699,0.00003786,-0.00005040,0
 .00039258,0.00021584,0.00024130,-0.00030259,-0.00016079,-0.00007085,-0
 .00013798,-0.00003369,0.00000968,-0.09934695,0.08548360,-0.08687167,0.
 09557169,0.00049818,-0.00018348,-0.00038329,0.00000410,0.00046124,-0.0
 0062447,-0.00001904,0.00002831,-0.00010085,-0.00028700,-0.00013413,0.0
 0002029,0.00044936,0.00622016,0.00233127,0.00021193,-0.00013526,0.0002
 3452,-0.00004276,-0.00000009,0.00000299,0.00011419,-0.00004496,-0.0001
 0205,-0.00026324,0.00085299,0.00056553,0.00004153,-0.00009671,-0.00003
 634,0.00080969,-0.00089826,0.00021235,-0.00068842,-0.00040047,0.000963
 44,-0.00002829,-0.00003614,0.00010487,0.00155513,-0.00244982,0.0039464
 0,-0.00112008,0.00174633,-0.00007975,0.00005089,0.00000808,-0.00002294
 ,0.00002191,-0.00003073,0.00005244,-0.00037018,-0.00023362,-0.00017280
 ,0.00029576,0.00016354,0.00006787,0.00012707,0.00002515,-0.00000650,0.
 08459460,-0.11082404,0.09483459,-0.08914124,0.10830284,-0.00022248,0.0
 0018242,0.00042305,0.00010737,-0.00038050,0.00013472,0.00015891,-0.000
 09279,-0.00004415,-0.00000460,0.00015949,0.00005398,-0.00365033,0.0014
 1254,-0.00237957,-0.00021478,0.00008490,-0.00029151,0.00001415,-0.0000
 1904,-0.00001382,0.00010458,-0.00003207,0.00002291,-0.00020059,-0.0000
 4108,-0.00003899,-0.00003534,-0.00002171,-0.00007759,-0.00009199,0.000
 05955,-0.00041002,0.00009121,0.00210933,0.00420909,-0.00001659,0.00000
 093,-0.00015403,0.00196368,0.00333450,-0.00609537,0.00052460,-0.000689
 59,-0.00048771,-0.00001375,0.00002882,-0.00001758,-0.00001440,0.000020
 88,-0.00007710,0.00046647,0.00018053,0.00022130,-0.00033373,-0.0001754
 7,-0.00008227,-0.00010652,0.00003171,0.00001690,-0.08127543,0.09352131
 ,-0.11698430,0.09034666,-0.10041181,0.11283003,-0.01164978,0.00595459,
 0.01098814,-0.00023267,-0.00000517,-0.00133429,-0.01052506,0.00193184,
 -0.00798338,-0.00229066,-0.00349476,-0.00327726,0.01028698,0.00295426,
 0.00151668,0.00513773,-0.00088510,0.00169792,-0.00066657,-0.00055598,-
 0.00046764,0.00112299,-0.00021399,-0.00096905,-0.00503236,0.00517649,-
 0.00433836,-0.00015786,-0.00046902,-0.00095164,0.00503946,-0.00297429,
 0.00354325,-0.00383552,-0.00369453,-0.00330335,0.00073976,-0.00006296,
 -0.00030272,-0.00270803,-0.00321825,0.00659670,-0.00063482,0.00123868,
 -0.00018427,0.00006835,0.00007569,-0.00025053,0.00039566,0.00008811,-0
 .00011639,0.00058061,0.00005016,0.00051084,-0.00040009,-0.00017196,-0.
 00004766,-0.00065215,0.00024299,-0.00033990,-0.07737360,0.04760359,0.0
 4290194,-0.00502395,0.00321511,-0.00759371,0.09844578,-0.00441293,-0.0
 1387572,-0.01144431,0.00128314,-0.00008257,0.00632952,0.00091231,0.000
 35592,0.00161125,0.00132201,0.00366348,0.00222396,-0.00013147,-0.00383
 365,-0.00506883,-0.00044672,0.00120639,-0.00013997,-0.00044369,-0.0000
 6092,-0.00013295,0.00005178,-0.00043291,0.00066879,0.00076813,0.000108
 04,-0.00394298,0.00020516,-0.00029802,0.00071037,-0.00168579,0.0002046
 0,-0.00067941,0.00295081,0.00176964,0.00205712,0.00041185,-0.00045763,
 0.00047540,0.00090293,0.00587396,-0.00515710,0.00004538,-0.00014539,-0
 .00017656,0.00001452,0.00006927,0.00002329,-0.00000058,0.00004839,-0.0
 0001613,-0.00010166,-0.00030177,0.00032702,-0.00002870,0.00000720,-0.0
 0000719,-0.00041643,0.00036845,-0.00012181,0.04969592,-0.04076346,-0.0
 2398764,0.00133543,-0.00233269,0.00064703,-0.05234095,0.04849222,-0.01
 174900,-0.00140395,-0.04044815,0.00004698,0.00541086,-0.01011043,-0.00
 344877,0.00098945,0.00106279,-0.00244115,-0.00133642,-0.00236818,0.002
 99284,-0.00641404,-0.00578215,-0.00236974,-0.00113196,-0.00287342,0.00
 018453,-0.00006146,-0.00006031,0.00019721,-0.00062978,-0.00032767,-0.0
 0010430,0.00116859,0.00174729,-0.00022666,-0.00002083,-0.00051737,0.00
 138924,-0.00058997,0.00066560,0.00018245,-0.00149279,0.00201898,-0.000
 09196,0.00022859,0.00011809,0.00062490,0.00100003,-0.00184757,-0.00024
 475,0.00058555,-0.00024094,0.00005513,0.00004382,-0.00010436,0.0001714
 7,0.00002546,-0.00020298,0.00083144,0.00002650,0.00028180,-0.00025659,
 -0.00014357,-0.00002770,-0.00018225,0.00011531,0.00053577,0.05212764,-
 0.03084359,-0.05257279,-0.00011900,-0.00136513,0.00920939,-0.03731027,
 0.03557253,0.10201627,-0.00109352,-0.00168389,0.00288174,-0.00163462,-
 0.00134048,-0.00039651,-0.00016277,0.00092658,0.00107484,0.00213438,-0
 .00302244,0.00129147,-0.00054487,-0.00000426,-0.00000937,0.00398790,-0
 .00242268,-0.00063699,0.00204867,0.00304015,0.00354241,0.00038591,-0.0
 0000030,0.00134403,0.00231616,0.02335448,-0.01516112,-0.01611037,-0.02
 147529,0.00002343,-0.00026268,-0.00112192,0.00072394,-0.00041021,0.000
 26800,-0.00156423,-0.04371154,-0.03016312,0.02314330,-0.00021216,0.000
 13387,0.00060767,-0.00003614,0.00006559,-0.00003232,0.00074780,0.00112
 449,-0.00018010,-0.09927152,0.06828177,0.01154592,-0.00053648,0.000569
 27,-0.00262260,0.00073601,0.00009992,0.00043767,-0.00011519,-0.0003617
 5,-0.00093496,0.00121989,-0.00009517,-0.00056986,-0.00006972,0.0000307
 4,-0.00008025,-0.00129770,0.00028921,-0.00045522,0.34291158,-0.0003164
 0,-0.00112147,0.00022493,-0.00167431,-0.00159531,-0.00011390,0.0005110
 1,-0.00001679,0.00081960,-0.00095265,-0.00150924,0.00440592,0.00018705
 ,0.00008153,0.00027551,0.00040590,-0.00377885,-0.00292946,-0.00405411,
 -0.00170332,0.00243566,0.00333598,-0.00139624,-0.00227411,0.00912199,0
 .01384699,0.00812504,-0.02810125,-0.13535600,0.01214999,0.00066974,-0.
 00181563,0.00128313,0.00018361,-0.00027055,-0.00104654,-0.01089532,0.0
 1542622,-0.00304841,0.00002881,0.00003419,0.00041246,-0.00018251,0.000
 13553,0.00015795,-0.00035692,-0.00160666,0.00256279,0.06804808,-0.0762
 8467,-0.00428376,-0.00083846,-0.00166480,-0.00141191,0.00032890,0.0004
 8082,0.00050808,-0.00056390,0.00006075,-0.00010692,0.00070178,-0.00022
 349,-0.00058397,-0.00006149,0.00003862,0.00000407,-0.00081845,0.000289
 55,0.00013705,0.03404320,0.26859164,-0.00100077,-0.00472147,-0.0018823
 1,-0.00082692,0.00230584,-0.00175620,-0.00123061,0.00057805,-0.0007894
 6,0.00249023,-0.00003274,0.00116128,0.00000232,0.00031338,0.00029836,0
 .00589611,0.00155317,0.00298638,0.00294948,-0.00076166,0.00020860,0.00
 072562,0.00288794,-0.00269980,-0.00820854,0.00562580,-0.02061619,0.004
 24540,0.01214999,-0.01208848,0.00076960,-0.00000141,0.00026662,-0.0006
 1849,0.00027060,-0.00104372,0.00792646,0.00667614,-0.01001293,-0.00004
 709,0.00028844,0.00018203,0.00028430,-0.00026111,-0.00013240,0.0008690
 5,0.00163213,-0.00050410,0.01548948,-0.00788696,-0.01445026,0.00089707
 ,0.00038723,0.00083939,-0.00070305,-0.00018763,-0.00047040,-0.00057490
 ,-0.00019831,0.00000614,-0.00015702,0.00010874,-0.00021720,0.00015856,
 -0.00016254,0.00017973,0.00030731,0.00042312,0.00001079,-0.03204685,-0
 .01785436,0.24831055,0.00058200,-0.00061928,-0.00180527,0.00068016,0.0
 0108983,-0.00116803,-0.00032776,-0.00014597,-0.00075079,-0.00018260,-0
 .00151780,-0.00028822,-0.00008686,0.00024119,0.00005809,-0.00071572,0.
 00215608,0.00207077,0.00046579,-0.00060489,-0.00153875,-0.00245573,-0.
 00074533,-0.00004407,-0.00508282,-0.00624208,0.00765889,0.00084132,-0.
 00410710,-0.00165892,0.00033493,0.00034400,-0.00009558,0.00005563,0.00
 000680,-0.00013046,0.00454554,0.00335950,0.00580092,-0.00005440,0.0000
 0009,-0.00009173,-0.00000796,-0.00000886,-0.00000638,-0.00044805,-0.00
 012594,-0.00027148,-0.00539560,0.00143075,-0.00119231,0.00028368,-0.00
 000986,0.00133013,-0.00001488,0.00002998,-0.00006094,0.00011597,-0.000
 12497,0.00017711,0.00005200,-0.00005734,0.00009689,0.00001071,-0.00001
 732,-0.00000531,0.00012433,0.00005956,0.00003986,-0.06859798,-0.018910
 68,0.06635831,0.07692944,0.00060820,-0.00046129,-0.00099078,0.00025157
 ,0.00046444,-0.00090863,-0.00034144,-0.00014823,-0.00071094,-0.0000469
 4,-0.00024310,-0.00047771,-0.00011814,0.00017061,0.00004909,-0.0006427
 4,0.00140339,0.00224350,0.00110187,-0.00068769,-0.00101283,-0.00107203
 ,-0.00029478,0.00009634,-0.00187436,-0.00326050,0.00594681,0.00137415,
 0.00336747,0.00109334,0.00019238,-0.00001155,0.00009595,-0.00006392,0.
 00007394,-0.00018501,0.00019530,0.00340618,0.00054804,-0.00003999,0.00
 000223,-0.00001647,-0.00002024,-0.00001024,-0.00002254,-0.00022127,-0.
 00047336,-0.00010952,-0.00795252,0.00469600,-0.00244078,0.00012557,0.0
 0060035,0.00048970,-0.00000652,-0.00001387,-0.00005808,0.00012121,-0.0
 0005842,0.00019355,0.00019964,-0.00004526,0.00005695,-0.00001520,-0.00
 000078,-0.00002552,0.00000616,0.00008222,-0.00001593,-0.01893464,-0.03
 222824,0.03059421,0.02351271,0.02922922,0.00076915,0.00157364,0.000407
 87,0.00018096,-0.00102480,0.00042505,0.00032006,-0.00012671,0.00033700
 ,-0.00117692,-0.00035708,0.00006332,-0.00025701,-0.00011424,-0.0000215
 4,-0.00193892,-0.00066360,-0.00243041,-0.00120413,0.00096417,0.0006784
 5,0.00067248,0.00064481,-0.00039794,0.00949338,0.00319907,-0.00433470,
 -0.00182617,0.00326783,0.00148601,-0.00077906,-0.00027950,0.00034877,0
 .00047329,-0.00026279,0.00022803,0.00435325,0.00103627,-0.00207588,-0.
 00004650,-0.00013124,0.00003238,-0.00030845,0.00027759,0.00011682,-0.0
 0037202,-0.00079479,0.00062650,0.00496589,-0.00602560,0.00122397,-0.00
 121571,-0.00057995,0.00025250,0.00049368,0.00019639,0.00023824,-0.0001
 9165,0.00010612,-0.00024505,0.00056277,-0.00012481,0.00002828,-0.00014
 705,0.00015125,-0.00016409,-0.00049637,-0.00014762,-0.00009623,0.05495
 163,0.02920563,-0.09981733,-0.05500893,-0.02767455,0.16411589,-0.00042
 478,0.00057468,0.00045181,-0.00018516,-0.00040389,0.00049198,0.0003976
 6,0.00003526,0.00067745,-0.00060632,0.00046136,0.00018514,0.00014994,-
 0.00020126,-0.00011190,-0.00059569,-0.00108546,-0.00239510,-0.00045040
 ,0.00025881,0.00074376,0.00142124,0.00079629,-0.00074516,0.00446485,0.
 00144640,-0.00461393,-0.00109494,-0.00005764,0.00119948,0.00001839,-0.
 00042543,0.00006096,-0.00011937,0.00003377,0.00025033,-0.00300580,-0.0
 0231141,-0.00047645,0.00010642,0.00001077,-0.00002439,0.00014006,-0.00
 011254,-0.00004092,0.00004696,0.00005531,0.00024579,0.00122178,-0.0010
 2357,0.00055385,0.00019727,-0.00000991,-0.00047097,-0.00022386,-0.0001
 2568,-0.00003838,-0.00010654,0.00011646,-0.00000488,-0.00048841,0.0001
 6330,0.00001660,0.00008933,-0.00006376,0.00010224,0.00027493,-0.000097
 28,0.00011960,-0.03406979,-0.01517843,0.01763565,0.00419443,0.00769948
 ,-0.01271811,0.03500896,-0.00003254,0.00053926,0.00011798,0.00000199,-
 0.00025977,0.00038408,0.00019151,0.00000162,0.00031337,-0.00037910,0.0
 0002536,0.00013776,0.00006699,-0.00009945,-0.00005156,-0.00044050,-0.0
 0040048,-0.00129423,-0.00050947,0.00030161,0.00038051,0.00039251,0.000
 03978,-0.00018830,0.00247122,0.00222430,-0.00355092,-0.00124900,-0.000
 38857,-0.00000982,0.00000058,-0.00027922,0.00011001,-0.00002528,-0.000
 00687,0.00010707,-0.00104529,-0.00177105,0.00052859,0.00004068,-0.0000
 1252,-0.00000324,0.00006345,-0.00004134,-0.00001210,0.00009877,0.00025
 269,-0.00000470,0.00185229,0.00018742,0.00018580,0.00013177,-0.0003101
 5,-0.00024158,-0.00009057,-0.00001901,-0.00000776,-0.00000520,0.000045
 07,0.00001630,-0.00017827,0.00006897,-0.00000419,0.00003616,-0.0000203
 3,0.00004046,0.00006081,-0.00007960,0.00005596,-0.01364791,-0.00166431
 ,0.00660896,0.00530057,-0.01005603,-0.00495079,0.00416417,0.02474874,-
 0.00083642,0.00072140,0.00140549,-0.00046516,-0.00075999,0.00129471,0.
 00054731,0.00013071,0.00103469,-0.00001321,0.00246953,-0.00009851,0.00
 024684,-0.00032339,-0.00010609,0.00028838,-0.00202967,-0.00329132,-0.0
 0080924,0.00030405,0.00118891,0.00196793,0.00097748,-0.00050066,0.0051
 8274,-0.00089272,-0.00674458,-0.00105399,-0.00076690,0.00118569,-0.000
 17628,-0.00048956,0.00000489,-0.00026072,0.00010416,0.00035099,-0.0051
 3023,-0.00402866,-0.00066251,0.00011333,0.00002451,0.00002328,0.000206
 15,-0.00016540,-0.00006728,0.00038398,0.00043105,0.00015545,0.00310255
 ,-0.00055162,0.00075452,0.00040791,-0.00003579,-0.00105303,-0.00033403
 ,-0.00016612,-0.00006221,-0.00011767,0.00017947,-0.00004797,-0.0005863
 5,0.00021488,-0.00007627,0.00011657,-0.00008664,0.00014131,0.00027690,
 -0.00008837,0.00008575,-0.03206105,-0.01349571,0.01665466,0.03675553,0
 .01484249,-0.01274506,-0.02996697,-0.01018260,0.01334504,0.00055325,-0
 .00024573,-0.00189072,0.00112137,0.00018344,-0.00052618,-0.00030740,-0
 .00022608,-0.00078924,-0.00032771,-0.00238452,0.00180654,0.00023763,0.
 00023619,0.00018616,0.00033086,0.00085907,0.00064201,0.00020171,-0.000
 32427,-0.00062767,-0.00264801,-0.00180469,0.00240829,-0.01114226,-0.00
 313682,0.00862226,0.00033879,-0.00261853,0.00172183,-0.00026740,0.0040
 5564,-0.00149471,0.00055178,0.00024812,0.00068257,-0.00201665,0.002166
 30,-0.00309246,-0.00003864,-0.00029078,-0.00036853,-0.00021696,0.00006
 409,0.00008025,0.00009058,-0.00031239,-0.00008871,-0.01097109,-0.00031
 229,-0.00039259,-0.00004913,-0.00001742,0.00027020,0.00007498,0.000060
 70,-0.00000429,0.00005381,-0.00000702,0.00017131,-0.00000585,-0.000256
 70,0.00013193,-0.00008174,0.00006645,-0.00010182,-0.00003620,-0.000043
 46,-0.00004590,-0.05446008,-0.02208289,-0.07911218,-0.02416811,-0.0108
 1078,-0.00628267,0.01428195,0.00292402,0.05983937,0.08867148,-0.002291
 53,-0.00240354,-0.00116084,-0.00035868,0.00072444,0.00025858,0.0000619
 6,-0.00001683,-0.00042459,0.00027674,-0.00113544,0.00074211,-0.0001951
 0,0.00018153,0.00013028,0.00040871,-0.00047474,0.00397917,0.00039861,-
 0.00004386,-0.00072577,-0.00175800,0.00050247,0.00117720,-0.01194758,-
 0.02543835,0.00821965,-0.00185279,-0.00039559,-0.00484399,0.00255744,-
 0.00558680,0.00119807,-0.00056251,-0.00033335,-0.00083564,0.00295956,0
 .00181097,0.00088969,0.00014167,0.00010550,0.00031906,0.00005440,0.000
 08656,0.00003143,0.00043742,0.00009386,-0.00031468,-0.00166968,0.00581
 335,0.00419112,-0.00013743,0.00007380,0.00075473,0.00004755,-0.0000519
 3,0.00001729,0.00010866,0.00001259,-0.00042134,0.00034833,0.00017314,0
 .00008852,0.00003030,-0.00002506,0.00004532,0.00039767,0.00023377,0.00
 003665,-0.02176934,-0.03358337,-0.03869995,-0.01171935,0.00112276,0.00
 123342,0.00710037,0.00312379,0.02464729,0.02380572,0.06569155,-0.00198
 241,-0.00075893,-0.00043756,0.00192892,0.00588648,-0.00520155,0.000030
 21,0.00050963,0.00012326,0.00067247,0.00561430,-0.00367786,0.00016489,
 -0.00022059,-0.00020308,0.00222350,-0.00087016,0.00270159,0.00025652,-
 0.00038670,-0.00085254,0.00066509,0.00085231,-0.00019616,-0.00762990,-
 0.01452812,0.00702847,0.00201225,-0.00345231,0.00177556,-0.00134690,0.
 00257272,-0.00125436,0.00067566,-0.00006951,0.00166188,0.00396150,0.00
 480705,-0.00145350,0.00007615,-0.00013010,-0.00061435,-0.00011495,0.00
 005847,0.00007567,0.00029928,-0.00024031,-0.00020632,-0.01155008,0.005
 42202,0.00237599,0.00000582,0.00075305,-0.00015168,-0.00003519,-0.0000
 1209,-0.00002473,0.00033760,0.00009983,0.00016090,-0.00124475,0.000216
 27,0.00075956,-0.00003196,0.00004513,-0.00005296,0.00129394,-0.0001300
 1,-0.00006573,-0.03937239,-0.02726943,-0.08904877,0.00888292,0.0003427
 0,-0.01809944,-0.00906275,-0.00014213,-0.03791755,0.04547357,0.0189980
 4,0.14052249,-0.00064914,0.00051599,0.00083906,-0.00018882,-0.00032236
 ,0.00086680,0.00044846,0.00006313,0.00073891,-0.00019383,0.00154177,-0
 .00020122,0.00017406,-0.00023167,-0.00008283,-0.00017967,-0.00122198,-
 0.00255808,-0.00051958,0.00014768,0.00056349,0.00137917,0.00098399,-0.
 00055835,0.00239159,-0.00351663,-0.00413622,-0.00080442,-0.00128540,0.
 00110437,0.00003866,-0.00041776,-0.00009124,-0.00007813,0.00004500,0.0
 0036607,-0.00277148,-0.00263045,0.00091577,0.00009388,0.00001933,-0.00
 004826,0.00011079,-0.00009265,-0.00003052,0.00006433,0.00012305,0.0001
 9493,0.00187920,-0.00107561,0.00024754,0.00024156,0.00002209,-0.000523
 95,-0.00020965,-0.00010979,-0.00004440,-0.00006692,0.00013742,0.000004
 52,-0.00052259,0.00013767,0.00003891,0.00006737,-0.00004533,0.00008177
 ,0.00030043,-0.00009847,0.00008225,-0.03389097,-0.01257828,-0.00247851
 ,0.01832253,0.00677247,0.00673311,-0.02064312,-0.00019436,-0.03762419,
 0.00022904,0.01512689,0.00341100,0.03497726,0.00033459,0.00083284,0.00
 010981,-0.00012824,-0.00071234,0.00058401,0.00014071,-0.00012778,0.000
 23491,-0.00041031,-0.00039270,0.00069043,0.00020596,-0.00008201,0.0000
 1845,-0.00034071,-0.00025118,-0.00189760,-0.00054676,0.00021831,0.0004
 5577,0.00065204,0.00003351,-0.00032512,0.00407563,0.00616719,-0.003263
 88,-0.00074442,0.00032808,-0.00008292,0.00007537,-0.00002487,-0.000117
 87,-0.00002758,-0.00002732,0.00011046,-0.00235020,-0.00184864,0.000112
 66,0.00005544,-0.00002979,0.00002132,0.00003052,-0.00002496,0.00000684
 ,0.00011407,0.00014223,0.00002683,0.00132176,0.00041285,0.00024790,0.0
 0013331,-0.00032421,-0.00023782,-0.00010247,-0.00001407,-0.00002946,-0
 .00011241,0.00009230,0.00004212,-0.00011522,-0.00001574,-0.00007985,0.
 00001928,-0.00000072,0.00002578,-0.00009074,-0.00010879,0.00005310,-0.
 01618409,-0.00316688,-0.00163561,0.00742572,0.00337454,0.00140188,-0.0
 0182018,-0.01614991,-0.01098388,0.01020464,-0.01026121,0.00203237,-0.0
 0181574,0.02196127,0.00069060,-0.00076704,-0.00128759,0.00060437,0.000
 72845,-0.00141646,-0.00064886,-0.00012307,-0.00104805,0.00080413,-0.00
 161681,0.00023462,-0.00021038,0.00034110,0.00014605,0.00031098,0.00173
 064,0.00334088,0.00066542,-0.00028232,-0.00120815,-0.00203724,-0.00105
 694,0.00081774,-0.00643443,0.00099664,0.00633684,0.00155301,0.00080964
 ,-0.00046180,0.00011212,0.00075992,0.00006057,-0.00001740,0.00001787,-
 0.00051482,0.00547994,0.00437107,0.00015440,-0.00014531,-0.00002846,0.
 00008016,-0.00008410,0.00007683,0.00001572,-0.00032628,-0.00049540,-0.
 00017956,-0.00273551,0.00001194,-0.00002267,-0.00042952,0.00014815,0.0
 0125832,0.00026604,0.00011159,0.00006797,-0.00003871,-0.00013978,-0.00
 014154,0.00069908,-0.00016056,-0.00011781,-0.00006055,0.00002221,-0.00
 007134,-0.00036683,0.00017148,-0.00010656,0.02455577,0.01171065,-0.015
 57497,-0.06511226,-0.02194338,-0.03018143,0.03793528,0.01165706,0.0257
 4766,-0.02721862,-0.01953080,0.00227276,0.03218926,0.01247933,0.011799
 05\\0.00000334,-0.00001460,0.00001854,-0.00000057,0.00000096,0.0000045
 0,-0.00000050,-0.00000195,-0.00000039,-0.00000040,-0.00000906,0.000004
 17,-0.00000171,0.00000022,-0.00000011,-0.00000251,0.00000804,-0.000004
 39,0.00000249,0.00000442,0.00000395,-0.00001042,-0.00000112,-0.0000026
 4,-0.00000317,0.00000761,-0.00002200,0.00000084,-0.00000766,0.00000503
 ,-0.00000202,-0.00000194,-0.00000095,-0.00000179,-0.00000071,-0.000001
 13,0.00000453,0.00001385,-0.00002207,0.00000036,-0.00000062,-0.0000005
 0,-0.00000035,-0.00000023,-0.00000093,0.00000104,-0.00003187,0.0000255
 4,-0.00000173,0.00000318,-0.00000026,-0.00000038,0.00002677,-0.0000067
 3,0.00000375,-0.00000151,-0.00000045,0.00000145,0.00000030,-0.00000086
 ,-0.00000011,-0.00000255,-0.00000069,0.00000003,-0.00000176,-0.0000006
 9,0.00000007,0.00000069,0.00000083,0.00000956,0.00000048,0.00000615,-0
 .00000415,0.00001108,-0.00002066,-0.00000074,-0.00000253,-0.00003260,0
 .00000984,0.00000025,0.00000142,-0.00000675,0.00000025,0.00004792\\\@
 The archive entry for this job was punched.


 FROM AN ANONYMOUS WRITER, ON PERSPECTIVE:

 MAN, DESPITE HIS ARTISTIC PRETENSIONS, HIS SOPHISTICATION AND MANY 
 ACCOMPLISHMENTS, OWES THE FACT OF HIS EXISTENCE TO A SIX-INCH LAYER OF 
 TOPSOIL AND THE FACT THAT IT RAINS.
 Job cpu time:       0 days  6 hours 28 minutes 18.3 seconds.
 Elapsed time:       0 days  0 hours  8 minutes 29.2 seconds.
 File lengths (MBytes):  RWF=   1201 Int=      0 D2E=      0 Chk=     24 Scr=      2
 Normal termination of Gaussian 16 at Sat Dec 10 12:52:23 2022.
