 Entering Gaussian System, Link 0=g16
 Initial command:
 /home/chesagar/softwares/G16_AVX2//g16/l1.exe "/home/chesagar/scratch/Gau-37301.inp" -scrdir="/home/chesagar/scratch/"
 Entering Link 1 = /home/chesagar/softwares/G16_AVX2//g16/l1.exe PID=     37302.
  
 Copyright (c) 1988-2019, Gaussian, Inc.  All Rights Reserved.
  
 This is part of the Gaussian(R) 16 program.  It is based on
 the Gaussian(R) 09 system (copyright 2009, Gaussian, Inc.),
 the Gaussian(R) 03 system (copyright 2003, Gaussian, Inc.),
 the Gaussian(R) 98 system (copyright 1998, Gaussian, Inc.),
 the Gaussian(R) 94 system (copyright 1995, Gaussian, Inc.),
 the Gaussian 92(TM) system (copyright 1992, Gaussian, Inc.),
 the Gaussian 90(TM) system (copyright 1990, Gaussian, Inc.),
 the Gaussian 88(TM) system (copyright 1988, Gaussian, Inc.),
 the Gaussian 86(TM) system (copyright 1986, Carnegie Mellon
 University), and the Gaussian 82(TM) system (copyright 1983,
 Carnegie Mellon University). Gaussian is a federally registered
 trademark of Gaussian, Inc.
  
 This software contains proprietary and confidential information,
 including trade secrets, belonging to Gaussian, Inc.
  
 This software is provided under written license and may be
 used, copied, transmitted, or stored only in accord with that
 written license.
  
 The following legend is applicable only to US Government
 contracts under FAR:
  
                    RESTRICTED RIGHTS LEGEND
  
 Use, reproduction and disclosure by the US Government is
 subject to restrictions as set forth in subparagraphs (a)
 and (c) of the Commercial Computer Software - Restricted
 Rights clause in FAR 52.227-19.
  
 Gaussian, Inc.
 340 Quinnipiac St., Bldg. 40, Wallingford CT 06492
  
  
 ---------------------------------------------------------------
 Warning -- This program may not be used in any manner that
 competes with the business of Gaussian, Inc. or will provide
 assistance to any competitor of Gaussian, Inc.  The licensee
 of this program is prohibited from giving any competitor of
 Gaussian, Inc. access to this program.  By using this program,
 the user acknowledges that Gaussian, Inc. is engaged in the
 business of creating and licensing software in the field of
 computational chemistry and represents and warrants to the
 licensee that it is not a competitor of Gaussian, Inc. and that
 it will not use this program in any manner prohibited above.
 ---------------------------------------------------------------
  

 Cite this work as:
 Gaussian 16, Revision C.01,
 M. J. Frisch, G. W. Trucks, H. B. Schlegel, G. E. Scuseria, 
 M. A. Robb, J. R. Cheeseman, G. Scalmani, V. Barone, 
 G. A. Petersson, H. Nakatsuji, X. Li, M. Caricato, A. V. Marenich, 
 J. Bloino, B. G. Janesko, R. Gomperts, B. Mennucci, H. P. Hratchian, 
 J. V. Ortiz, A. F. Izmaylov, J. L. Sonnenberg, D. Williams-Young, 
 F. Ding, F. Lipparini, F. Egidi, J. Goings, B. Peng, A. Petrone, 
 T. Henderson, D. Ranasinghe, V. G. Zakrzewski, J. Gao, N. Rega, 
 G. Zheng, W. Liang, M. Hada, M. Ehara, K. Toyota, R. Fukuda, 
 J. Hasegawa, M. Ishida, T. Nakajima, Y. Honda, O. Kitao, H. Nakai, 
 T. Vreven, K. Throssell, J. A. Montgomery, Jr., J. E. Peralta, 
 F. Ogliaro, M. J. Bearpark, J. J. Heyd, E. N. Brothers, K. N. Kudin, 
 V. N. Staroverov, T. A. Keith, R. Kobayashi, J. Normand, 
 K. Raghavachari, A. P. Rendell, J. C. Burant, S. S. Iyengar, 
 J. Tomasi, M. Cossi, J. M. Millam, M. Klene, C. Adamo, R. Cammi, 
 J. W. Ochterski, R. L. Martin, K. Morokuma, O. Farkas, 
 J. B. Foresman, and D. J. Fox, Gaussian, Inc., Wallingford CT, 2019.
 
 ******************************************
 Gaussian 16:  ES64L-G16RevC.01  3-Jul-2019
                10-Dec-2022 
 ******************************************
 %nprocshared=46
 Will use up to   46 processors via shared memory.
 %mem=100GB
 ---------------------------------------
 # opt freq b3lyp/gen nosymm pseudo=read
 ---------------------------------------
 1/18=20,19=15,26=3,38=1/1,3;
 2/9=110,12=2,15=1,17=6,18=5,40=1/2;
 3/5=7,11=2,16=1,17=8,25=1,30=1,71=1,74=-5/1,2,3;
 4//1;
 5/5=2,38=5/2;
 6/7=2,8=2,9=2,10=2,28=1/1;
 7/30=1/1,2,3,16;
 1/18=20,19=15,26=3/3(2);
 2/9=110,15=1/2;
 99//99;
 2/9=110,15=1/2;
 3/5=7,6=1,11=2,16=1,17=8,25=1,30=1,71=1,74=-5,82=7/1,2,3;
 4/5=5,16=3,69=1/1;
 5/5=2,38=5/2;
 7/30=1/1,2,3,16;
 1/18=20,19=15,26=3/3(-5);
 2/9=110,15=1/2;
 6/7=2,8=2,9=2,10=2,19=2,28=1/1;
 99/9=1/99;
 -------------------
 Title Card Required
 -------------------
 Symbolic Z-matrix:
 Charge =  0 Multiplicity = 1
 42                    0.281     2.42011   12.25657 
 16                    1.24972   4.26855   11.63379 
 16                   -1.67506   2.93004   13.31581 
 16                   -0.4674    1.32147   10.2652 
 16                    1.88829   0.31791   12.03573 
 42                   -2.24482   2.77839   11.00465 
 16                   -3.25365   1.63314   8.93341 
 16                   -1.60158   4.92773   10.39831 
 42                    0.18658   3.52819   9.44128 
 16                   -0.57934   2.65925   7.21063 
 16                    2.11593   1.90324   8.46112 
 42                    2.89077   1.9684    10.6257 
 42                   -2.34479   3.85693   8.42029 
 16                    4.51468   2.92479   12.29647 
 16                    4.87778   1.74902   8.9035 
 16                   -4.61257   4.91373   8.62857 
 16                   -1.90629   6.0376    7.21092 
 42                   -4.93743   2.98979   9.71952 
 16                   -6.87041   2.19305   9.36952 
 16                   -4.48418   3.35256   11.89441 
 42                    3.1644    1.53448   13.57737 
 16                    4.30167   0.2395    14.7935 
 16                    1.33214   2.47481   14.53923 
 42                   -0.01112   4.88202   6.95752 
 16                    1.5246    5.30742   5.42431 
 16                    1.3556    5.619     8.61591 
 42                    3.35972   4.11215   8.79026 
 6                     3.88373   5.87355   7.88135 
 6                     3.69915   3.44624   6.89726 
 6                     4.93803   5.15058   9.37706 
 8                     4.17385   6.85987   7.36362 
 8                     3.96775   3.1019    5.82687 
 8                     5.85282   5.76724   9.7352 
 

 GradGradGradGradGradGradGradGradGradGradGradGradGradGradGradGradGradGrad
 Berny optimization.
 Initialization pass.
                           ----------------------------
                           !    Initial Parameters    !
                           ! (Angstroms and Degrees)  !
 --------------------------                            --------------------------
 ! Name  Definition              Value          Derivative Info.                !
 --------------------------------------------------------------------------------
 ! R1    R(1,2)                  2.1778         estimate D2E/DX2                !
 ! R2    R(1,3)                  2.2821         estimate D2E/DX2                !
 ! R3    R(1,4)                  2.3943         estimate D2E/DX2                !
 ! R4    R(1,5)                  2.6554         estimate D2E/DX2                !
 ! R5    R(1,6)                  2.8417         estimate D2E/DX2                !
 ! R6    R(1,9)                  3.027          estimate D2E/DX2                !
 ! R7    R(1,12)                 3.1104         estimate D2E/DX2                !
 ! R8    R(1,23)                 2.5137         estimate D2E/DX2                !
 ! R9    R(2,9)                  2.5467         estimate D2E/DX2                !
 ! R10   R(3,6)                  2.3852         estimate D2E/DX2                !
 ! R11   R(4,6)                  2.4143         estimate D2E/DX2                !
 ! R12   R(4,9)                  2.4446         estimate D2E/DX2                !
 ! R13   R(5,12)                 2.3911         estimate D2E/DX2                !
 ! R14   R(5,21)                 2.342          estimate D2E/DX2                !
 ! R15   R(6,7)                  2.5728         estimate D2E/DX2                !
 ! R16   R(6,8)                  2.324          estimate D2E/DX2                !
 ! R17   R(6,9)                  2.9863         estimate D2E/DX2                !
 ! R18   R(6,13)                 2.8022         estimate D2E/DX2                !
 ! R19   R(6,18)                 2.9911         estimate D2E/DX2                !
 ! R20   R(6,20)                 2.4771         estimate D2E/DX2                !
 ! R21   R(7,13)                 2.4565         estimate D2E/DX2                !
 ! R22   R(7,18)                 2.3008         estimate D2E/DX2                !
 ! R23   R(8,9)                  2.4642         estimate D2E/DX2                !
 ! R24   R(8,13)                 2.3689         estimate D2E/DX2                !
 ! R25   R(9,10)                 2.5135         estimate D2E/DX2                !
 ! R26   R(9,11)                 2.7062         estimate D2E/DX2                !
 ! R27   R(9,13)                 2.7492         estimate D2E/DX2                !
 ! R28   R(9,24)                 2.8357         estimate D2E/DX2                !
 ! R29   R(9,26)                 2.5336         estimate D2E/DX2                !
 ! R30   R(10,13)                2.4525         estimate D2E/DX2                !
 ! R31   R(10,24)                2.3082         estimate D2E/DX2                !
 ! R32   R(11,12)                2.3            estimate D2E/DX2                !
 ! R33   R(11,27)                2.5563         estimate D2E/DX2                !
 ! R34   R(12,14)                2.5186         estimate D2E/DX2                !
 ! R35   R(12,15)                2.6386         estimate D2E/DX2                !
 ! R36   R(12,21)                2.9959         estimate D2E/DX2                !
 ! R37   R(12,27)                2.8608         estimate D2E/DX2                !
 ! R38   R(13,16)                2.5106         estimate D2E/DX2                !
 ! R39   R(13,17)                2.5318         estimate D2E/DX2                !
 ! R40   R(13,18)                3.0268         estimate D2E/DX2                !
 ! R41   R(13,24)                2.9388         estimate D2E/DX2                !
 ! R42   R(14,21)                2.3231         estimate D2E/DX2                !
 ! R43   R(16,18)                2.2355         estimate D2E/DX2                !
 ! R44   R(17,24)                2.2341         estimate D2E/DX2                !
 ! R45   R(18,19)                2.1198         estimate D2E/DX2                !
 ! R46   R(18,20)                2.251          estimate D2E/DX2                !
 ! R47   R(21,22)                2.1093         estimate D2E/DX2                !
 ! R48   R(21,23)                2.273          estimate D2E/DX2                !
 ! R49   R(24,25)                2.2114         estimate D2E/DX2                !
 ! R50   R(24,26)                2.2719         estimate D2E/DX2                !
 ! R51   R(26,27)                2.5135         estimate D2E/DX2                !
 ! R52   R(27,28)                2.0502         estimate D2E/DX2                !
 ! R53   R(27,29)                2.0352         estimate D2E/DX2                !
 ! R54   R(27,30)                1.9783         estimate D2E/DX2                !
 ! R55   R(28,31)                1.1511         estimate D2E/DX2                !
 ! R56   R(29,32)                1.1561         estimate D2E/DX2                !
 ! R57   R(30,33)                1.1599         estimate D2E/DX2                !
 ! A1    A(2,1,3)              108.925          estimate D2E/DX2                !
 ! A2    A(2,1,4)              106.897          estimate D2E/DX2                !
 ! A3    A(2,1,5)              112.2657         estimate D2E/DX2                !
 ! A4    A(2,1,6)               99.3444         estimate D2E/DX2                !
 ! A5    A(2,1,12)              66.4288         estimate D2E/DX2                !
 ! A6    A(2,1,23)              93.1649         estimate D2E/DX2                !
 ! A7    A(3,1,4)              102.7473         estimate D2E/DX2                !
 ! A8    A(3,1,5)              137.2468         estimate D2E/DX2                !
 ! A9    A(3,1,9)              108.8539         estimate D2E/DX2                !
 ! A10   A(3,1,23)              86.1048         estimate D2E/DX2                !
 ! A11   A(4,1,5)               75.9226         estimate D2E/DX2                !
 ! A12   A(4,1,12)              76.0861         estimate D2E/DX2                !
 ! A13   A(4,1,23)             153.6343         estimate D2E/DX2                !
 ! A14   A(5,1,6)              126.9533         estimate D2E/DX2                !
 ! A15   A(5,1,9)              103.3754         estimate D2E/DX2                !
 ! A16   A(5,1,23)              80.7719         estimate D2E/DX2                !
 ! A17   A(6,1,12)             122.2141         estimate D2E/DX2                !
 ! A18   A(6,1,23)             140.265          estimate D2E/DX2                !
 ! A19   A(9,1,12)              65.9004         estimate D2E/DX2                !
 ! A20   A(9,1,23)             148.1764         estimate D2E/DX2                !
 ! A21   A(12,1,23)             97.3793         estimate D2E/DX2                !
 ! A22   A(1,5,21)              82.174          estimate D2E/DX2                !
 ! A23   A(1,6,7)              130.3207         estimate D2E/DX2                !
 ! A24   A(1,6,8)               89.171          estimate D2E/DX2                !
 ! A25   A(1,6,13)             119.1137         estimate D2E/DX2                !
 ! A26   A(1,6,20)             132.4156         estimate D2E/DX2                !
 ! A27   A(3,6,4)               99.1655         estimate D2E/DX2                !
 ! A28   A(3,6,7)              154.4265         estimate D2E/DX2                !
 ! A29   A(3,6,8)               97.3475         estimate D2E/DX2                !
 ! A30   A(3,6,9)              107.2664         estimate D2E/DX2                !
 ! A31   A(3,6,13)             151.3661         estimate D2E/DX2                !
 ! A32   A(3,6,18)             128.8194         estimate D2E/DX2                !
 ! A33   A(3,6,20)              81.5563         estimate D2E/DX2                !
 ! A34   A(4,6,7)               76.9079         estimate D2E/DX2                !
 ! A35   A(4,6,8)              105.9281         estimate D2E/DX2                !
 ! A36   A(4,6,13)              88.6284         estimate D2E/DX2                !
 ! A37   A(4,6,18)             125.0166         estimate D2E/DX2                !
 ! A38   A(4,6,20)             156.2697         estimate D2E/DX2                !
 ! A39   A(7,6,8)              108.0694         estimate D2E/DX2                !
 ! A40   A(7,6,9)               90.5481         estimate D2E/DX2                !
 ! A41   A(7,6,20)              92.1701         estimate D2E/DX2                !
 ! A42   A(8,6,18)              94.1117         estimate D2E/DX2                !
 ! A43   A(8,6,20)              97.444          estimate D2E/DX2                !
 ! A44   A(9,6,18)             119.3584         estimate D2E/DX2                !
 ! A45   A(9,6,20)             149.9835         estimate D2E/DX2                !
 ! A46   A(13,6,20)            102.1108         estimate D2E/DX2                !
 ! A47   A(1,9,8)               82.4916         estimate D2E/DX2                !
 ! A48   A(1,9,10)             135.102          estimate D2E/DX2                !
 ! A49   A(1,9,11)              95.4407         estimate D2E/DX2                !
 ! A50   A(1,9,13)             114.7015         estimate D2E/DX2                !
 ! A51   A(1,9,26)             126.2052         estimate D2E/DX2                !
 ! A52   A(2,9,4)               94.8154         estimate D2E/DX2                !
 ! A53   A(2,9,6)               87.8323         estimate D2E/DX2                !
 ! A54   A(2,9,8)               78.665          estimate D2E/DX2                !
 ! A55   A(2,9,11)             100.8806         estimate D2E/DX2                !
 ! A56   A(2,9,13)             132.0163         estimate D2E/DX2                !
 ! A57   A(2,9,24)             130.1208         estimate D2E/DX2                !
 ! A58   A(2,9,26)              81.2536         estimate D2E/DX2                !
 ! A59   A(4,9,8)              100.8163         estimate D2E/DX2                !
 ! A60   A(4,9,10)              84.5785         estimate D2E/DX2                !
 ! A61   A(4,9,11)              76.7484         estimate D2E/DX2                !
 ! A62   A(4,9,13)              89.2427         estimate D2E/DX2                !
 ! A63   A(4,9,24)             135.0337         estimate D2E/DX2                !
 ! A64   A(6,9,10)              97.4522         estimate D2E/DX2                !
 ! A65   A(6,9,11)             128.2655         estimate D2E/DX2                !
 ! A66   A(6,9,24)             121.4431         estimate D2E/DX2                !
 ! A67   A(6,9,26)             138.886          estimate D2E/DX2                !
 ! A68   A(8,9,10)             108.6567         estimate D2E/DX2                !
 ! A69   A(8,9,24)              91.056          estimate D2E/DX2                !
 ! A70   A(8,9,26)              89.5791         estimate D2E/DX2                !
 ! A71   A(10,9,11)             71.834          estimate D2E/DX2                !
 ! A72   A(10,9,26)             97.8616         estimate D2E/DX2                !
 ! A73   A(11,9,13)            126.422          estimate D2E/DX2                !
 ! A74   A(11,9,24)             91.0965         estimate D2E/DX2                !
 ! A75   A(11,9,26)             92.7839         estimate D2E/DX2                !
 ! A76   A(13,9,26)            101.84           estimate D2E/DX2                !
 ! A77   A(9,11,12)             83.2406         estimate D2E/DX2                !
 ! A78   A(9,11,27)             77.3726         estimate D2E/DX2                !
 ! A79   A(1,12,11)            102.4102         estimate D2E/DX2                !
 ! A80   A(1,12,14)             97.9332         estimate D2E/DX2                !
 ! A81   A(1,12,21)             65.2341         estimate D2E/DX2                !
 ! A82   A(1,12,27)            111.4141         estimate D2E/DX2                !
 ! A83   A(5,12,11)            113.2152         estimate D2E/DX2                !
 ! A84   A(5,12,14)             98.12           estimate D2E/DX2                !
 ! A85   A(5,12,15)            130.0326         estimate D2E/DX2                !
 ! A86   A(5,12,27)            164.6467         estimate D2E/DX2                !
 ! A87   A(11,12,14)           148.4617         estimate D2E/DX2                !
 ! A88   A(11,12,15)            68.7202         estimate D2E/DX2                !
 ! A89   A(11,12,21)           162.5323         estimate D2E/DX2                !
 ! A90   A(14,12,15)            88.797          estimate D2E/DX2                !
 ! A91   A(14,12,27)            92.0266         estimate D2E/DX2                !
 ! A92   A(15,12,21)           124.2098         estimate D2E/DX2                !
 ! A93   A(15,12,27)            61.3222         estimate D2E/DX2                !
 ! A94   A(21,12,27)           136.5236         estimate D2E/DX2                !
 ! A95   A(6,13,10)            103.9606         estimate D2E/DX2                !
 ! A96   A(6,13,16)             96.7615         estimate D2E/DX2                !
 ! A97   A(6,13,17)            139.9845         estimate D2E/DX2                !
 ! A98   A(6,13,24)            124.4009         estimate D2E/DX2                !
 ! A99   A(7,13,8)             110.5402         estimate D2E/DX2                !
 ! A100  A(7,13,9)              98.9074         estimate D2E/DX2                !
 ! A101  A(7,13,10)             85.8293         estimate D2E/DX2                !
 ! A102  A(7,13,16)             91.6925         estimate D2E/DX2                !
 ! A103  A(7,13,17)            160.6565         estimate D2E/DX2                !
 ! A104  A(7,13,24)            135.5224         estimate D2E/DX2                !
 ! A105  A(8,13,10)            114.0017         estimate D2E/DX2                !
 ! A106  A(8,13,16)             91.3668         estimate D2E/DX2                !
 ! A107  A(8,13,17)             87.4313         estimate D2E/DX2                !
 ! A108  A(8,13,18)             92.2822         estimate D2E/DX2                !
 ! A109  A(8,13,24)             90.5046         estimate D2E/DX2                !
 ! A110  A(9,13,16)            148.3458         estimate D2E/DX2                !
 ! A111  A(9,13,17)             96.9446         estimate D2E/DX2                !
 ! A112  A(9,13,18)            126.5133         estimate D2E/DX2                !
 ! A113  A(10,13,16)           153.7324         estimate D2E/DX2                !
 ! A114  A(10,13,17)            93.4592         estimate D2E/DX2                !
 ! A115  A(10,13,18)           133.5049         estimate D2E/DX2                !
 ! A116  A(16,13,17)            80.4167         estimate D2E/DX2                !
 ! A117  A(16,13,24)           127.7166         estimate D2E/DX2                !
 ! A118  A(17,13,18)           126.8796         estimate D2E/DX2                !
 ! A119  A(6,18,16)             98.0298         estimate D2E/DX2                !
 ! A120  A(6,18,19)            149.9112         estimate D2E/DX2                !
 ! A121  A(7,18,16)            103.5553         estimate D2E/DX2                !
 ! A122  A(7,18,19)            112.9106         estimate D2E/DX2                !
 ! A123  A(7,18,20)            106.128          estimate D2E/DX2                !
 ! A124  A(13,18,19)           144.8705         estimate D2E/DX2                !
 ! A125  A(13,18,20)           101.3076         estimate D2E/DX2                !
 ! A126  A(16,18,19)           112.0493         estimate D2E/DX2                !
 ! A127  A(16,18,20)           107.671          estimate D2E/DX2                !
 ! A128  A(19,18,20)           113.8098         estimate D2E/DX2                !
 ! A129  A(5,21,14)            105.3452         estimate D2E/DX2                !
 ! A130  A(5,21,22)            110.7555         estimate D2E/DX2                !
 ! A131  A(5,21,23)             93.1082         estimate D2E/DX2                !
 ! A132  A(12,21,22)           134.9264         estimate D2E/DX2                !
 ! A133  A(12,21,23)           106.4616         estimate D2E/DX2                !
 ! A134  A(14,21,22)           111.8346         estimate D2E/DX2                !
 ! A135  A(14,21,23)           117.0179         estimate D2E/DX2                !
 ! A136  A(22,21,23)           116.3984         estimate D2E/DX2                !
 ! A137  A(1,23,21)             86.7786         estimate D2E/DX2                !
 ! A138  A(9,24,17)            101.9315         estimate D2E/DX2                !
 ! A139  A(9,24,25)            130.5956         estimate D2E/DX2                !
 ! A140  A(10,24,17)           106.0717         estimate D2E/DX2                !
 ! A141  A(10,24,25)           115.6103         estimate D2E/DX2                !
 ! A142  A(10,24,26)           112.3613         estimate D2E/DX2                !
 ! A143  A(13,24,25)           164.5094         estimate D2E/DX2                !
 ! A144  A(13,24,26)           103.1516         estimate D2E/DX2                !
 ! A145  A(17,24,25)           124.6278         estimate D2E/DX2                !
 ! A146  A(17,24,26)           105.0541         estimate D2E/DX2                !
 ! A147  A(25,24,26)            91.4856         estimate D2E/DX2                !
 ! A148  A(9,26,27)             81.4063         estimate D2E/DX2                !
 ! A149  A(24,26,27)           109.6233         estimate D2E/DX2                !
 ! A150  A(11,27,26)            96.9587         estimate D2E/DX2                !
 ! A151  A(11,27,28)           144.0639         estimate D2E/DX2                !
 ! A152  A(11,27,29)            71.2559         estimate D2E/DX2                !
 ! A153  A(11,27,30)           151.6358         estimate D2E/DX2                !
 ! A154  A(12,27,26)           111.2871         estimate D2E/DX2                !
 ! A155  A(12,27,29)           112.2655         estimate D2E/DX2                !
 ! A156  A(12,27,30)           109.5003         estimate D2E/DX2                !
 ! A157  A(26,27,28)            70.0            estimate D2E/DX2                !
 ! A158  A(26,27,29)           105.3444         estimate D2E/DX2                !
 ! A159  A(26,27,30)           110.0            estimate D2E/DX2                !
 ! A160  A(28,27,29)            79.9867         estimate D2E/DX2                !
 ! A161  A(28,27,30)            58.4404         estimate D2E/DX2                !
 ! A162  A(29,27,30)           108.3353         estimate D2E/DX2                !
 ! A163  L(3,1,12,2,-1)        175.3538         estimate D2E/DX2                !
 ! A164  L(1,6,18,8,-1)        183.2826         estimate D2E/DX2                !
 ! A165  L(1,9,24,11,-1)       186.5372         estimate D2E/DX2                !
 ! A166  L(2,9,10,4,-1)        179.3939         estimate D2E/DX2                !
 ! A167  L(4,9,26,2,-1)        176.069          estimate D2E/DX2                !
 ! A168  L(8,9,11,1,-1)        177.9324         estimate D2E/DX2                !
 ! A169  L(1,12,15,11,-1)      171.1303         estimate D2E/DX2                !
 ! A170  L(18,13,24,8,-1)      182.7869         estimate D2E/DX2                !
 ! A171  L(12,27,28,26,-1)     181.2871         estimate D2E/DX2                !
 ! A172  L(27,28,31,17,-1)     179.7551         estimate D2E/DX2                !
 ! A173  L(27,29,32,10,-1)     184.0592         estimate D2E/DX2                !
 ! A174  L(27,30,33,14,-1)     179.6171         estimate D2E/DX2                !
 ! A175  L(3,1,12,2,-2)        183.6379         estimate D2E/DX2                !
 ! A176  L(1,6,18,8,-2)        179.6553         estimate D2E/DX2                !
 ! A177  L(1,9,24,11,-2)       183.5479         estimate D2E/DX2                !
 ! A178  L(2,9,10,4,-2)        187.3553         estimate D2E/DX2                !
 ! A179  L(4,9,26,2,-2)        168.5778         estimate D2E/DX2                !
 ! A180  L(8,9,11,1,-2)        178.5851         estimate D2E/DX2                !
 ! A181  L(1,12,15,11,-2)      176.2926         estimate D2E/DX2                !
 ! A182  L(18,13,24,8,-2)      185.7668         estimate D2E/DX2                !
 ! A183  L(12,27,28,26,-2)     165.0526         estimate D2E/DX2                !
 ! A184  L(27,28,31,17,-2)     180.3728         estimate D2E/DX2                !
 ! A185  L(27,29,32,10,-2)     179.2576         estimate D2E/DX2                !
 ! A186  L(27,30,33,14,-2)     180.8848         estimate D2E/DX2                !
 ! D1    D(2,1,5,21)            61.0761         estimate D2E/DX2                !
 ! D2    D(3,1,5,21)          -102.4872         estimate D2E/DX2                !
 ! D3    D(4,1,5,21)           163.8513         estimate D2E/DX2                !
 ! D4    D(6,1,5,21)          -177.0832         estimate D2E/DX2                !
 ! D5    D(9,1,5,21)           119.2236         estimate D2E/DX2                !
 ! D6    D(23,1,5,21)          -28.5755         estimate D2E/DX2                !
 ! D7    D(2,1,6,7)            106.7604         estimate D2E/DX2                !
 ! D8    D(2,1,6,8)             -6.4792         estimate D2E/DX2                !
 ! D9    D(2,1,6,13)            40.7015         estimate D2E/DX2                !
 ! D10   D(2,1,6,20)          -105.8187         estimate D2E/DX2                !
 ! D11   D(5,1,6,7)            -20.4189         estimate D2E/DX2                !
 ! D12   D(5,1,6,8)           -133.6584         estimate D2E/DX2                !
 ! D13   D(5,1,6,13)           -86.4777         estimate D2E/DX2                !
 ! D14   D(5,1,6,20)           127.0021         estimate D2E/DX2                !
 ! D15   D(12,1,6,7)            38.8046         estimate D2E/DX2                !
 ! D16   D(12,1,6,8)           -74.435          estimate D2E/DX2                !
 ! D17   D(12,1,6,13)          -27.2543         estimate D2E/DX2                !
 ! D18   D(12,1,6,20)         -173.7745         estimate D2E/DX2                !
 ! D19   D(23,1,6,7)          -146.6517         estimate D2E/DX2                !
 ! D20   D(23,1,6,8)           100.1088         estimate D2E/DX2                !
 ! D21   D(23,1,6,13)          147.2895         estimate D2E/DX2                !
 ! D22   D(23,1,6,20)            0.7693         estimate D2E/DX2                !
 ! D23   D(3,1,9,8)             19.0369         estimate D2E/DX2                !
 ! D24   D(3,1,9,10)           -89.92           estimate D2E/DX2                !
 ! D25   D(3,1,9,11)          -159.5482         estimate D2E/DX2                !
 ! D26   D(3,1,9,13)           -25.0975         estimate D2E/DX2                !
 ! D27   D(3,1,9,26)           102.9714         estimate D2E/DX2                !
 ! D28   D(5,1,9,8)            170.5283         estimate D2E/DX2                !
 ! D29   D(5,1,9,10)            61.5714         estimate D2E/DX2                !
 ! D30   D(5,1,9,11)            -8.0568         estimate D2E/DX2                !
 ! D31   D(5,1,9,13)           126.394          estimate D2E/DX2                !
 ! D32   D(5,1,9,26)          -105.5372         estimate D2E/DX2                !
 ! D33   D(12,1,9,8)          -158.4289         estimate D2E/DX2                !
 ! D34   D(12,1,9,10)           92.6141         estimate D2E/DX2                !
 ! D35   D(12,1,9,11)           22.986          estimate D2E/DX2                !
 ! D36   D(12,1,9,13)          157.4367         estimate D2E/DX2                !
 ! D37   D(12,1,9,26)          -74.4944         estimate D2E/DX2                !
 ! D38   D(23,1,9,8)           -95.4263         estimate D2E/DX2                !
 ! D39   D(23,1,9,10)          155.6167         estimate D2E/DX2                !
 ! D40   D(23,1,9,11)           85.9886         estimate D2E/DX2                !
 ! D41   D(23,1,9,13)         -139.5607         estimate D2E/DX2                !
 ! D42   D(23,1,9,26)          -11.4918         estimate D2E/DX2                !
 ! D43   D(2,1,12,11)          -89.4054         estimate D2E/DX2                !
 ! D44   D(2,1,12,14)           66.347          estimate D2E/DX2                !
 ! D45   D(2,1,12,21)          103.6584         estimate D2E/DX2                !
 ! D46   D(2,1,12,27)          -28.9895         estimate D2E/DX2                !
 ! D47   D(4,1,12,11)           26.3659         estimate D2E/DX2                !
 ! D48   D(4,1,12,14)         -177.8817         estimate D2E/DX2                !
 ! D49   D(4,1,12,21)         -140.5703         estimate D2E/DX2                !
 ! D50   D(4,1,12,27)           86.7818         estimate D2E/DX2                !
 ! D51   D(6,1,12,11)           -3.1618         estimate D2E/DX2                !
 ! D52   D(6,1,12,14)          152.5905         estimate D2E/DX2                !
 ! D53   D(6,1,12,21)         -170.0981         estimate D2E/DX2                !
 ! D54   D(6,1,12,27)           57.2541         estimate D2E/DX2                !
 ! D55   D(9,1,12,11)          -27.9271         estimate D2E/DX2                !
 ! D56   D(9,1,12,14)          127.8252         estimate D2E/DX2                !
 ! D57   D(9,1,12,21)          165.1366         estimate D2E/DX2                !
 ! D58   D(9,1,12,27)           32.4888         estimate D2E/DX2                !
 ! D59   D(23,1,12,11)        -179.648          estimate D2E/DX2                !
 ! D60   D(23,1,12,14)         -23.8956         estimate D2E/DX2                !
 ! D61   D(23,1,12,21)          13.4157         estimate D2E/DX2                !
 ! D62   D(23,1,12,27)        -119.2321         estimate D2E/DX2                !
 ! D63   D(2,1,23,21)          -82.777          estimate D2E/DX2                !
 ! D64   D(3,1,23,21)          168.4504         estimate D2E/DX2                !
 ! D65   D(4,1,23,21)           57.3113         estimate D2E/DX2                !
 ! D66   D(5,1,23,21)           29.2765         estimate D2E/DX2                !
 ! D67   D(6,1,23,21)          168.505          estimate D2E/DX2                !
 ! D68   D(9,1,23,21)          -71.2482         estimate D2E/DX2                !
 ! D69   D(12,1,23,21)         -16.1479         estimate D2E/DX2                !
 ! D70   D(1,4,6,9)             81.0536         estimate D2E/DX2                !
 ! D71   D(1,5,21,14)          -87.5955         estimate D2E/DX2                !
 ! D72   D(1,5,21,22)          151.3105         estimate D2E/DX2                !
 ! D73   D(1,5,21,23)           31.5256         estimate D2E/DX2                !
 ! D74   D(3,6,9,2)             -9.4891         estimate D2E/DX2                !
 ! D75   D(3,6,9,10)           165.3812         estimate D2E/DX2                !
 ! D76   D(3,6,9,11)            92.6762         estimate D2E/DX2                !
 ! D77   D(3,6,9,24)          -146.6031         estimate D2E/DX2                !
 ! D78   D(3,6,9,26)           -83.5399         estimate D2E/DX2                !
 ! D79   D(7,6,9,2)           -170.8619         estimate D2E/DX2                !
 ! D80   D(7,6,9,10)             4.0084         estimate D2E/DX2                !
 ! D81   D(7,6,9,11)           -68.6966         estimate D2E/DX2                !
 ! D82   D(7,6,9,24)            52.024          estimate D2E/DX2                !
 ! D83   D(7,6,9,26)           115.0873         estimate D2E/DX2                !
 ! D84   D(18,6,9,2)           148.6397         estimate D2E/DX2                !
 ! D85   D(18,6,9,10)          -36.49           estimate D2E/DX2                !
 ! D86   D(18,6,9,11)         -109.195          estimate D2E/DX2                !
 ! D87   D(18,6,9,24)           11.5257         estimate D2E/DX2                !
 ! D88   D(18,6,9,26)           74.5889         estimate D2E/DX2                !
 ! D89   D(20,6,9,2)            93.8446         estimate D2E/DX2                !
 ! D90   D(20,6,9,10)          -91.2851         estimate D2E/DX2                !
 ! D91   D(20,6,9,11)         -163.99           estimate D2E/DX2                !
 ! D92   D(20,6,9,24)          -43.2694         estimate D2E/DX2                !
 ! D93   D(20,6,9,26)           19.7938         estimate D2E/DX2                !
 ! D94   D(1,6,13,10)           44.811          estimate D2E/DX2                !
 ! D95   D(1,6,13,16)         -151.4539         estimate D2E/DX2                !
 ! D96   D(1,6,13,17)          -68.3177         estimate D2E/DX2                !
 ! D97   D(1,6,13,24)           -5.5799         estimate D2E/DX2                !
 ! D98   D(3,6,13,10)          105.6283         estimate D2E/DX2                !
 ! D99   D(3,6,13,16)          -90.6365         estimate D2E/DX2                !
 ! D100  D(3,6,13,17)           -7.5004         estimate D2E/DX2                !
 ! D101  D(3,6,13,24)           55.2375         estimate D2E/DX2                !
 ! D102  D(4,6,13,10)           -1.1478         estimate D2E/DX2                !
 ! D103  D(4,6,13,16)          162.5873         estimate D2E/DX2                !
 ! D104  D(4,6,13,17)         -114.2766         estimate D2E/DX2                !
 ! D105  D(4,6,13,24)          -51.5387         estimate D2E/DX2                !
 ! D106  D(20,6,13,10)        -159.8049         estimate D2E/DX2                !
 ! D107  D(20,6,13,16)           3.9303         estimate D2E/DX2                !
 ! D108  D(20,6,13,17)          87.0664         estimate D2E/DX2                !
 ! D109  D(20,6,13,24)         149.8043         estimate D2E/DX2                !
 ! D110  D(3,6,18,16)          112.5517         estimate D2E/DX2                !
 ! D111  D(3,6,18,19)          -68.8878         estimate D2E/DX2                !
 ! D112  D(4,6,18,16)         -103.024          estimate D2E/DX2                !
 ! D113  D(4,6,18,19)           75.5365         estimate D2E/DX2                !
 ! D114  D(8,6,18,16)            9.7016         estimate D2E/DX2                !
 ! D115  D(8,6,18,19)         -171.738          estimate D2E/DX2                !
 ! D116  D(9,6,18,16)          -40.2816         estimate D2E/DX2                !
 ! D117  D(9,6,18,19)          138.2789         estimate D2E/DX2                !
 ! D118  D(6,7,13,18)          -78.7083         estimate D2E/DX2                !
 ! D119  D(6,8,9,13)            76.8018         estimate D2E/DX2                !
 ! D120  D(1,9,11,12)          -29.0417         estimate D2E/DX2                !
 ! D121  D(1,9,11,27)         -102.0093         estimate D2E/DX2                !
 ! D122  D(2,9,11,12)           16.1108         estimate D2E/DX2                !
 ! D123  D(2,9,11,27)          -56.8568         estimate D2E/DX2                !
 ! D124  D(4,9,11,12)          -76.3281         estimate D2E/DX2                !
 ! D125  D(4,9,11,27)         -149.2957         estimate D2E/DX2                !
 ! D126  D(6,9,11,12)          -79.7759         estimate D2E/DX2                !
 ! D127  D(6,9,11,27)         -152.7435         estimate D2E/DX2                !
 ! D128  D(10,9,11,12)        -164.9021         estimate D2E/DX2                !
 ! D129  D(10,9,11,27)         122.1303         estimate D2E/DX2                !
 ! D130  D(13,9,11,12)        -155.338          estimate D2E/DX2                !
 ! D131  D(13,9,11,27)         131.6944         estimate D2E/DX2                !
 ! D132  D(24,9,11,12)         147.4104         estimate D2E/DX2                !
 ! D133  D(24,9,11,27)          74.4428         estimate D2E/DX2                !
 ! D134  D(26,9,11,12)          97.7341         estimate D2E/DX2                !
 ! D135  D(26,9,11,27)          24.7665         estimate D2E/DX2                !
 ! D136  D(1,9,13,7)           -49.842          estimate D2E/DX2                !
 ! D137  D(1,9,13,16)           58.2887         estimate D2E/DX2                !
 ! D138  D(1,9,13,17)          141.2806         estimate D2E/DX2                !
 ! D139  D(1,9,13,18)           -6.1128         estimate D2E/DX2                !
 ! D140  D(2,9,13,7)          -100.5314         estimate D2E/DX2                !
 ! D141  D(2,9,13,16)            7.5993         estimate D2E/DX2                !
 ! D142  D(2,9,13,17)           90.5912         estimate D2E/DX2                !
 ! D143  D(2,9,13,18)          -56.8023         estimate D2E/DX2                !
 ! D144  D(4,9,13,7)            -4.7295         estimate D2E/DX2                !
 ! D145  D(4,9,13,16)          103.4012         estimate D2E/DX2                !
 ! D146  D(4,9,13,17)         -173.6068         estimate D2E/DX2                !
 ! D147  D(4,9,13,18)           38.9997         estimate D2E/DX2                !
 ! D148  D(11,9,13,7)           68.1339         estimate D2E/DX2                !
 ! D149  D(11,9,13,16)         176.2646         estimate D2E/DX2                !
 ! D150  D(11,9,13,17)        -100.7435         estimate D2E/DX2                !
 ! D151  D(11,9,13,18)         111.863          estimate D2E/DX2                !
 ! D152  D(26,9,13,7)          170.629          estimate D2E/DX2                !
 ! D153  D(26,9,13,16)         -81.2403         estimate D2E/DX2                !
 ! D154  D(26,9,13,17)           1.7516         estimate D2E/DX2                !
 ! D155  D(26,9,13,18)        -145.6419         estimate D2E/DX2                !
 ! D156  D(2,9,24,17)          -87.9226         estimate D2E/DX2                !
 ! D157  D(2,9,24,25)           73.1563         estimate D2E/DX2                !
 ! D158  D(4,9,24,17)           94.602          estimate D2E/DX2                !
 ! D159  D(4,9,24,25)         -104.3191         estimate D2E/DX2                !
 ! D160  D(6,9,24,17)           29.2891         estimate D2E/DX2                !
 ! D161  D(6,9,24,25)         -169.632          estimate D2E/DX2                !
 ! D162  D(8,9,24,17)          -11.8999         estimate D2E/DX2                !
 ! D163  D(8,9,24,25)          149.179          estimate D2E/DX2                !
 ! D164  D(11,9,24,17)         166.8279         estimate D2E/DX2                !
 ! D165  D(11,9,24,25)         -32.0933         estimate D2E/DX2                !
 ! D166  D(1,9,26,27)           73.9501         estimate D2E/DX2                !
 ! D167  D(2,9,26,27)           75.7223         estimate D2E/DX2                !
 ! D168  D(6,9,26,27)          152.1617         estimate D2E/DX2                !
 ! D169  D(8,9,26,27)          154.3179         estimate D2E/DX2                !
 ! D170  D(10,9,26,27)         -96.9027         estimate D2E/DX2                !
 ! D171  D(11,9,26,27)         -24.8647         estimate D2E/DX2                !
 ! D172  D(13,9,26,27)        -153.0018         estimate D2E/DX2                !
 ! D173  D(9,10,13,24)          75.9012         estimate D2E/DX2                !
 ! D174  D(9,11,12,1)           28.7864         estimate D2E/DX2                !
 ! D175  D(9,11,12,5)           86.7578         estimate D2E/DX2                !
 ! D176  D(9,11,12,14)        -100.1698         estimate D2E/DX2                !
 ! D177  D(9,11,12,15)        -147.5062         estimate D2E/DX2                !
 ! D178  D(9,11,12,21)          71.9253         estimate D2E/DX2                !
 ! D179  D(9,11,27,26)         -25.1454         estimate D2E/DX2                !
 ! D180  D(9,11,27,28)         -90.392          estimate D2E/DX2                !
 ! D181  D(9,11,27,29)        -129.0376         estimate D2E/DX2                !
 ! D182  D(9,11,27,30)         136.9073         estimate D2E/DX2                !
 ! D183  D(1,12,21,22)         146.3332         estimate D2E/DX2                !
 ! D184  D(1,12,21,23)         -15.3865         estimate D2E/DX2                !
 ! D185  D(11,12,21,22)         98.9895         estimate D2E/DX2                !
 ! D186  D(11,12,21,23)        -62.7303         estimate D2E/DX2                !
 ! D187  D(15,12,21,22)        -35.3122         estimate D2E/DX2                !
 ! D188  D(15,12,21,23)        162.968          estimate D2E/DX2                !
 ! D189  D(27,12,21,22)       -118.0528         estimate D2E/DX2                !
 ! D190  D(27,12,21,23)         80.2274         estimate D2E/DX2                !
 ! D191  D(1,12,27,26)         -10.7394         estimate D2E/DX2                !
 ! D192  D(1,12,27,29)        -128.5402         estimate D2E/DX2                !
 ! D193  D(1,12,27,30)         111.0889         estimate D2E/DX2                !
 ! D194  D(5,12,27,26)          21.4291         estimate D2E/DX2                !
 ! D195  D(5,12,27,29)         -96.3717         estimate D2E/DX2                !
 ! D196  D(5,12,27,30)         143.2574         estimate D2E/DX2                !
 ! D197  D(14,12,27,26)       -110.0753         estimate D2E/DX2                !
 ! D198  D(14,12,27,29)        132.1238         estimate D2E/DX2                !
 ! D199  D(14,12,27,30)         11.7529         estimate D2E/DX2                !
 ! D200  D(15,12,27,26)        162.4064         estimate D2E/DX2                !
 ! D201  D(15,12,27,29)         44.6055         estimate D2E/DX2                !
 ! D202  D(15,12,27,30)        -75.7653         estimate D2E/DX2                !
 ! D203  D(21,12,27,26)        -86.831          estimate D2E/DX2                !
 ! D204  D(21,12,27,29)        155.3681         estimate D2E/DX2                !
 ! D205  D(21,12,27,30)         34.9973         estimate D2E/DX2                !
 ! D206  D(8,13,18,19)         167.4725         estimate D2E/DX2                !
 ! D207  D(8,13,18,20)         -14.0286         estimate D2E/DX2                !
 ! D208  D(9,13,18,19)        -142.9965         estimate D2E/DX2                !
 ! D209  D(9,13,18,20)          35.5023         estimate D2E/DX2                !
 ! D210  D(10,13,18,19)        -65.7234         estimate D2E/DX2                !
 ! D211  D(10,13,18,20)        112.7754         estimate D2E/DX2                !
 ! D212  D(17,13,18,19)         78.9723         estimate D2E/DX2                !
 ! D213  D(17,13,18,20)       -102.5288         estimate D2E/DX2                !
 ! D214  D(6,13,24,25)         130.8875         estimate D2E/DX2                !
 ! D215  D(6,13,24,26)         -29.6322         estimate D2E/DX2                !
 ! D216  D(7,13,24,25)          53.3493         estimate D2E/DX2                !
 ! D217  D(7,13,24,26)        -107.1704         estimate D2E/DX2                !
 ! D218  D(8,13,24,25)         173.9981         estimate D2E/DX2                !
 ! D219  D(8,13,24,26)          13.4784         estimate D2E/DX2                !
 ! D220  D(16,13,24,25)        -93.8834         estimate D2E/DX2                !
 ! D221  D(16,13,24,26)        105.5969         estimate D2E/DX2                !
 ! D222  D(5,21,23,1)          -33.2365         estimate D2E/DX2                !
 ! D223  D(12,21,23,1)          17.3733         estimate D2E/DX2                !
 ! D224  D(14,21,23,1)          75.74           estimate D2E/DX2                !
 ! D225  D(22,21,23,1)        -148.2715         estimate D2E/DX2                !
 ! D226  D(10,24,26,27)         53.6417         estimate D2E/DX2                !
 ! D227  D(13,24,26,27)        109.9609         estimate D2E/DX2                !
 ! D228  D(17,24,26,27)        168.5163         estimate D2E/DX2                !
 ! D229  D(25,24,26,27)        -64.9275         estimate D2E/DX2                !
 ! D230  D(9,26,27,11)          26.6097         estimate D2E/DX2                !
 ! D231  D(9,26,27,12)         -22.8903         estimate D2E/DX2                !
 ! D232  D(9,26,27,28)         172.0571         estimate D2E/DX2                !
 ! D233  D(9,26,27,29)          99.0198         estimate D2E/DX2                !
 ! D234  D(9,26,27,30)        -144.428          estimate D2E/DX2                !
 ! D235  D(24,26,27,11)        -40.8075         estimate D2E/DX2                !
 ! D236  D(24,26,27,12)        -90.3076         estimate D2E/DX2                !
 ! D237  D(24,26,27,28)        104.6398         estimate D2E/DX2                !
 ! D238  D(24,26,27,29)         31.6026         estimate D2E/DX2                !
 ! D239  D(24,26,27,30)        148.1548         estimate D2E/DX2                !
 --------------------------------------------------------------------------------
 Trust Radius=3.00D-01 FncErr=1.00D-07 GrdErr=1.00D-06 EigMax=2.50D+02 EigMin=1.00D-04
 Number of steps in this run=    198 maximum allowed number of steps=    198.
 GradGradGradGradGradGradGradGradGradGradGradGradGradGradGradGradGradGrad

                          Input orientation:                          
 ---------------------------------------------------------------------
 Center     Atomic      Atomic             Coordinates (Angstroms)
 Number     Number       Type             X           Y           Z
 ---------------------------------------------------------------------
      1         42           0        0.280997    2.420111   12.256568
      2         16           0        1.249715    4.268554   11.633787
      3         16           0       -1.675061    2.930040   13.315814
      4         16           0       -0.467401    1.321466   10.265200
      5         16           0        1.888290    0.317912   12.035727
      6         42           0       -2.244816    2.778388   11.004647
      7         16           0       -3.253648    1.633142    8.933414
      8         16           0       -1.601578    4.927731   10.398311
      9         42           0        0.186584    3.528191    9.441284
     10         16           0       -0.579342    2.659251    7.210628
     11         16           0        2.115932    1.903235    8.461121
     12         42           0        2.890765    1.968400   10.625697
     13         42           0       -2.344792    3.856933    8.420295
     14         16           0        4.514680    2.924788   12.296470
     15         16           0        4.877783    1.749015    8.903496
     16         16           0       -4.612569    4.913733    8.628565
     17         16           0       -1.906286    6.037601    7.210921
     18         42           0       -4.937429    2.989785    9.719524
     19         16           0       -6.870408    2.193053    9.369516
     20         16           0       -4.484176    3.352561   11.894405
     21         42           0        3.164404    1.534477   13.577365
     22         16           0        4.301668    0.239499   14.793502
     23         16           0        1.332144    2.474805   14.539231
     24         42           0       -0.011118    4.882015    6.957521
     25         16           0        1.524604    5.307421    5.424308
     26         16           0        1.355604    5.618996    8.615912
     27         42           0        3.359715    4.112152    8.790261
     28          6           0        3.883728    5.873551    7.881347
     29          6           0        3.699148    3.446242    6.897258
     30          6           0        4.938025    5.150584    9.377059
     31          8           0        4.173849    6.859873    7.363620
     32          8           0        3.967754    3.101905    5.826866
     33          8           0        5.852822    5.767241    9.735198
 ---------------------------------------------------------------------
                    Distance matrix (angstroms):
                    1          2          3          4          5
     1  Mo   0.000000
     2  S    2.177846   0.000000
     3  S    2.282146   3.629759   0.000000
     4  S    2.394299   3.675166   3.654066   0.000000
     5  S    2.655448   4.022052   4.599925   3.113064   0.000000
     6  Mo   2.841725   3.850735   2.385186   2.414251   4.919312
     7  S    4.914915   5.875176   4.835216   3.103863   6.147658
     8  S    3.644910   3.176600   3.536664   3.782753   6.009221
     9  Mo   3.026975   2.546656   4.339987   2.444620   4.464620
    10  S    5.124342   5.049717   6.208641   3.336557   5.903614
    11  S    4.247300   4.051033   6.244517   3.204179   3.916998
    12  Mo   3.110414   3.000000   5.385931   3.438860   2.391077
    13  Mo   4.865821   4.839054   5.027303   3.654704   6.596590
    14  S    4.263844   3.592332   6.273116   5.614074   3.709678
    15  S    5.729215   5.192826   7.987686   5.532452   4.560263
    16  S    6.582366   6.619214   5.876589   5.724105   8.659763
    17  S    6.582476   5.714159   6.854204   5.800081   8.390018
    18  Mo   5.830359   6.601546   4.855916   4.802312   7.687271
    19  S    7.715518   8.681649   6.565672   6.523834   9.345567
    20  S    4.869035   5.812441   3.176485   4.786871   7.059560
    21  Mo   3.292854   3.862474   5.043454   4.919941   2.342039
    22  S    5.230382   5.960830   6.718918   6.664847   3.665497
    23  S    2.513653   3.415543   3.278303   4.778692   3.350973
    24  Mo   5.850316   4.881956   6.856151   4.881234   7.087098
    25  S    7.520831   6.301781   8.841135   6.579526   8.290858
    26  S    4.964073   3.307941   6.205199   4.950986   6.330907
    27  Mo   4.935260   3.544320   6.872189   4.960866   5.205228
    28  C    6.636903   4.857453   8.312510   6.733243   7.218433
    29  C    6.438859   5.395426   8.387279   5.763492   6.282477
    30  C    6.118412   4.412984   8.011087   6.683530   6.302707
    31  O    7.668554   5.787903   9.223988   7.786804   8.357608
    32  O    7.442989   6.516835   9.378446   6.522221   7.115107
    33  O    6.971787   5.199932   8.805654   7.745388   7.120754
                    6          7          8          9         10
     6  Mo   0.000000
     7  S    2.572807   0.000000
     8  S    2.324021   3.966053   0.000000
     9  Mo   2.986304   3.960346   2.464170   0.000000
    10  S    4.145187   3.342574   4.043797   2.513469   0.000000
    11  S    5.123625   5.397073   5.169154   2.706212   3.065909
    12  Mo   5.212857   6.382008   5.384282   3.338919   4.917481
    13  Mo   2.802165   2.456533   2.368865   2.749246   2.452458
    14  S    6.883388   8.563026   6.709948   5.220019   7.203149
    15  S    7.497057   8.132312   7.370266   5.045992   5.785719
    16  S    3.976395   3.563969   3.492601   5.060841   4.833234
    17  S    5.012926   4.917482   3.388822   3.956231   3.629605
    18  Mo   2.991052   2.300775   3.917179   5.159729   5.039517
    19  S    4.940888   3.685734   6.024737   7.182540   6.667507
    20  S    2.477111   3.638416   3.609547   5.278698   6.137277
    21  Mo   6.117667   7.922588   6.658464   5.472611   7.471017
    22  S    7.978586   9.662591   8.726141   7.509704   9.336993
    23  S    5.037866   7.291301   5.636558   5.330196   7.576029
    24  Mo   5.078768   4.997332   3.790869   2.835666   2.308164
    25  S    7.193380   6.974657   5.887095   4.592609   3.824962
    26  S    5.170893   6.101889   3.521323   2.533636   3.805119
    27  Mo   6.171969   7.064174   5.278771   3.291444   4.485792
    28  C    7.542817   8.368396   6.108868   4.647902   5.540811
    29  C    7.255852   7.468242   6.523027   4.337844   4.361540
    30  C    7.737542   8.925958   6.622615   5.021203   6.429736
    31  O    8.432963   9.216869   6.804269   5.595987   6.345192
    32  O    8.093831   7.997284   7.432981   5.248141   4.773554
    33  O    8.724476  10.033017   7.530775   6.099671   7.576661
                   11         12         13         14         15
    11  S    0.000000
    12  Mo   2.300000   0.000000
    13  Mo   4.869975   5.986770   0.000000
    14  S    4.637614   2.518583   7.933850   0.000000
    15  S    2.801303   2.638626   7.539389   3.609232   0.000000
    16  S    7.373185   8.304429   2.510581  10.035741  10.007887
    17  S    5.902052   7.157569   2.531834   8.762489   8.202461
    18  Mo   7.246659   7.946383   3.026831   9.797308   9.926923
    19  S    9.036785   9.844235   4.914338  11.778061  11.765812
    20  S    7.579539   7.610209   4.111058   9.017985   9.958071
    21  Mo   5.235573   2.995916   7.895595   2.323123   4.982644
    22  S    6.902500   4.727615   9.893383   3.673053   6.107595
    23  S    6.155033   4.242817   7.271280   3.919311   6.697749
    24  Mo   3.957055   5.510498   2.938798   7.267597   6.124040
    25  S    4.600042   6.330079   5.104124   7.864102   6.000901
    26  S    3.795910   4.441037   4.103177   5.548425   5.240725
    27  Mo   2.556295   2.860841   5.722186   3.877793   2.811009
    28  C    4.384592   4.875206   6.568993   5.346645   4.364027
    29  C    2.707972   4.091303   6.246401   5.485298   2.880061
    30  C    4.398684   3.984553   7.458442   3.695450   3.434904
    31  O    5.477937   6.017804   7.254439   6.319341   5.384014
    32  O    3.435892   5.047130   6.866162   6.495096   3.481970
    33  O    5.524324   4.898772   8.519338   4.053428   4.217650
                   16         17         18         19         20
    16  S    0.000000
    17  S    3.255267   0.000000
    18  Mo   2.235464   4.976957   0.000000
    19  S    3.612332   6.639472   2.119834   0.000000
    20  S    3.622079   5.982473   2.251034   3.662462   0.000000
    21  Mo   9.817907   9.301700   9.090685  10.901246   8.039811
    22  S   11.803327  11.386493  10.893587  12.571845   9.761505
    23  S    8.730633   8.768413   7.924792   9.699855   6.449429
    24  Mo   4.895584   2.234111   5.956319   7.752296   6.835225
    25  S    6.934490   3.936516   8.098036   9.784691   9.043731
    26  S    6.009713   3.576193   6.908905   8.942722   7.070239
    27  Mo   8.014112   5.825155   8.424122  10.424677   8.469906
    28  C    8.582928   5.831007   9.460857  11.463514   9.616748
    29  C    8.616008   6.183398   9.097472  10.926942   9.588902
    30  C    9.582807   7.233502  10.114886  12.173173   9.917045
    31  O    9.087832   6.137385  10.175620  12.156416  10.382227
    32  O    9.206203   6.711055   9.719447  11.438625  10.407352
    33  O   10.558292   8.163873  11.141994  13.220784  10.832654
                   21         22         23         24         25
    21  Mo   0.000000
    22  S    2.109343   0.000000
    23  S    2.273011   3.725496   0.000000
    24  Mo   8.069218  10.077484   8.067301   0.000000
    25  S    9.132162  11.008075   9.546862   2.211369   0.000000
    26  S    6.676157   8.705223   6.706131   2.271856   3.211227
    27  Mo   5.440489   7.205805   6.312100   3.913329   4.015712
    28  C    7.196500   8.927211   7.898701   4.123885   3.452971
    29  C    6.968832   8.543822   8.058917   3.978838   3.219039
    30  C    5.819324   7.339044   6.841797   5.515461   5.224967
    31  O    8.245571   9.952328   8.876570   4.646589   3.631740
    32  O    7.948109   9.418356   9.123870   4.503176   3.315922
    33  O    6.317130   7.651696   7.372611   6.548657   6.126065
                   26         27         28         29         30
    26  S    0.000000
    27  Mo   2.513451   0.000000
    28  C    2.644957   2.050181   0.000000
    29  C    3.628613   2.035218   2.625706   0.000000
    30  C    3.692221   1.978316   1.967582   3.254076   0.000000
    31  O    3.324232   3.201264   1.151105   3.477889   2.749467
    32  O    4.575790   3.189360   3.451083   1.156052   4.212171
    33  O    4.636782   3.138122   2.706547   4.251970   1.159906
                   31         32         33
    31  O    0.000000
    32  O    4.065269   0.000000
    33  O    3.104380   5.092402   0.000000
 Symmetry turned off by external request.
 Stoichiometry    C3Mo9O3S18
 Framework group  C1[X(C3Mo9O3S18)]
 Deg. of freedom    93
 Full point group                 C1      NOp   1
 Rotational constants (GHZ):           0.0500133           0.0316809           0.0219443
 General basis read from cards:  (5D, 7F)
 ======================================================================================================
                                       Pseudopotential Parameters
 ======================================================================================================
  Center     Atomic      Valence      Angular      Power
  Number     Number     Electrons     Momentum     of R      Exponent        Coefficient   SO-Coeffient
 ======================================================================================================
    1         42           14
                                      F and up 
                                                     0      537.9667807       -0.04694920    0.00000000
                                                     1      147.8982938      -20.20800840    0.00000000
                                                     2       45.7358898     -106.21163020    0.00000000
                                                     2       13.2911467      -41.81073680    0.00000000
                                                     2        4.7059961       -4.20541030    0.00000000
                                      S - F
                                                     0      110.2991760        2.80637170    0.00000000
                                                     1       23.2014645       44.51620120    0.00000000
                                                     2        5.3530131       82.77852270    0.00000000
                                      P - F
                                                     0       63.2901397        4.94208760    0.00000000
                                                     1       23.3315302       25.86049760    0.00000000
                                                     2       24.6759423      132.47087420    0.00000000
                                                     2        4.6493040       57.31497940    0.00000000
                                      D - F
                                                     0      104.4839977        3.00545910    0.00000000
                                                     1       66.2307245       26.36378510    0.00000000
                                                     2       39.1283176      183.38491990    0.00000000
                                                     2       13.1164437       98.44530680    0.00000000
                                                     2        3.6280263       22.49013770    0.00000000
    2         16
                                   No pseudopotential on this center.
    3         16
                                   No pseudopotential on this center.
    4         16
                                   No pseudopotential on this center.
    5         16
                                   No pseudopotential on this center.
    6         42           14
                                      F and up 
                                                     0      537.9667807       -0.04694920    0.00000000
                                                     1      147.8982938      -20.20800840    0.00000000
                                                     2       45.7358898     -106.21163020    0.00000000
                                                     2       13.2911467      -41.81073680    0.00000000
                                                     2        4.7059961       -4.20541030    0.00000000
                                      S - F
                                                     0      110.2991760        2.80637170    0.00000000
                                                     1       23.2014645       44.51620120    0.00000000
                                                     2        5.3530131       82.77852270    0.00000000
                                      P - F
                                                     0       63.2901397        4.94208760    0.00000000
                                                     1       23.3315302       25.86049760    0.00000000
                                                     2       24.6759423      132.47087420    0.00000000
                                                     2        4.6493040       57.31497940    0.00000000
                                      D - F
                                                     0      104.4839977        3.00545910    0.00000000
                                                     1       66.2307245       26.36378510    0.00000000
                                                     2       39.1283176      183.38491990    0.00000000
                                                     2       13.1164437       98.44530680    0.00000000
                                                     2        3.6280263       22.49013770    0.00000000
    7         16
                                   No pseudopotential on this center.
    8         16
                                   No pseudopotential on this center.
    9         42           14
                                      F and up 
                                                     0      537.9667807       -0.04694920    0.00000000
                                                     1      147.8982938      -20.20800840    0.00000000
                                                     2       45.7358898     -106.21163020    0.00000000
                                                     2       13.2911467      -41.81073680    0.00000000
                                                     2        4.7059961       -4.20541030    0.00000000
                                      S - F
                                                     0      110.2991760        2.80637170    0.00000000
                                                     1       23.2014645       44.51620120    0.00000000
                                                     2        5.3530131       82.77852270    0.00000000
                                      P - F
                                                     0       63.2901397        4.94208760    0.00000000
                                                     1       23.3315302       25.86049760    0.00000000
                                                     2       24.6759423      132.47087420    0.00000000
                                                     2        4.6493040       57.31497940    0.00000000
                                      D - F
                                                     0      104.4839977        3.00545910    0.00000000
                                                     1       66.2307245       26.36378510    0.00000000
                                                     2       39.1283176      183.38491990    0.00000000
                                                     2       13.1164437       98.44530680    0.00000000
                                                     2        3.6280263       22.49013770    0.00000000
   10         16
                                   No pseudopotential on this center.
   11         16
                                   No pseudopotential on this center.
   12         42           14
                                      F and up 
                                                     0      537.9667807       -0.04694920    0.00000000
                                                     1      147.8982938      -20.20800840    0.00000000
                                                     2       45.7358898     -106.21163020    0.00000000
                                                     2       13.2911467      -41.81073680    0.00000000
                                                     2        4.7059961       -4.20541030    0.00000000
                                      S - F
                                                     0      110.2991760        2.80637170    0.00000000
                                                     1       23.2014645       44.51620120    0.00000000
                                                     2        5.3530131       82.77852270    0.00000000
                                      P - F
                                                     0       63.2901397        4.94208760    0.00000000
                                                     1       23.3315302       25.86049760    0.00000000
                                                     2       24.6759423      132.47087420    0.00000000
                                                     2        4.6493040       57.31497940    0.00000000
                                      D - F
                                                     0      104.4839977        3.00545910    0.00000000
                                                     1       66.2307245       26.36378510    0.00000000
                                                     2       39.1283176      183.38491990    0.00000000
                                                     2       13.1164437       98.44530680    0.00000000
                                                     2        3.6280263       22.49013770    0.00000000
   13         42           14
                                      F and up 
                                                     0      537.9667807       -0.04694920    0.00000000
                                                     1      147.8982938      -20.20800840    0.00000000
                                                     2       45.7358898     -106.21163020    0.00000000
                                                     2       13.2911467      -41.81073680    0.00000000
                                                     2        4.7059961       -4.20541030    0.00000000
                                      S - F
                                                     0      110.2991760        2.80637170    0.00000000
                                                     1       23.2014645       44.51620120    0.00000000
                                                     2        5.3530131       82.77852270    0.00000000
                                      P - F
                                                     0       63.2901397        4.94208760    0.00000000
                                                     1       23.3315302       25.86049760    0.00000000
                                                     2       24.6759423      132.47087420    0.00000000
                                                     2        4.6493040       57.31497940    0.00000000
                                      D - F
                                                     0      104.4839977        3.00545910    0.00000000
                                                     1       66.2307245       26.36378510    0.00000000
                                                     2       39.1283176      183.38491990    0.00000000
                                                     2       13.1164437       98.44530680    0.00000000
                                                     2        3.6280263       22.49013770    0.00000000
   14         16
                                   No pseudopotential on this center.
   15         16
                                   No pseudopotential on this center.
   16         16
                                   No pseudopotential on this center.
   17         16
                                   No pseudopotential on this center.
   18         42           14
                                      F and up 
                                                     0      537.9667807       -0.04694920    0.00000000
                                                     1      147.8982938      -20.20800840    0.00000000
                                                     2       45.7358898     -106.21163020    0.00000000
                                                     2       13.2911467      -41.81073680    0.00000000
                                                     2        4.7059961       -4.20541030    0.00000000
                                      S - F
                                                     0      110.2991760        2.80637170    0.00000000
                                                     1       23.2014645       44.51620120    0.00000000
                                                     2        5.3530131       82.77852270    0.00000000
                                      P - F
                                                     0       63.2901397        4.94208760    0.00000000
                                                     1       23.3315302       25.86049760    0.00000000
                                                     2       24.6759423      132.47087420    0.00000000
                                                     2        4.6493040       57.31497940    0.00000000
                                      D - F
                                                     0      104.4839977        3.00545910    0.00000000
                                                     1       66.2307245       26.36378510    0.00000000
                                                     2       39.1283176      183.38491990    0.00000000
                                                     2       13.1164437       98.44530680    0.00000000
                                                     2        3.6280263       22.49013770    0.00000000
   19         16
                                   No pseudopotential on this center.
   20         16
                                   No pseudopotential on this center.
   21         42           14
                                      F and up 
                                                     0      537.9667807       -0.04694920    0.00000000
                                                     1      147.8982938      -20.20800840    0.00000000
                                                     2       45.7358898     -106.21163020    0.00000000
                                                     2       13.2911467      -41.81073680    0.00000000
                                                     2        4.7059961       -4.20541030    0.00000000
                                      S - F
                                                     0      110.2991760        2.80637170    0.00000000
                                                     1       23.2014645       44.51620120    0.00000000
                                                     2        5.3530131       82.77852270    0.00000000
                                      P - F
                                                     0       63.2901397        4.94208760    0.00000000
                                                     1       23.3315302       25.86049760    0.00000000
                                                     2       24.6759423      132.47087420    0.00000000
                                                     2        4.6493040       57.31497940    0.00000000
                                      D - F
                                                     0      104.4839977        3.00545910    0.00000000
                                                     1       66.2307245       26.36378510    0.00000000
                                                     2       39.1283176      183.38491990    0.00000000
                                                     2       13.1164437       98.44530680    0.00000000
                                                     2        3.6280263       22.49013770    0.00000000
   22         16
                                   No pseudopotential on this center.
   23         16
                                   No pseudopotential on this center.
   24         42           14
                                      F and up 
                                                     0      537.9667807       -0.04694920    0.00000000
                                                     1      147.8982938      -20.20800840    0.00000000
                                                     2       45.7358898     -106.21163020    0.00000000
                                                     2       13.2911467      -41.81073680    0.00000000
                                                     2        4.7059961       -4.20541030    0.00000000
                                      S - F
                                                     0      110.2991760        2.80637170    0.00000000
                                                     1       23.2014645       44.51620120    0.00000000
                                                     2        5.3530131       82.77852270    0.00000000
                                      P - F
                                                     0       63.2901397        4.94208760    0.00000000
                                                     1       23.3315302       25.86049760    0.00000000
                                                     2       24.6759423      132.47087420    0.00000000
                                                     2        4.6493040       57.31497940    0.00000000
                                      D - F
                                                     0      104.4839977        3.00545910    0.00000000
                                                     1       66.2307245       26.36378510    0.00000000
                                                     2       39.1283176      183.38491990    0.00000000
                                                     2       13.1164437       98.44530680    0.00000000
                                                     2        3.6280263       22.49013770    0.00000000
   25         16
                                   No pseudopotential on this center.
   26         16
                                   No pseudopotential on this center.
   27         42           14
                                      F and up 
                                                     0      537.9667807       -0.04694920    0.00000000
                                                     1      147.8982938      -20.20800840    0.00000000
                                                     2       45.7358898     -106.21163020    0.00000000
                                                     2       13.2911467      -41.81073680    0.00000000
                                                     2        4.7059961       -4.20541030    0.00000000
                                      S - F
                                                     0      110.2991760        2.80637170    0.00000000
                                                     1       23.2014645       44.51620120    0.00000000
                                                     2        5.3530131       82.77852270    0.00000000
                                      P - F
                                                     0       63.2901397        4.94208760    0.00000000
                                                     1       23.3315302       25.86049760    0.00000000
                                                     2       24.6759423      132.47087420    0.00000000
                                                     2        4.6493040       57.31497940    0.00000000
                                      D - F
                                                     0      104.4839977        3.00545910    0.00000000
                                                     1       66.2307245       26.36378510    0.00000000
                                                     2       39.1283176      183.38491990    0.00000000
                                                     2       13.1164437       98.44530680    0.00000000
                                                     2        3.6280263       22.49013770    0.00000000
   28          6
                                   No pseudopotential on this center.
   29          6
                                   No pseudopotential on this center.
   30          6
                                   No pseudopotential on this center.
   31          8
                                   No pseudopotential on this center.
   32          8
                                   No pseudopotential on this center.
   33          8
                                   No pseudopotential on this center.
 ======================================================================================================
   606 basis functions,  1545 primitive gaussians,   648 cartesian basis functions
   228 alpha electrons      228 beta electrons
       nuclear repulsion energy     11123.5360707151 Hartrees.
 NAtoms=   33 NActive=   33 NUniq=   33 SFac= 1.00D+00 NAtFMM=   60 NAOKFM=F Big=F
 Integral buffers will be    131072 words long.
 Raffenetti 2 integral format.
 Two-electron integral symmetry is turned off.
 One-electron integrals computed using PRISM.
   1 Symmetry operations used in ECPInt.
 ECPInt:  NShTT=   17391 NPrTT=  138894 LenC2=   14722 LenP2D=   67472.
 LDataN:  DoStor=T MaxTD1= 5 Len=  102
 NBasis=   606 RedAO= T EigKep=  2.26D-04  NBF=   606
 NBsUse=   606 1.00D-06 EigRej= -1.00D+00 NBFU=   606
 Defaulting to unpruned grid for atomic number  42.
 Defaulting to unpruned grid for atomic number  42.
 Defaulting to unpruned grid for atomic number  42.
 Defaulting to unpruned grid for atomic number  42.
 Defaulting to unpruned grid for atomic number  42.
 Defaulting to unpruned grid for atomic number  42.
 Defaulting to unpruned grid for atomic number  42.
 Defaulting to unpruned grid for atomic number  42.
 Defaulting to unpruned grid for atomic number  42.
 ExpMin= 2.47D-02 ExpMax= 2.19D+04 ExpMxC= 3.30D+03 IAcc=3 IRadAn=         5 AccDes= 0.00D+00
 Harris functional with IExCor=  402 and IRadAn=       5 diagonalized for initial guess.
 HarFok:  IExCor=  402 AccDes= 0.00D+00 IRadAn=         5 IDoV= 1 UseB2=F ITyADJ=14
 ICtDFT=  3500011 ScaDFX=  1.000000  1.000000  1.000000  1.000000
 Defaulting to unpruned grid for atomic number  42.
 FoFCou: FMM=F IPFlag=           0 FMFlag=      100000 FMFlg1=           0
         NFxFlg=           0 DoJE=T BraDBF=F KetDBF=T FulRan=T
[...]
 34924,0.00007775,-0.00015768,-0.00155158,0.00077082,0.00027449,0.00023
 757,0.00010570,-0.00027892,-0.00007194,0.00001456,0.00235569,0.0015932
 2,-0.00010305,0.00013878,-0.00058435,-0.00064626,0.00003468,-0.0001593
 8,0.00016993,-0.00011346,0.00041405,-0.00051364,0.00140779,-0.00149822
 ,0.00066769,0.00025949,-0.00028794,0.00022586,-0.00116998,-0.00283915,
 0.00306627,-0.00659528,0.00238108,-0.00539068,-0.00121787,0.00068829,0
 .00105183,0.00091620,-0.00072630,0.00137438,0.00552048,-0.00189427,-0.
 00033037,0.00020699,0.00006304,-0.00006026,0.00029294,-0.00055059,-0.0
 0035974,-0.00019341,-0.00014831,-0.00035129,0.00024640,0.00008201,0.00
 006858,0.00008200,0.00002583,0.00007783,0.00029604,-0.00011526,0.00162
 086,-0.00037028,0.00036794,-0.00015362,0.00019819,-0.00033496,-0.00017
 135,-0.00010399,0.00198120,-0.00438807,-0.00084113,-0.00080947,0.00307
 090,0.00205098,0.00051266,-0.00002073,-0.00592246,-0.04296967,0.019920
 70,0.05384579,0.20580039,-0.00258202,0.00089980,0.00121391,0.00030689,
 -0.00114301,0.00001161,0.00023678,-0.00027839,-0.00033952,0.00095121,0
 .00058482,-0.00022864,-0.00014611,0.00054734,0.00038832,-0.00096470,0.
 00052900,0.00127547,0.00001688,0.00034877,-0.00033487,0.00013867,-0.00
 049823,0.00099817,-0.00225064,-0.00014140,-0.00303348,0.00023696,0.000
 48288,0.00080072,0.00330543,0.00009016,0.00161144,-0.00220436,-0.00229
 698,0.00177928,0.00296567,-0.00134771,-0.00192016,0.00027613,-0.000029
 22,-0.00097884,-0.01240313,0.00496097,-0.01575206,-0.00080696,-0.00018
 026,0.00026010,0.00023439,0.00035425,0.00048142,0.00062263,0.00046363,
 0.00071221,-0.00075818,-0.00029637,-0.00017301,-0.00016555,0.00002049,
 -0.00007652,-0.00116148,0.00082396,0.00013490,0.00094007,-0.00110779,0
 .00028671,-0.00004099,0.00016918,-0.00009073,-0.00206493,-0.00178373,0
 .01059941,0.00244392,0.00185817,-0.00835858,0.00068632,0.00158209,-0.0
 0368085,0.02920237,0.00782641,-0.06746045,-0.17242903,-0.32517105,1.02
 743359,0.00031520,0.00005327,-0.00019661,-0.00026656,0.00059740,0.0002
 2929,0.00005451,-0.00000624,-0.00003053,-0.00004998,-0.00036111,-0.000
 16094,0.00032012,-0.00044737,0.00023269,0.00024128,-0.00003689,0.00008
 394,-0.00010328,-0.00003016,0.00002927,-0.00021751,0.00001781,-0.00013
 755,-0.00014009,0.00094120,0.00165577,-0.00024415,-0.00038446,-0.00027
 019,-0.00606202,0.00206130,0.00340926,0.00061962,0.00168816,-0.0009098
 8,-0.00024851,0.00068788,0.00012985,-0.00071282,0.00061762,-0.00072394
 ,0.00516104,-0.00169356,-0.00123203,0.00035843,0.00001476,-0.00012221,
 -0.00063447,-0.00013037,-0.00004960,-0.00054321,-0.00041380,-0.0001554
 8,0.00053204,0.00020713,0.00014044,0.00005231,-0.00003915,-0.00005086,
 0.00077275,-0.00143229,-0.00063359,-0.00064285,0.00095265,-0.00029975,
 -0.00037082,0.00016102,-0.00006286,0.00211108,-0.00011820,0.00035627,-
 0.00046962,0.00049974,0.00064868,-0.00932280,0.00612156,-0.00131738,-0
 .08156570,-0.00100762,0.01655475,0.00162419,0.01120698,-0.00836166,0.5
 4287523,-0.00071689,-0.00015456,-0.00047031,0.00066066,-0.00006826,-0.
 00021943,-0.00001802,0.00000457,0.00006662,0.00015755,0.00001949,0.000
 12529,-0.00045191,-0.00030172,0.00027101,-0.00002843,0.00011303,0.0003
 7144,0.00010608,0.00001475,-0.00011548,0.00006221,-0.00015933,-0.00000
 803,-0.00126932,-0.00135372,-0.00048251,0.00001829,0.00038644,0.001023
 03,-0.00493753,-0.00008733,0.00261733,-0.00370059,-0.00496260,0.006064
 30,0.00043460,-0.00082256,-0.00005381,0.00001741,0.00061458,-0.0002555
 8,0.00210885,0.00260304,-0.00545538,-0.00037342,-0.00013261,0.00001628
 ,-0.00040820,0.00029296,0.00049535,0.00062002,0.00064513,0.00009429,-0
 .00054150,-0.00019987,-0.00018110,0.00007057,-0.00005256,0.00010935,-0
 .00087744,0.00136050,-0.00110620,0.00086205,-0.00099801,0.00036354,-0.
 00004841,0.00007705,0.00014257,0.00048873,0.00101674,-0.00272355,0.000
 05041,-0.00013339,0.00004633,0.01453216,-0.00294072,-0.00100423,0.0097
 5111,-0.04680966,-0.00967607,0.00700620,-0.01643138,0.01767384,-0.4681
 2502,0.57122145,-0.00163989,0.00067515,0.00054889,-0.00018370,-0.00025
 098,0.00012275,0.00020815,-0.00010254,-0.00009049,0.00027076,0.0002486
 1,-0.00022270,0.00032110,0.00021771,-0.00001107,-0.00040013,0.00007511
 ,0.00055363,0.00008280,0.00010514,-0.00010293,-0.00001521,-0.00010716,
 0.00023936,-0.00047329,-0.00103047,-0.00095501,-0.00015334,0.00053606,
 -0.00029261,0.00304609,0.00004663,0.00076995,-0.00073651,-0.00264250,0
 .00269087,0.00037905,-0.00044411,-0.00034108,-0.00046464,0.00040301,-0
 .00084798,0.00035563,-0.00285822,-0.01997224,-0.00015400,0.00001792,0.
 00000286,-0.00003070,0.00019887,0.00016449,0.00042715,0.00014371,0.000
 37117,-0.00037370,-0.00014991,-0.00010725,-0.00008051,0.00004572,-0.00
 006410,-0.00095810,0.00087449,-0.00014928,0.00076330,-0.00082229,0.000
 16548,-0.00021788,0.00008702,-0.00004756,0.00038945,-0.00084106,0.0003
 3821,0.00011888,-0.00000838,-0.00081227,0.00360532,-0.00322422,0.00421
 599,0.02544629,-0.00583001,-0.05306850,-0.01493462,0.01279123,0.008260
 49,-0.27874437,0.27791766,0.26880269,-0.00064943,0.00055067,0.00023627
 ,-0.00047577,0.00026677,0.00037535,0.00033944,-0.00007819,-0.00003519,
 -0.00016688,-0.00045071,0.00000769,0.00062519,-0.00062249,0.00044810,-
 0.00024681,-0.00027941,-0.00027132,-0.00003807,-0.00000573,0.00017204,
 0.00061139,-0.00023243,0.00005930,0.00009088,0.00258983,0.00039974,-0.
 00020466,0.00012434,-0.00068452,0.00328173,-0.01113272,0.00008282,0.00
 207582,0.00415941,-0.00684000,-0.00058586,-0.00001348,-0.00019630,-0.0
 0036660,-0.00073615,-0.00022570,0.00375111,0.00066149,0.00213715,0.000
 40937,0.00009013,0.00001865,0.00066776,-0.00030101,-0.00015523,-0.0004
 6832,-0.00042112,-0.00024527,0.00046131,0.00014972,0.00016263,0.000151
 88,-0.00001935,0.00000175,0.00012227,-0.00102453,0.00108301,-0.0004714
 6,0.00070074,-0.00016322,0.00012981,-0.00005970,-0.00015447,-0.0008474
 6,-0.00117406,-0.00126189,-0.00031764,-0.00022590,0.00061637,-0.003228
 60,-0.00176131,0.00244886,-0.08340709,-0.00583178,0.00071115,0.0051593
 0,-0.00289826,-0.00643386,0.02128846,-0.00197838,-0.00290587,0.3204653
 6,-0.00062507,0.00026003,-0.00018211,-0.00016523,0.00003796,0.00032777
 ,0.00011403,0.00028649,-0.00000530,-0.00060888,-0.00011938,0.00015838,
 0.00127334,0.00095219,-0.00057905,0.00041400,-0.00043825,-0.00048964,-
 0.00008032,-0.00011706,0.00014776,-0.00017893,0.00092287,-0.00021805,0
 .00130987,-0.00277169,0.00064928,-0.00017168,-0.00069228,-0.00030354,-
 0.01265275,-0.01228025,0.00432983,0.00097986,0.00649179,-0.00497334,-0
 .00089187,0.00102697,0.00047259,0.00052273,-0.00067887,-0.00001774,0.0
 0006937,-0.01633861,0.00811680,0.00059304,0.00010298,-0.00013797,0.000
 53671,-0.00068647,-0.00039116,-0.00074752,-0.00068388,-0.00020442,0.00
 070941,0.00026760,0.00022132,-0.00000612,0.00006592,-0.00012485,0.0004
 2307,-0.00077347,0.00198617,-0.00083577,0.00094330,-0.00045027,0.00040
 712,-0.00026628,-0.00021447,0.00042127,0.00075308,-0.00030872,-0.00054
 000,-0.00025264,0.00101756,-0.00056045,0.00210683,0.00035697,-0.017351
 53,-0.04619633,0.00013526,0.00252358,0.00652699,-0.01583098,0.01962034
 ,-0.01415908,-0.00730595,0.43970751,0.91117824,-0.00089055,0.00062034,
 0.00045784,-0.00041949,0.00027559,0.00014617,0.00024643,-0.00013358,-0
 .00011384,-0.00018679,0.00022543,-0.00042129,0.00111984,0.00053182,0.0
 0031887,0.00008204,0.00014229,0.00058153,0.00005700,0.00007363,-0.0001
 1732,-0.00022341,0.00009888,-0.00023344,-0.00027349,-0.00159070,0.0011
 7191,-0.00025889,-0.00007602,-0.00033500,-0.00067680,0.00159096,0.0064
 2856,0.00107691,-0.00035191,-0.00277356,0.00023861,0.00014913,-0.00016
 224,-0.00027178,-0.00002723,-0.00015613,-0.00047496,0.00887545,-0.0041
 7669,0.00009001,-0.00003963,-0.00010124,-0.00005198,0.00002175,0.00006
 934,-0.00017522,-0.00013818,0.00027492,0.00011257,0.00004801,0.0000065
 7,-0.00007038,0.00001348,-0.00012948,-0.00013075,-0.00040850,0.0006765
 4,-0.00007755,0.00011885,-0.00011458,-0.00013478,0.00010921,-0.0001467
 2,0.00046745,-0.00046309,0.00034121,-0.00017330,0.00012551,-0.00001736
 ,-0.00063304,0.00081911,0.00059648,0.00848645,0.00981644,-0.04767568,-
 0.01241887,-0.01794655,-0.01691587,0.00155410,-0.00707634,-0.00019479,
 0.09386594,0.16659978,0.13319362,-0.00034288,-0.00026372,-0.00046572,0
 .00022437,0.00009873,0.00017309,-0.00003875,0.00009350,0.00012330,0.00
 012539,0.00001466,-0.00002497,-0.00051755,-0.00005513,-0.00018890,-0.0
 0002071,0.00004021,0.00009299,0.00000859,0.00002635,-0.00001361,0.0000
 6895,-0.00005555,0.00014368,-0.00056099,0.00006537,-0.00031437,0.00006
 940,0.00000068,0.00006544,0.00098202,0.00074160,-0.00009878,0.00026856
 ,-0.00123764,0.00357604,0.00018656,-0.00005409,-0.00025745,0.00017983,
 0.00006253,-0.00044493,-0.00208817,-0.00042907,-0.00025246,-0.00004540
 ,0.00002972,0.00003622,-0.00006030,0.00013021,0.00000837,0.00017717,0.
 00004046,0.00008203,-0.00014429,-0.00006294,-0.00003093,-0.00002967,0.
 00000777,-0.00000841,-0.00002434,0.00059936,-0.00024975,0.00018931,-0.
 00021257,0.00005280,-0.00010910,0.00000297,-0.00001472,-0.00069363,0.0
 0024379,0.00029989,-0.00093661,-0.00023343,-0.00001041,-0.00007553,0.0
 0014315,-0.00085704,0.01836068,-0.00077316,-0.00061856,-0.06260789,-0.
 05330362,0.15647393,-0.00158364,0.00010332,0.00328629,-0.00177903,-0.0
 0210598,0.00208774,0.04839773,0.00024655,-0.00043830,0.00008021,0.0001
 3479,0.00047747,-0.00025246,-0.00006308,-0.00008694,-0.00004070,0.0002
 1587,0.00008415,-0.00001736,-0.00092457,-0.00057650,0.00000445,-0.0001
 4242,0.00024782,0.00032033,-0.00001486,0.00009408,-0.00008256,0.000044
 77,-0.00017703,0.00028511,-0.00056334,0.00037213,-0.00063973,-0.000040
 44,0.00013420,0.00002562,0.00020513,0.00093914,-0.00100959,0.00282761,
 -0.00086985,0.00219515,0.00073773,-0.00034934,-0.00054555,-0.00027872,
 0.00022070,-0.00041779,-0.00157804,0.00021015,0.00079961,-0.00015835,-
 0.00002350,0.00004886,-0.00005252,0.00020826,0.00014052,0.00016039,0.0
 0008208,0.00020527,-0.00018577,-0.00007042,-0.00004196,-0.00006239,0.0
 0000395,-0.00004296,-0.00007853,0.00024711,-0.00065007,0.00023504,-0.0
 0027078,0.00010581,-0.00012222,0.00012399,0.00005324,-0.00016282,-0.00
 073642,0.00316026,0.00074730,0.00057315,-0.00215973,-0.00099719,0.0000
 0551,-0.00059011,-0.00083859,0.00644476,0.01821483,-0.05286777,-0.1489
 9091,0.31096241,-0.00587671,0.00647607,0.00061946,0.00029352,-0.002832
 12,0.00358099,0.05584396,0.13795487,0.00149838,0.00002839,-0.00044724,
 -0.00040704,0.00023277,-0.00001371,-0.00004501,0.00008643,0.00014353,-
 0.00064011,-0.00034088,0.00009668,0.00075314,-0.00004666,-0.00009107,0
 .00059452,-0.00039969,-0.00091464,0.00000210,-0.00026232,0.00023596,-0
 .00007767,0.00027330,-0.00074690,0.00106361,0.00024221,0.00209074,-0.0
 0016288,-0.00033874,-0.00040867,-0.00081941,0.00078418,-0.00032218,-0.
 00089381,0.00184652,-0.00282535,-0.00214016,0.00097254,0.00140511,-0.0
 0022291,-0.00010675,0.00046479,0.00399575,-0.00093108,0.00414249,0.000
 56513,0.00010144,-0.00019428,-0.00027048,-0.00021890,-0.00023935,-0.00
 044737,-0.00028984,-0.00056819,0.00055210,0.00021808,0.00012278,0.0001
 5137,-0.00002071,0.00009965,0.00035753,-0.00094389,0.00046314,-0.00067
 540,0.00082157,-0.00024673,0.00026617,-0.00015929,0.00003802,0.0014574
 4,0.00122520,-0.00765865,-0.00195057,-0.00119972,0.00602698,0.00029020
 ,-0.00073058,0.00250095,-0.00151630,0.02036606,-0.04988116,0.15632249,
 0.31122445,-0.93884896,0.00805560,-0.00985660,-0.00721295,0.00570952,0
 .01272352,0.00405514,-0.16161935,-0.33361792,0.98736535,-0.00013040,-0
 .00015755,-0.00018001,0.00015502,-0.00009061,-0.00014159,-0.00002542,0
 .00001598,0.00005351,-0.00002848,0.00012492,0.00010511,-0.00022586,0.0
 0025016,-0.00017829,-0.00004460,-0.00007770,-0.00001657,0.00007102,-0.
 00000109,-0.00002810,0.00008470,-0.00007074,0.00002958,-0.00017802,-0.
 00026674,-0.00085459,0.00006671,0.00006005,0.00022460,0.00185670,-0.00
 142408,-0.00105666,-0.00122193,-0.00232220,0.00312593,-0.00007801,-0.0
 0029894,0.00007710,0.00016519,0.00002544,-0.00017982,-0.00068753,0.001
 26276,-0.00228163,-0.00010232,0.00002537,0.00001449,-0.00011288,0.0001
 5471,0.00006560,0.00045731,0.00027791,0.00011459,-0.00038140,-0.000144
 87,-0.00011838,-0.00003219,0.00002072,0.00003002,-0.00058625,0.0010361
 8,-0.00008686,0.00054111,-0.00070117,0.00021172,0.00009421,-0.00004649
 ,0.00004329,0.00016325,0.00027047,0.00106004,0.00038158,-0.00001658,-0
 .00056471,-0.00009461,-0.00186051,-0.00091739,-0.00713685,0.04076303,0
 .01613480,-0.00199386,-0.00303095,0.00831747,-0.46652718,0.44363452,0.
 26236383,-0.00584633,-0.00861769,-0.00201097,0.00137379,0.00229011,-0.
 00574918,0.47770017,0.00017795,0.00009702,0.00022952,-0.00021868,0.000
 05514,0.00013899,0.00001092,0.00000673,-0.00005484,0.00001242,-0.00006
 751,-0.00011008,0.00023441,-0.00007792,0.00005270,0.00006172,0.0000314
 8,-0.00007759,-0.00006827,0.00001225,0.00004101,-0.00005587,0.00008855
 ,0.00002704,0.00036183,0.00049542,0.00059306,-0.00002201,-0.00006231,-
 0.00047105,0.00012381,0.00054750,-0.00025873,0.00199390,0.00304035,-0.
 00368805,0.00005002,0.00032591,-0.00011573,-0.00003862,-0.00025429,0.0
 0025477,-0.00115270,-0.00174285,0.00347654,0.00011715,0.00000419,-0.00
 000491,0.00049057,-0.00020969,-0.00019738,-0.00049723,-0.00037227,-0.0
 0005393,0.00040359,0.00015261,0.00013251,-0.00001221,0.00000677,-0.000
 05428,0.00059098,-0.00104400,0.00043828,-0.00059708,0.00073559,-0.0002
 4543,-0.00002969,0.00001106,-0.00006741,-0.00104768,-0.00055291,-0.000
 62092,-0.00028630,-0.00011639,0.00044071,-0.00090271,0.00035787,0.0017
 7254,0.03173539,-0.02191456,-0.01664623,0.00008290,0.00385505,-0.01191
 198,0.44464879,-0.50313626,-0.27252260,0.00248102,0.00779479,0.0030384
 8,-0.00098191,-0.00237041,0.00657149,-0.47582101,0.51894146,0.00025381
 ,-0.00000592,0.00011564,-0.00001176,-0.00001519,0.00001621,-0.00000964
 ,0.00000503,-0.00001983,-0.00000131,-0.00004638,-0.00002580,0.00007402
 ,-0.00016547,0.00014687,0.00007397,0.00003821,-0.00010954,-0.00003255,
 -0.00000978,0.00003688,-0.00002952,0.00007325,-0.00002528,0.00025627,0
 .00022054,0.00038300,0.00005087,-0.00011122,-0.00001671,-0.00102604,0.
 00044836,-0.00000054,0.00112178,0.00219786,-0.00318080,-0.00003677,0.0
 0015570,0.00001744,0.00009780,-0.00024780,0.00045532,0.00001699,-0.000
 90616,0.00486467,0.00005804,-0.00001512,-0.00000284,0.00031111,-0.0001
 4961,-0.00010685,-0.00030613,-0.00017144,-0.00011668,0.00025364,0.0000
 9636,0.00007938,0.00002680,-0.00000990,0.00000522,0.00039794,-0.000698
 64,0.00025210,-0.00040119,0.00046701,-0.00012129,0.00007188,-0.0000191
 9,-0.00001731,-0.00083044,0.00012118,-0.00093447,-0.00017803,-0.000097
 33,0.00048596,0.00110177,0.00081293,-0.00050601,0.01295917,-0.02166086
 ,0.00729010,0.00261815,-0.00180706,-0.00499222,0.26181499,-0.27091255,
 -0.20309892,0.00193629,0.00463227,0.00124560,-0.00101097,-0.00085011,0
 .00396696,-0.27857944,0.29104013,0.19445697,0.00026917,-0.00026908,-0.
 00021841,0.00017264,-0.00010942,-0.00011640,-0.00018184,0.00006203,0.0
 0006040,0.00007482,0.00017881,0.00004344,-0.00034867,0.00034787,-0.000
 22719,-0.00000311,0.00019425,0.00010695,0.00002782,0.00001125,-0.00007
 887,-0.00025149,0.00017756,0.00006984,0.00032643,-0.00137715,-0.000304
 58,0.00007411,0.00000758,0.00017192,-0.00283984,0.00252410,0.00090811,
 -0.00112205,-0.00245932,0.00338618,0.00034143,-0.00015534,0.00001470,0
 .00010239,0.00033119,0.00002710,-0.00061577,0.00142990,-0.00166511,-0.
 00024357,-0.00002383,0.00002057,-0.00021764,0.00014186,0.00005502,0.00
 030838,0.00023136,0.00015841,-0.00030141,-0.00010863,-0.00009102,-0.00
 008507,0.00001011,-0.00001745,-0.00009584,0.00066091,-0.00054875,0.000
 35634,-0.00048291,0.00012437,-0.00017688,0.00004774,0.00007326,0.00021
 139,0.00024449,0.00053779,0.00013756,0.00011013,-0.00039239,0.00060652
 ,0.00071889,-0.00049196,0.01294947,-0.02963377,-0.00985020,-0.00214094
 ,-0.00148846,0.00541787,-0.00662105,0.00279032,0.00140236,-0.26053107,
 -0.42348548,-0.08993211,0.00104612,0.00102558,-0.00399738,0.00232336,-
 0.00184540,-0.00104148,0.25644830,0.00037347,-0.00029507,-0.00026688,0
 .00015861,-0.00011680,-0.00010691,-0.00021760,0.00002521,0.00009566,0.
 00015004,0.00011238,0.00006494,-0.00050783,0.00016388,0.00002531,-0.00
 030457,0.00024057,0.00016519,0.00005380,0.00004210,-0.00009849,-0.0000
 3427,-0.00010487,0.00012041,0.00018773,-0.00018024,-0.00032842,0.00005
 078,0.00027221,0.00009473,0.00086037,0.00072063,0.00094054,-0.00163433
 ,-0.00395073,0.00309760,0.00054297,-0.00062160,-0.00011020,-0.00000562
 ,0.00027441,-0.00000149,0.00058995,0.00562420,-0.00340748,-0.00041915,
 -0.00002990,0.00008948,-0.00037238,0.00035470,0.00014316,0.00054572,0.
 00044796,0.00018334,-0.00052531,-0.00020158,-0.00015373,-0.00005868,-0
 .00001932,0.00001721,-0.00036705,0.00089990,-0.00067664,0.00060252,-0.
 00074323,0.00023714,-0.00030524,0.00010719,0.00013089,0.00019978,-0.00
 041488,0.00074898,0.00028631,0.00021355,-0.00075780,0.00010249,-0.0000
 0153,-0.00041376,-0.02213689,-0.03884150,-0.01775594,-0.00170239,-0.00
 591489,0.01183894,-0.00999468,0.00805781,0.00313691,-0.42252847,-0.840
 43135,-0.16862340,0.00148047,0.00289295,-0.00825455,0.00473659,-0.0046
 3837,-0.00240910,0.45019287,0.87605619,0.00024331,-0.00028000,-0.00013
 214,0.00009392,-0.00005027,-0.00007041,-0.00010200,0.00004291,0.000020
 70,0.00006345,-0.00004015,0.00013616,-0.00041548,-0.00009025,-0.000094
 30,-0.00011088,0.00000974,-0.00004983,-0.00000086,-0.00000082,0.000001
 31,0.00005071,-0.00001150,0.00013672,0.00024578,0.00036550,-0.00044248
 ,0.00006986,0.00005756,0.00004701,-0.00092527,-0.00143808,-0.00178089,
 -0.00026025,-0.00040310,0.00097958,0.00009139,-0.00018061,-0.00003614,
 0.00006020,0.00007608,0.00005369,0.00021421,-0.00079294,0.00002534,-0.
 00008997,0.00000315,0.00004294,0.00000895,0.00005091,-0.00000627,0.000
 11719,0.00009552,-0.00000886,-0.00010714,-0.00004227,-0.00002555,0.000
 00257,-0.00000727,0.00001999,-0.00000845,0.00024903,-0.00028884,0.0001
 1857,-0.00016435,0.00006316,-0.00003270,0.00000204,0.00005337,-0.00015
 580,-0.00004325,-0.00005626,0.00004381,0.00000651,-0.00007546,0.000261
 73,-0.00003323,-0.00014126,-0.00615999,-0.01180063,0.01368136,0.001671
 30,0.00111435,0.00693702,-0.00143544,0.00219895,0.00034491,-0.09089977
 ,-0.17013771,-0.07577907,-0.00002049,0.00015643,-0.00259822,0.00097249
 ,-0.00114661,-0.00054324,0.09639504,0.18223437,0.05958597\\0.00000995,
 0.00003032,-0.00000336,-0.00000277,-0.00001796,0.00000126,-0.00000531,
 -0.00000132,-0.00000598,-0.00000748,-0.00000660,0.00000660,-0.00000093
 ,0.00000158,0.00002870,0.00004290,0.00000616,0.00000373,0.00000406,-0.
 00000504,-0.00000443,-0.00000538,-0.00000935,0.00000369,0.00000350,-0.
 00002337,0.00000597,0.00001176,-0.00000366,-0.00000258,-0.00000242,0.0
 0001690,0.00000025,0.00000191,0.00001271,0.00002933,-0.00005313,-0.000
 00872,0.00001276,-0.00000505,0.00000945,0.00000293,0.00000255,0.000002
 03,-0.00000215,0.00000203,-0.00000341,-0.00000490,0.00001246,0.0000068
 0,0.00000458,0.00000407,0.00002339,-0.00000058,0.00000154,-0.00000548,
 -0.00000256,-0.00001628,0.00000196,0.00000172,0.00001991,-0.00001941,-
 0.00002661,-0.00000293,-0.00000166,0.00000573,-0.00001478,-0.00000021,
 -0.00001935,0.00002305,-0.00001105,-0.00001662,-0.00001591,-0.00000239
 ,-0.00000583,0.00000602,0.00002056,0.00001095,-0.00001708,-0.00002637,
 -0.00002224,0.00000685,0.00001352,-0.00000290,-0.00000060,-0.00000202,
 -0.00001074,0.00000262,0.00000492,0.00000748,-0.00000191,-0.00000190,0
 .00000411,0.00000086,0.00000294,0.00000337,-0.00000407,-0.00000332,-0.
 00000235\\\@
 The archive entry for this job was punched.


      LET US REMEMBER, PLEASE, THAT THE SEARCH FOR THE CONSTITUTION
      OF THE WORLD IS ONE OF THE GREATEST AND NOBLEST PROBLEMS PRESENTED 
      BY NATURE.

                                                  -- GALILEO
 Job cpu time:       0 days 11 hours  8 minutes 26.7 seconds.
 Elapsed time:       0 days  0 hours 14 minutes 35.9 seconds.
 File lengths (MBytes):  RWF=   1900 Int=      0 D2E=      0 Chk=     34 Scr=      2
 Normal termination of Gaussian 16 at Sat Dec 10 14:53:54 2022.
