 Entering Gaussian System, Link 0=g16
 Initial command:
 /home/chesagar/softwares/G16_AVX2//g16/l1.exe "/home/chesagar/scratch/Gau-220840.inp" -scrdir="/home/chesagar/scratch/"
 Entering Link 1 = /home/chesagar/softwares/G16_AVX2//g16/l1.exe PID=    220841.
  
 Copyright (c) 1988-2019, Gaussian, Inc.  All Rights Reserved.
  
 This is part of the Gaussian(R) 16 program.  It is based on
 the Gaussian(R) 09 system (copyright 2009, Gaussian, Inc.),
 the Gaussian(R) 03 system (copyright 2003, Gaussian, Inc.),
 the Gaussian(R) 98 system (copyright 1998, Gaussian, Inc.),
 the Gaussian(R) 94 system (copyright 1995, Gaussian, Inc.),
 the Gaussian 92(TM) system (copyright 1992, Gaussian, Inc.),
 the Gaussian 90(TM) system (copyright 1990, Gaussian, Inc.),
 the Gaussian 88(TM) system (copyright 1988, Gaussian, Inc.),
 the Gaussian 86(TM) system (copyright 1986, Carnegie Mellon
 University), and the Gaussian 82(TM) system (copyright 1983,
 Carnegie Mellon University). Gaussian is a federally registered
 trademark of Gaussian, Inc.
  
 This software contains proprietary and confidential information,
 including trade secrets, belonging to Gaussian, Inc.
  
 This software is provided under written license and may be
 used, copied, transmitted, or stored only in accord with that
 written license.
  
 The following legend is applicable only to US Government
 contracts under FAR:
  
                    RESTRICTED RIGHTS LEGEND
  
 Use, reproduction and disclosure by the US Government is
 subject to restrictions as set forth in subparagraphs (a)
 and (c) of the Commercial Computer Software - Restricted
 Rights clause in FAR 52.227-19.
  
 Gaussian, Inc.
 340 Quinnipiac St., Bldg. 40, Wallingford CT 06492
  
  
 ---------------------------------------------------------------
 Warning -- This program may not be used in any manner that
 competes with the business of Gaussian, Inc. or will provide
 assistance to any competitor of Gaussian, Inc.  The licensee
 of this program is prohibited from giving any competitor of
 Gaussian, Inc. access to this program.  By using this program,
 the user acknowledges that Gaussian, Inc. is engaged in the
 business of creating and licensing software in the field of
 computational chemistry and represents and warrants to the
 licensee that it is not a competitor of Gaussian, Inc. and that
 it will not use this program in any manner prohibited above.
 ---------------------------------------------------------------
  

 Cite this work as:
 Gaussian 16, Revision C.01,
 M. J. Frisch, G. W. Trucks, H. B. Schlegel, G. E. Scuseria, 
 M. A. Robb, J. R. Cheeseman, G. Scalmani, V. Barone, 
 G. A. Petersson, H. Nakatsuji, X. Li, M. Caricato, A. V. Marenich, 
 J. Bloino, B. G. Janesko, R. Gomperts, B. Mennucci, H. P. Hratchian, 
 J. V. Ortiz, A. F. Izmaylov, J. L. Sonnenberg, D. Williams-Young, 
 F. Ding, F. Lipparini, F. Egidi, J. Goings, B. Peng, A. Petrone, 
 T. Henderson, D. Ranasinghe, V. G. Zakrzewski, J. Gao, N. Rega, 
 G. Zheng, W. Liang, M. Hada, M. Ehara, K. Toyota, R. Fukuda, 
 J. Hasegawa, M. Ishida, T. Nakajima, Y. Honda, O. Kitao, H. Nakai, 
 T. Vreven, K. Throssell, J. A. Montgomery, Jr., J. E. Peralta, 
 F. Ogliaro, M. J. Bearpark, J. J. Heyd, E. N. Brothers, K. N. Kudin, 
 V. N. Staroverov, T. A. Keith, R. Kobayashi, J. Normand, 
 K. Raghavachari, A. P. Rendell, J. C. Burant, S. S. Iyengar, 
 J. Tomasi, M. Cossi, J. M. Millam, M. Klene, C. Adamo, R. Cammi, 
 J. W. Ochterski, R. L. Martin, K. Morokuma, O. Farkas, 
 J. B. Foresman, and D. J. Fox, Gaussian, Inc., Wallingford CT, 2019.
 
 ******************************************
 Gaussian 16:  ES64L-G16RevC.01  3-Jul-2019
                10-Dec-2022 
 ******************************************
 %nprocshared=46
 Will use up to   46 processors via shared memory.
 %mem=100GB
 ---------------------------------------
 # opt freq b3lyp/gen nosymm pseudo=read
 ---------------------------------------
 1/18=20,19=15,26=3,38=1/1,3;
 2/9=110,12=2,15=1,17=6,18=5,40=1/2;
 3/5=7,11=2,16=1,17=8,25=1,30=1,71=1,74=-5/1,2,3;
 4//1;
 5/5=2,38=5/2;
 6/7=2,8=2,9=2,10=2,28=1/1;
 7/30=1/1,2,3,16;
 1/18=20,19=15,26=3/3(2);
 2/9=110,15=1/2;
 99//99;
 2/9=110,15=1/2;
 3/5=7,6=1,11=2,16=1,17=8,25=1,30=1,71=1,74=-5,82=7/1,2,3;
 4/5=5,16=3,69=1/1;
 5/5=2,38=5/2;
 7/30=1/1,2,3,16;
 1/18=20,19=15,26=3/3(-5);
 2/9=110,15=1/2;
 6/7=2,8=2,9=2,10=2,19=2,28=1/1;
 99/9=1/99;
 -------------------
 Title Card Required
 -------------------
 Symbolic Z-matrix:
 Charge =  0 Multiplicity = 1
 42                    0.38863   1.95065   12.1063 
 16                    1.40231   3.98455   11.63675 
 16                   -1.56305   2.57705   13.32797 
 16                   -0.57332   1.14566   10.09251 
 16                    2.16151   0.30588   11.45219 
 42                   -2.16011   2.68711   11.12713 
 16                   -3.32661   1.87867   8.88361 
 16                   -1.62825   4.88591   10.61205 
 42                    0.02223   3.41147   9.47454 
 16                   -0.69978   2.81863   7.17839 
 16                    2.20537   2.34204   8.79643 
 42                    3.19702   2.46278   11.21912 
 42                   -2.34541   4.10897   8.48549 
 16                    4.3054    2.72375   13.23661 
 16                    5.08029   3.2303    10.09671 
 16                   -4.60061   5.22829   8.98494 
 16                   -2.01372   6.2351    7.3523 
 42                   -4.92917   3.21173   9.86015 
 16                   -6.90313   2.525     9.52646 
 16                   -4.40839   3.23013   12.04946 
 42                    2.87962   0.92572   13.57735 
 16                    3.97582  -0.65347   14.48396 
 16                    1.06337   1.63538   14.60484 
 42                   -0.1734    5.04214   6.86911 
 16                    0.51458   5.42849   4.90045 
 16                    1.2447    5.5646    8.59518 
 42                    3.5818    4.33885   8.4257 
 6                     3.79501   5.45973   6.74869 
 6                     4.6875    3.15217   7.27339 
 8                     3.91275   6.09481   5.79508 
 8                     5.29112   2.44638   6.59577 
 

 GradGradGradGradGradGradGradGradGradGradGradGradGradGradGradGradGradGrad
 Berny optimization.
 Initialization pass.
                           ----------------------------
                           !    Initial Parameters    !
                           ! (Angstroms and Degrees)  !
 --------------------------                            --------------------------
 ! Name  Definition              Value          Derivative Info.                !
 --------------------------------------------------------------------------------
 ! R1    R(1,2)                  2.3205         estimate D2E/DX2                !
 ! R2    R(1,3)                  2.3862         estimate D2E/DX2                !
 ! R3    R(1,4)                  2.3725         estimate D2E/DX2                !
 ! R4    R(1,5)                  2.5052         estimate D2E/DX2                !
 ! R5    R(1,6)                  2.8279         estimate D2E/DX2                !
 ! R6    R(1,9)                  3.0322         estimate D2E/DX2                !
 ! R7    R(1,12)                 2.9894         estimate D2E/DX2                !
 ! R8    R(1,21)                 3.0691         estimate D2E/DX2                !
 ! R9    R(1,23)                 2.6072         estimate D2E/DX2                !
 ! R10   R(2,9)                  2.6283         estimate D2E/DX2                !
 ! R11   R(2,12)                 2.3898         estimate D2E/DX2                !
 ! R12   R(3,6)                  2.283          estimate D2E/DX2                !
 ! R13   R(4,6)                  2.4422         estimate D2E/DX2                !
 ! R14   R(4,9)                  2.4229         estimate D2E/DX2                !
 ! R15   R(5,12)                 2.4039         estimate D2E/DX2                !
 ! R16   R(5,21)                 2.3273         estimate D2E/DX2                !
 ! R17   R(6,7)                  2.6548         estimate D2E/DX2                !
 ! R18   R(6,8)                  2.3201         estimate D2E/DX2                !
 ! R19   R(6,9)                  2.8317         estimate D2E/DX2                !
 ! R20   R(6,13)                 3.0057         estimate D2E/DX2                !
 ! R21   R(6,18)                 3.09           estimate D2E/DX2                !
 ! R22   R(6,20)                 2.49           estimate D2E/DX2                !
 ! R23   R(7,13)                 2.4689         estimate D2E/DX2                !
 ! R24   R(7,18)                 2.3019         estimate D2E/DX2                !
 ! R25   R(8,9)                  2.4884         estimate D2E/DX2                !
 ! R26   R(8,13)                 2.3749         estimate D2E/DX2                !
 ! R27   R(9,10)                 2.4789         estimate D2E/DX2                !
 ! R28   R(9,11)                 2.5238         estimate D2E/DX2                !
 ! R29   R(9,13)                 2.659          estimate D2E/DX2                !
 ! R30   R(9,24)                 3.0799         estimate D2E/DX2                !
 ! R31   R(9,26)                 2.6275         estimate D2E/DX2                !
 ! R32   R(10,13)                2.4661         estimate D2E/DX2                !
 ! R33   R(10,24)                2.3058         estimate D2E/DX2                !
 ! R34   R(11,12)                2.6206         estimate D2E/DX2                !
 ! R35   R(11,27)                2.4534         estimate D2E/DX2                !
 ! R36   R(12,14)                2.3167         estimate D2E/DX2                !
 ! R37   R(12,15)                2.3228         estimate D2E/DX2                !
 ! R38   R(12,21)                2.8328         estimate D2E/DX2                !
 ! R39   R(13,16)                2.5668         estimate D2E/DX2                !
 ! R40   R(13,17)                2.432          estimate D2E/DX2                !
 ! R41   R(13,18)                3.0611         estimate D2E/DX2                !
 ! R42   R(13,24)                2.8638         estimate D2E/DX2                !
 ! R43   R(14,21)                2.3199         estimate D2E/DX2                !
 ! R44   R(15,27)                2.5033         estimate D2E/DX2                !
 ! R45   R(16,18)                2.2227         estimate D2E/DX2                !
 ! R46   R(17,24)                2.2457         estimate D2E/DX2                !
 ! R47   R(18,19)                2.1165         estimate D2E/DX2                !
 ! R48   R(18,20)                2.2505         estimate D2E/DX2                !
 ! R49   R(21,22)                2.1254         estimate D2E/DX2                !
 ! R50   R(21,23)                2.2041         estimate D2E/DX2                !
 ! R51   R(24,25)                2.1209         estimate D2E/DX2                !
 ! R52   R(24,26)                2.2942         estimate D2E/DX2                !
 ! R53   R(26,27)                2.6445         estimate D2E/DX2                !
 ! R54   R(27,28)                2.0283         estimate D2E/DX2                !
 ! R55   R(27,29)                1.9896         estimate D2E/DX2                !
 ! R56   R(28,30)                1.1518         estimate D2E/DX2                !
 ! R57   R(29,31)                1.1496         estimate D2E/DX2                !
 ! A1    A(2,1,3)              103.3442         estimate D2E/DX2                !
 ! A2    A(2,1,4)              107.6232         estimate D2E/DX2                !
 ! A3    A(2,1,5)              102.3262         estimate D2E/DX2                !
 ! A4    A(2,1,6)               95.4737         estimate D2E/DX2                !
 ! A5    A(2,1,21)              92.0139         estimate D2E/DX2                !
 ! A6    A(2,1,23)             100.7691         estimate D2E/DX2                !
 ! A7    A(3,1,4)              101.0702         estimate D2E/DX2                !
 ! A8    A(3,1,5)              152.2301         estimate D2E/DX2                !
 ! A9    A(3,1,9)              102.6538         estimate D2E/DX2                !
 ! A10   A(3,1,12)             151.0872         estimate D2E/DX2                !
 ! A11   A(3,1,21)             120.4049         estimate D2E/DX2                !
 ! A12   A(3,1,23)              75.6868         estimate D2E/DX2                !
 ! A13   A(4,1,5)               80.941          estimate D2E/DX2                !
 ! A14   A(4,1,12)             100.7854         estimate D2E/DX2                !
 ! A15   A(4,1,21)             128.5073         estimate D2E/DX2                !
 ! A16   A(4,1,23)             151.3237         estimate D2E/DX2                !
 ! A17   A(5,1,6)              135.9203         estimate D2E/DX2                !
 ! A18   A(5,1,9)              100.0899         estimate D2E/DX2                !
 ! A19   A(5,1,23)              89.2941         estimate D2E/DX2                !
 ! A20   A(6,1,12)             134.3735         estimate D2E/DX2                !
 ! A21   A(6,1,23)             126.6241         estimate D2E/DX2                !
 ! A22   A(9,1,12)              76.9034         estimate D2E/DX2                !
 ! A23   A(9,1,21)             132.4514         estimate D2E/DX2                !
 ! A24   A(9,1,23)             157.1161         estimate D2E/DX2                !
 ! A25   A(12,1,23)             93.5543         estimate D2E/DX2                !
 ! A26   A(9,2,12)              96.4145         estimate D2E/DX2                !
 ! A27   A(1,6,7)              127.541          estimate D2E/DX2                !
 ! A28   A(1,6,8)               96.7228         estimate D2E/DX2                !
 ! A29   A(1,6,13)             118.8856         estimate D2E/DX2                !
 ! A30   A(1,6,20)             137.9283         estimate D2E/DX2                !
 ! A31   A(3,6,4)              102.0077         estimate D2E/DX2                !
 ! A32   A(3,6,7)              156.1918         estimate D2E/DX2                !
 ! A33   A(3,6,8)              101.5223         estimate D2E/DX2                !
 ! A34   A(3,6,9)              111.9241         estimate D2E/DX2                !
 ! A35   A(3,6,13)             152.394          estimate D2E/DX2                !
 ! A36   A(3,6,18)             129.6283         estimate D2E/DX2                !
 ! A37   A(3,6,20)              83.6602         estimate D2E/DX2                !
 ! A38   A(4,6,7)               74.649          estimate D2E/DX2                !
 ! A39   A(4,6,8)              110.8037         estimate D2E/DX2                !
 ! A40   A(4,6,13)              88.0688         estimate D2E/DX2                !
 ! A41   A(4,6,18)             121.0444         estimate D2E/DX2                !
 ! A42   A(4,6,20)             151.7891         estimate D2E/DX2                !
 ! A43   A(7,6,8)              101.6371         estimate D2E/DX2                !
 ! A44   A(7,6,9)               85.6029         estimate D2E/DX2                !
 ! A45   A(7,6,20)              89.0087         estimate D2E/DX2                !
 ! A46   A(8,6,18)              87.3346         estimate D2E/DX2                !
 ! A47   A(8,6,20)              94.7346         estimate D2E/DX2                !
 ! A48   A(9,6,18)             114.0737         estimate D2E/DX2                !
 ! A49   A(9,6,20)             148.8978         estimate D2E/DX2                !
 ! A50   A(13,6,20)             99.5969         estimate D2E/DX2                !
 ! A51   A(1,9,8)               88.2151         estimate D2E/DX2                !
 ! A52   A(1,9,10)             136.379          estimate D2E/DX2                !
 ! A53   A(1,9,11)              85.6719         estimate D2E/DX2                !
 ! A54   A(1,9,13)             123.8351         estimate D2E/DX2                !
 ! A55   A(1,9,26)             128.9795         estimate D2E/DX2                !
 ! A56   A(2,9,4)               97.0738         estimate D2E/DX2                !
 ! A57   A(2,9,6)               88.8735         estimate D2E/DX2                !
 ! A58   A(2,9,8)               80.9681         estimate D2E/DX2                !
 ! A59   A(2,9,11)              81.9071         estimate D2E/DX2                !
 ! A60   A(2,9,13)             135.7525         estimate D2E/DX2                !
 ! A61   A(2,9,24)             127.8669         estimate D2E/DX2                !
 ! A62   A(2,9,26)              81.509          estimate D2E/DX2                !
 ! A63   A(4,9,8)              105.9319         estimate D2E/DX2                !
 ! A64   A(4,9,10)              86.6183         estimate D2E/DX2                !
 ! A65   A(4,9,11)              83.39           estimate D2E/DX2                !
 ! A66   A(4,9,13)              96.968          estimate D2E/DX2                !
 ! A67   A(4,9,24)             134.0499         estimate D2E/DX2                !
 ! A68   A(6,9,10)             104.7698         estimate D2E/DX2                !
 ! A69   A(6,9,11)             135.6492         estimate D2E/DX2                !
 ! A70   A(6,9,24)             125.4643         estimate D2E/DX2                !
 ! A71   A(6,9,26)             139.7755         estimate D2E/DX2                !
 ! A72   A(8,9,10)             111.8357         estimate D2E/DX2                !
 ! A73   A(8,9,11)             161.378          estimate D2E/DX2                !
 ! A74   A(8,9,24)              91.7682         estimate D2E/DX2                !
 ! A75   A(8,9,26)              88.6263         estimate D2E/DX2                !
 ! A76   A(10,9,11)             84.3607         estimate D2E/DX2                !
 ! A77   A(10,9,26)             91.2311         estimate D2E/DX2                !
 ! A78   A(11,9,13)            141.3924         estimate D2E/DX2                !
 ! A79   A(11,9,24)             92.9808         estimate D2E/DX2                !
 ! A80   A(11,9,26)             81.654          estimate D2E/DX2                !
 ! A81   A(13,9,26)             94.2917         estimate D2E/DX2                !
 ! A82   A(9,11,12)             93.4062         estimate D2E/DX2                !
 ! A83   A(9,11,27)            100.4297         estimate D2E/DX2                !
 ! A84   A(12,11,27)            83.6792         estimate D2E/DX2                !
 ! A85   A(1,12,11)             84.8925         estimate D2E/DX2                !
 ! A86   A(1,12,14)            102.1411         estimate D2E/DX2                !
 ! A87   A(1,12,15)            164.088          estimate D2E/DX2                !
 ! A88   A(2,12,5)             103.3505         estimate D2E/DX2                !
 ! A89   A(2,12,11)             84.6474         estimate D2E/DX2                !
 ! A90   A(2,12,14)             97.7808         estimate D2E/DX2                !
 ! A91   A(2,12,15)            118.8754         estimate D2E/DX2                !
 ! A92   A(2,12,21)             96.655          estimate D2E/DX2                !
 ! A93   A(5,12,11)             83.4132         estimate D2E/DX2                !
 ! A94   A(5,12,14)            102.8695         estimate D2E/DX2                !
 ! A95   A(5,12,15)            133.8332         estimate D2E/DX2                !
 ! A96   A(11,12,15)            82.8368         estimate D2E/DX2                !
 ! A97   A(11,12,21)           134.6059         estimate D2E/DX2                !
 ! A98   A(14,12,15)            89.7527         estimate D2E/DX2                !
 ! A99   A(15,12,21)           132.2519         estimate D2E/DX2                !
 ! A100  A(6,13,10)            100.2053         estimate D2E/DX2                !
 ! A101  A(6,13,16)             95.1314         estimate D2E/DX2                !
 ! A102  A(6,13,17)            144.5542         estimate D2E/DX2                !
 ! A103  A(6,13,24)            127.1175         estimate D2E/DX2                !
 ! A104  A(7,13,8)             105.7328         estimate D2E/DX2                !
 ! A105  A(7,13,9)              93.2636         estimate D2E/DX2                !
 ! A106  A(7,13,10)             82.9929         estimate D2E/DX2                !
 ! A107  A(7,13,16)             90.7663         estimate D2E/DX2                !
 ! A108  A(7,13,17)            156.7926         estimate D2E/DX2                !
 ! A109  A(7,13,24)            133.3778         estimate D2E/DX2                !
 ! A110  A(8,13,10)            116.3767         estimate D2E/DX2                !
 ! A111  A(8,13,16)             87.0434         estimate D2E/DX2                !
 ! A112  A(8,13,17)             95.1657         estimate D2E/DX2                !
 ! A113  A(8,13,18)             87.0573         estimate D2E/DX2                !
 ! A114  A(8,13,24)             99.7744         estimate D2E/DX2                !
 ! A115  A(9,13,16)            145.5223         estimate D2E/DX2                !
 ! A116  A(9,13,17)            106.3319         estimate D2E/DX2                !
 ! A117  A(9,13,18)            120.5065         estimate D2E/DX2                !
 ! A118  A(10,13,16)           156.5796         estimate D2E/DX2                !
 ! A119  A(10,13,17)            96.8604         estimate D2E/DX2                !
 ! A120  A(10,13,18)           130.3832         estimate D2E/DX2                !
 ! A121  A(16,13,17)            80.169          estimate D2E/DX2                !
 ! A122  A(16,13,24)           129.3542         estimate D2E/DX2                !
 ! A123  A(17,13,18)           125.493          estimate D2E/DX2                !
 ! A124  A(12,15,27)            89.0573         estimate D2E/DX2                !
 ! A125  A(6,18,16)            100.5456         estimate D2E/DX2                !
 ! A126  A(6,18,19)            147.7091         estimate D2E/DX2                !
 ! A127  A(7,18,16)            104.8            estimate D2E/DX2                !
 ! A128  A(7,18,19)            113.2359         estimate D2E/DX2                !
 ! A129  A(7,18,20)            104.8523         estimate D2E/DX2                !
 ! A130  A(13,18,19)           144.2451         estimate D2E/DX2                !
 ! A131  A(13,18,20)           103.836          estimate D2E/DX2                !
 ! A132  A(16,18,19)           111.7256         estimate D2E/DX2                !
 ! A133  A(16,18,20)           109.964          estimate D2E/DX2                !
 ! A134  A(19,18,20)           111.8301         estimate D2E/DX2                !
 ! A135  A(1,21,14)             99.7643         estimate D2E/DX2                !
 ! A136  A(1,21,22)            150.5956         estimate D2E/DX2                !
 ! A137  A(5,21,14)            105.1855         estimate D2E/DX2                !
 ! A138  A(5,21,22)            110.534          estimate D2E/DX2                !
 ! A139  A(5,21,23)            104.9026         estimate D2E/DX2                !
 ! A140  A(12,21,22)           134.4642         estimate D2E/DX2                !
 ! A141  A(12,21,23)           107.8008         estimate D2E/DX2                !
 ! A142  A(14,21,22)           108.7557         estimate D2E/DX2                !
 ! A143  A(14,21,23)           108.9879         estimate D2E/DX2                !
 ! A144  A(22,21,23)           117.7343         estimate D2E/DX2                !
 ! A145  A(9,24,17)             98.7018         estimate D2E/DX2                !
 ! A146  A(9,24,25)            149.4375         estimate D2E/DX2                !
 ! A147  A(10,24,17)           107.2365         estimate D2E/DX2                !
 ! A148  A(10,24,25)           111.9758         estimate D2E/DX2                !
 ! A149  A(10,24,26)           105.0579         estimate D2E/DX2                !
 ! A150  A(13,24,25)           146.0265         estimate D2E/DX2                !
 ! A151  A(13,24,26)            96.798          estimate D2E/DX2                !
 ! A152  A(17,24,25)           111.6396         estimate D2E/DX2                !
 ! A153  A(17,24,26)           102.9258         estimate D2E/DX2                !
 ! A154  A(25,24,26)           117.1531         estimate D2E/DX2                !
 ! A155  A(9,26,27)             93.0268         estimate D2E/DX2                !
 ! A156  A(24,26,27)           113.1107         estimate D2E/DX2                !
 ! A157  A(11,27,15)            82.793          estimate D2E/DX2                !
 ! A158  A(11,27,26)            82.6312         estimate D2E/DX2                !
 ! A159  A(11,27,28)           129.3215         estimate D2E/DX2                !
 ! A160  A(11,27,29)            85.0588         estimate D2E/DX2                !
 ! A161  A(15,27,26)           133.7489         estimate D2E/DX2                !
 ! A162  A(15,27,28)           137.1963         estimate D2E/DX2                !
 ! A163  A(15,27,29)            77.867          estimate D2E/DX2                !
 ! A164  A(26,27,28)            83.6699         estimate D2E/DX2                !
 ! A165  A(26,27,29)           143.5826         estimate D2E/DX2                !
 ! A166  A(28,27,29)            78.0148         estimate D2E/DX2                !
 ! A167  L(6,1,21,2,-1)        187.4876         estimate D2E/DX2                !
 ! A168  L(1,6,18,8,-1)        184.0574         estimate D2E/DX2                !
 ! A169  L(1,9,24,8,-1)        179.9833         estimate D2E/DX2                !
 ! A170  L(2,9,10,4,-1)        183.6921         estimate D2E/DX2                !
 ! A171  L(4,9,26,2,-1)        178.5828         estimate D2E/DX2                !
 ! A172  L(11,12,14,1,-1)      187.0336         estimate D2E/DX2                !
 ! A173  L(18,13,24,8,-1)      186.8317         estimate D2E/DX2                !
 ! A174  L(27,28,30,16,-1)     179.8469         estimate D2E/DX2                !
 ! A175  L(27,29,31,5,-1)      179.0799         estimate D2E/DX2                !
 ! A176  L(6,1,21,2,-2)        173.1764         estimate D2E/DX2                !
 ! A177  L(1,6,18,8,-2)        175.0845         estimate D2E/DX2                !
 ! A178  L(1,9,24,8,-2)        175.5425         estimate D2E/DX2                !
 ! A179  L(2,9,10,4,-2)        194.3366         estimate D2E/DX2                !
 ! A180  L(4,9,26,2,-2)        164.9559         estimate D2E/DX2                !
 ! A181  L(11,12,14,1,-2)      182.7626         estimate D2E/DX2                !
 ! A182  L(18,13,24,8,-2)      185.0061         estimate D2E/DX2                !
 ! A183  L(27,28,30,16,-2)     180.1226         estimate D2E/DX2                !
 ! A184  L(27,29,31,5,-2)      177.9608         estimate D2E/DX2                !
 ! D1    D(2,1,6,7)            106.9211         estimate D2E/DX2                !
 ! D2    D(2,1,6,8)             -3.3667         estimate D2E/DX2                !
 ! D3    D(2,1,6,13)            45.4349         estimate D2E/DX2                !
 ! D4    D(2,1,6,20)          -108.118          estimate D2E/DX2                !
 ! D5    D(5,1,6,7)             -7.1099         estimate D2E/DX2                !
 ! D6    D(5,1,6,8)           -117.3978         estimate D2E/DX2                !
 ! D7    D(5,1,6,13)           -68.5961         estimate D2E/DX2                !
 ! D8    D(5,1,6,20)           137.851          estimate D2E/DX2                !
 ! D9    D(12,1,6,7)            68.0387         estimate D2E/DX2                !
 ! D10   D(12,1,6,8)           -42.2492         estimate D2E/DX2                !
 ! D11   D(12,1,6,13)            6.5525         estimate D2E/DX2                !
 ! D12   D(12,1,6,20)         -147.0004         estimate D2E/DX2                !
 ! D13   D(23,1,6,7)          -145.3139         estimate D2E/DX2                !
 ! D14   D(23,1,6,8)           104.3982         estimate D2E/DX2                !
 ! D15   D(23,1,6,13)          153.1999         estimate D2E/DX2                !
 ! D16   D(23,1,6,20)           -0.353          estimate D2E/DX2                !
 ! D17   D(3,1,9,8)             18.4227         estimate D2E/DX2                !
 ! D18   D(3,1,9,10)          -102.022          estimate D2E/DX2                !
 ! D19   D(3,1,9,11)          -179.1801         estimate D2E/DX2                !
 ! D20   D(3,1,9,13)           -25.9631         estimate D2E/DX2                !
 ! D21   D(3,1,9,26)           105.2084         estimate D2E/DX2                !
 ! D22   D(5,1,9,8)           -177.6217         estimate D2E/DX2                !
 ! D23   D(5,1,9,10)            61.9337         estimate D2E/DX2                !
 ! D24   D(5,1,9,11)           -15.2245         estimate D2E/DX2                !
 ! D25   D(5,1,9,13)           137.9926         estimate D2E/DX2                !
 ! D26   D(5,1,9,26)           -90.8359         estimate D2E/DX2                !
 ! D27   D(12,1,9,8)          -131.9053         estimate D2E/DX2                !
 ! D28   D(12,1,9,10)          107.6501         estimate D2E/DX2                !
 ! D29   D(12,1,9,11)           30.4919         estimate D2E/DX2                !
 ! D30   D(12,1,9,13)         -176.2911         estimate D2E/DX2                !
 ! D31   D(12,1,9,26)          -45.1195         estimate D2E/DX2                !
 ! D32   D(21,1,9,8)          -136.8589         estimate D2E/DX2                !
 ! D33   D(21,1,9,10)          102.6965         estimate D2E/DX2                !
 ! D34   D(21,1,9,11)           25.5383         estimate D2E/DX2                !
 ! D35   D(21,1,9,13)          178.7553         estimate D2E/DX2                !
 ! D36   D(21,1,9,26)          -50.0731         estimate D2E/DX2                !
 ! D37   D(23,1,9,8)           -64.7043         estimate D2E/DX2                !
 ! D38   D(23,1,9,10)          174.8511         estimate D2E/DX2                !
 ! D39   D(23,1,9,11)           97.693          estimate D2E/DX2                !
 ! D40   D(23,1,9,13)         -109.09           estimate D2E/DX2                !
 ! D41   D(23,1,9,26)           22.0815         estimate D2E/DX2                !
 ! D42   D(3,1,12,11)         -121.8106         estimate D2E/DX2                !
 ! D43   D(3,1,12,14)           55.4268         estimate D2E/DX2                !
 ! D44   D(3,1,12,15)          -82.1787         estimate D2E/DX2                !
 ! D45   D(4,1,12,11)           16.7096         estimate D2E/DX2                !
 ! D46   D(4,1,12,14)         -166.0531         estimate D2E/DX2                !
 ! D47   D(4,1,12,15)           56.3415         estimate D2E/DX2                !
 ! D48   D(6,1,12,11)          -34.4781         estimate D2E/DX2                !
 ! D49   D(6,1,12,14)          142.7593         estimate D2E/DX2                !
 ! D50   D(6,1,12,15)            5.1538         estimate D2E/DX2                !
 ! D51   D(9,1,12,11)          -29.2901         estimate D2E/DX2                !
 ! D52   D(9,1,12,14)          147.9473         estimate D2E/DX2                !
 ! D53   D(9,1,12,15)           10.3418         estimate D2E/DX2                !
 ! D54   D(23,1,12,11)         171.7594         estimate D2E/DX2                !
 ! D55   D(23,1,12,14)         -11.0032         estimate D2E/DX2                !
 ! D56   D(23,1,12,15)        -148.6087         estimate D2E/DX2                !
 ! D57   D(2,1,21,14)           -3.0854         estimate D2E/DX2                !
 ! D58   D(2,1,21,22)         -168.9858         estimate D2E/DX2                !
 ! D59   D(3,1,21,14)         -109.8478         estimate D2E/DX2                !
 ! D60   D(3,1,21,22)           84.2517         estimate D2E/DX2                !
 ! D61   D(4,1,21,14)          111.441          estimate D2E/DX2                !
 ! D62   D(4,1,21,22)          -54.4595         estimate D2E/DX2                !
 ! D63   D(9,1,21,14)           41.9189         estimate D2E/DX2                !
 ! D64   D(9,1,21,22)         -123.9816         estimate D2E/DX2                !
 ! D65   D(12,2,9,4)            67.3305         estimate D2E/DX2                !
 ! D66   D(12,2,9,6)           121.5636         estimate D2E/DX2                !
 ! D67   D(12,2,9,8)           172.4211         estimate D2E/DX2                !
 ! D68   D(12,2,9,11)          -14.9221         estimate D2E/DX2                !
 ! D69   D(12,2,9,13)          174.9439         estimate D2E/DX2                !
 ! D70   D(12,2,9,24)         -102.3986         estimate D2E/DX2                !
 ! D71   D(12,2,9,26)          -97.6254         estimate D2E/DX2                !
 ! D72   D(9,2,12,5)           -67.6382         estimate D2E/DX2                !
 ! D73   D(9,2,12,11)           14.2766         estimate D2E/DX2                !
 ! D74   D(9,2,12,14)         -172.9144         estimate D2E/DX2                !
 ! D75   D(9,2,12,15)           93.0499         estimate D2E/DX2                !
 ! D76   D(9,2,12,21)         -120.0826         estimate D2E/DX2                !
 ! D77   D(1,4,6,9)             83.5938         estimate D2E/DX2                !
 ! D78   D(1,5,12,21)           82.4596         estimate D2E/DX2                !
 ! D79   D(3,6,9,2)            -10.32           estimate D2E/DX2                !
 ! D80   D(3,6,9,10)           164.0218         estimate D2E/DX2                !
 ! D81   D(3,6,9,11)            66.8805         estimate D2E/DX2                !
 ! D82   D(3,6,9,24)          -148.0332         estimate D2E/DX2                !
 ! D83   D(3,6,9,26)           -85.7279         estimate D2E/DX2                !
 ! D84   D(7,6,9,2)           -173.6932         estimate D2E/DX2                !
 ! D85   D(7,6,9,10)             0.6487         estimate D2E/DX2                !
 ! D86   D(7,6,9,11)           -96.4927         estimate D2E/DX2                !
 ! D87   D(7,6,9,24)            48.5936         estimate D2E/DX2                !
 ! D88   D(7,6,9,26)           110.899          estimate D2E/DX2                !
 ! D89   D(18,6,9,2)           148.5624         estimate D2E/DX2                !
 ! D90   D(18,6,9,10)          -37.0957         estimate D2E/DX2                !
 ! D91   D(18,6,9,11)         -134.2371         estimate D2E/DX2                !
 ! D92   D(18,6,9,24)           10.8492         estimate D2E/DX2                !
 ! D93   D(18,6,9,26)           73.1546         estimate D2E/DX2                !
 ! D94   D(20,6,9,2)           105.5746         estimate D2E/DX2                !
 ! D95   D(20,6,9,10)          -80.0835         estimate D2E/DX2                !
 ! D96   D(20,6,9,11)         -177.2249         estimate D2E/DX2                !
 ! D97   D(20,6,9,24)          -32.1386         estimate D2E/DX2                !
 ! D98   D(20,6,9,26)           30.1667         estimate D2E/DX2                !
 ! D99   D(1,6,13,10)           42.064          estimate D2E/DX2                !
 ! D100  D(1,6,13,16)         -155.7075         estimate D2E/DX2                !
 ! D101  D(1,6,13,17)          -75.4637         estimate D2E/DX2                !
 ! D102  D(1,6,13,24)           -5.6666         estimate D2E/DX2                !
 ! D103  D(3,6,13,10)          109.7626         estimate D2E/DX2                !
 ! D104  D(3,6,13,16)          -88.0089         estimate D2E/DX2                !
 ! D105  D(3,6,13,17)           -7.765          estimate D2E/DX2                !
 ! D106  D(3,6,13,24)           62.0321         estimate D2E/DX2                !
 ! D107  D(4,6,13,10)           -2.8646         estimate D2E/DX2                !
 ! D108  D(4,6,13,16)          159.3639         estimate D2E/DX2                !
 ! D109  D(4,6,13,17)         -120.3923         estimate D2E/DX2                !
 ! D110  D(4,6,13,24)          -50.5952         estimate D2E/DX2                !
 ! D111  D(20,6,13,10)        -155.5535         estimate D2E/DX2                !
 ! D112  D(20,6,13,16)           6.675          estimate D2E/DX2                !
 ! D113  D(20,6,13,17)          86.9189         estimate D2E/DX2                !
 ! D114  D(20,6,13,24)         156.716          estimate D2E/DX2                !
 ! D115  D(3,6,18,16)          110.7225         estimate D2E/DX2                !
 ! D116  D(3,6,18,19)          -67.2801         estimate D2E/DX2                !
 ! D117  D(4,6,18,16)         -104.816          estimate D2E/DX2                !
 ! D118  D(4,6,18,19)           77.1814         estimate D2E/DX2                !
 ! D119  D(8,6,18,16)            7.9501         estimate D2E/DX2                !
 ! D120  D(8,6,18,19)         -170.0525         estimate D2E/DX2                !
 ! D121  D(9,6,18,16)          -43.559          estimate D2E/DX2                !
 ! D122  D(9,6,18,19)          138.4383         estimate D2E/DX2                !
 ! D123  D(6,7,13,18)          -79.3212         estimate D2E/DX2                !
 ! D124  D(6,8,9,13)            86.2877         estimate D2E/DX2                !
 ! D125  D(1,9,11,12)          -34.3865         estimate D2E/DX2                !
 ! D126  D(1,9,11,27)         -118.5789         estimate D2E/DX2                !
 ! D127  D(2,9,11,12)           13.5193         estimate D2E/DX2                !
 ! D128  D(2,9,11,27)          -70.6732         estimate D2E/DX2                !
 ! D129  D(4,9,11,12)          -84.6267         estimate D2E/DX2                !
 ! D130  D(4,9,11,27)         -168.8192         estimate D2E/DX2                !
 ! D131  D(6,9,11,12)          -66.4683         estimate D2E/DX2                !
 ! D132  D(6,9,11,27)         -150.6607         estimate D2E/DX2                !
 ! D133  D(8,9,11,12)           36.804          estimate D2E/DX2                !
 ! D134  D(8,9,11,27)          -47.3885         estimate D2E/DX2                !
 ! D135  D(10,9,11,12)        -171.8623         estimate D2E/DX2                !
 ! D136  D(10,9,11,27)         103.9452         estimate D2E/DX2                !
 ! D137  D(13,9,11,12)        -177.5271         estimate D2E/DX2                !
 ! D138  D(13,9,11,27)          98.2805         estimate D2E/DX2                !
 ! D139  D(24,9,11,12)         141.3579         estimate D2E/DX2                !
 ! D140  D(24,9,11,27)          57.1655         estimate D2E/DX2                !
 ! D141  D(26,9,11,12)          96.0569         estimate D2E/DX2                !
 ! D142  D(26,9,11,27)          11.8644         estimate D2E/DX2                !
 ! D143  D(1,9,13,7)           -47.6339         estimate D2E/DX2                !
 ! D144  D(1,9,13,16)           48.4913         estimate D2E/DX2                !
 ! D145  D(1,9,13,17)          144.9455         estimate D2E/DX2                !
 ! D146  D(1,9,13,18)           -6.0846         estimate D2E/DX2                !
 ! D147  D(2,9,13,7)          -109.4715         estimate D2E/DX2                !
 ! D148  D(2,9,13,16)          -13.3463         estimate D2E/DX2                !
 ! D149  D(2,9,13,17)           83.108          estimate D2E/DX2                !
 ! D150  D(2,9,13,18)          -67.9222         estimate D2E/DX2                !
 ! D151  D(4,9,13,7)            -1.8171         estimate D2E/DX2                !
 ! D152  D(4,9,13,16)           94.3081         estimate D2E/DX2                !
 ! D153  D(4,9,13,17)         -169.2376         estimate D2E/DX2                !
 ! D154  D(4,9,13,18)           39.7322         estimate D2E/DX2                !
 ! D155  D(11,9,13,7)           86.3037         estimate D2E/DX2                !
 ! D156  D(11,9,13,16)        -177.5711         estimate D2E/DX2                !
 ! D157  D(11,9,13,17)         -81.1168         estimate D2E/DX2                !
 ! D158  D(11,9,13,18)         127.853          estimate D2E/DX2                !
 ! D159  D(26,9,13,7)          168.2967         estimate D2E/DX2                !
 ! D160  D(26,9,13,16)         -95.5781         estimate D2E/DX2                !
 ! D161  D(26,9,13,17)           0.8762         estimate D2E/DX2                !
 ! D162  D(26,9,13,18)        -150.154          estimate D2E/DX2                !
 ! D163  D(2,9,24,17)          -93.2759         estimate D2E/DX2                !
 ! D164  D(2,9,24,25)           93.5711         estimate D2E/DX2                !
 ! D165  D(4,9,24,17)          100.9763         estimate D2E/DX2                !
 ! D166  D(4,9,24,25)          -72.1766         estimate D2E/DX2                !
 ! D167  D(6,9,24,17)           28.2789         estimate D2E/DX2                !
 ! D168  D(6,9,24,25)         -144.8741         estimate D2E/DX2                !
 ! D169  D(8,9,24,17)          -13.3515         estimate D2E/DX2                !
 ! D170  D(8,9,24,25)          173.4955         estimate D2E/DX2                !
 ! D171  D(11,9,24,17)        -175.3391         estimate D2E/DX2                !
 ! D172  D(11,9,24,25)          11.5079         estimate D2E/DX2                !
 ! D173  D(1,9,26,27)           66.6495         estimate D2E/DX2                !
 ! D174  D(2,9,26,27)           72.1672         estimate D2E/DX2                !
 ! D175  D(6,9,26,27)          150.2036         estimate D2E/DX2                !
 ! D176  D(8,9,26,27)          153.2393         estimate D2E/DX2                !
 ! D177  D(10,9,26,27)         -94.9448         estimate D2E/DX2                !
 ! D178  D(11,9,26,27)         -10.8275         estimate D2E/DX2                !
 ! D179  D(13,9,26,27)        -152.181          estimate D2E/DX2                !
 ! D180  D(9,10,13,24)          86.422          estimate D2E/DX2                !
 ! D181  D(9,11,12,1)           34.9954         estimate D2E/DX2                !
 ! D182  D(9,11,12,2)          -14.8128         estimate D2E/DX2                !
 ! D183  D(9,11,12,5)           89.3264         estimate D2E/DX2                !
 ! D184  D(9,11,12,15)        -134.8533         estimate D2E/DX2                !
 ! D185  D(9,11,12,21)          79.2631         estimate D2E/DX2                !
 ! D186  D(27,11,12,1)         135.1244         estimate D2E/DX2                !
 ! D187  D(27,11,12,2)          85.3163         estimate D2E/DX2                !
 ! D188  D(27,11,12,5)        -170.5446         estimate D2E/DX2                !
 ! D189  D(27,11,12,15)        -34.7242         estimate D2E/DX2                !
 ! D190  D(27,11,12,21)        179.3922         estimate D2E/DX2                !
 ! D191  D(9,11,27,15)         124.2265         estimate D2E/DX2                !
 ! D192  D(9,11,27,26)         -11.759          estimate D2E/DX2                !
 ! D193  D(9,11,27,28)         -87.3027         estimate D2E/DX2                !
 ! D194  D(9,11,27,29)        -157.4107         estimate D2E/DX2                !
 ! D195  D(12,11,27,15)         31.9115         estimate D2E/DX2                !
 ! D196  D(12,11,27,26)       -104.074          estimate D2E/DX2                !
 ! D197  D(12,11,27,28)       -179.6177         estimate D2E/DX2                !
 ! D198  D(12,11,27,29)        110.2744         estimate D2E/DX2                !
 ! D199  D(1,12,15,27)          -6.1082         estimate D2E/DX2                !
 ! D200  D(2,12,15,27)         -46.1167         estimate D2E/DX2                !
 ! D201  D(5,12,15,27)         107.3918         estimate D2E/DX2                !
 ! D202  D(11,12,15,27)         33.7073         estimate D2E/DX2                !
 ! D203  D(14,12,15,27)       -144.8726         estimate D2E/DX2                !
 ! D204  D(21,12,15,27)       -178.9407         estimate D2E/DX2                !
 ! D205  D(2,12,21,22)        -173.7971         estimate D2E/DX2                !
 ! D206  D(2,12,21,23)           5.872          estimate D2E/DX2                !
 ! D207  D(11,12,21,22)         97.1674         estimate D2E/DX2                !
 ! D208  D(11,12,21,23)        -83.1635         estimate D2E/DX2                !
 ! D209  D(15,12,21,22)        -34.0839         estimate D2E/DX2                !
 ! D210  D(15,12,21,23)        145.5852         estimate D2E/DX2                !
 ! D211  D(8,13,18,19)         167.9172         estimate D2E/DX2                !
 ! D212  D(8,13,18,20)         -16.1646         estimate D2E/DX2                !
 ! D213  D(9,13,18,19)        -141.1426         estimate D2E/DX2                !
 ! D214  D(9,13,18,20)          34.7756         estimate D2E/DX2                !
 ! D215  D(10,13,18,19)        -69.3796         estimate D2E/DX2                !
 ! D216  D(10,13,18,20)        106.5386         estimate D2E/DX2                !
 ! D217  D(17,13,18,19)         73.6692         estimate D2E/DX2                !
 ! D218  D(17,13,18,20)       -110.4126         estimate D2E/DX2                !
 ! D219  D(6,13,24,25)         148.8944         estimate D2E/DX2                !
 ! D220  D(6,13,24,26)         -33.1339         estimate D2E/DX2                !
 ! D221  D(7,13,24,25)          71.8664         estimate D2E/DX2                !
 ! D222  D(7,13,24,26)        -110.1619         estimate D2E/DX2                !
 ! D223  D(8,13,24,25)        -165.3594         estimate D2E/DX2                !
 ! D224  D(8,13,24,26)          12.6124         estimate D2E/DX2                !
 ! D225  D(16,13,24,25)        -71.1395         estimate D2E/DX2                !
 ! D226  D(16,13,24,26)        106.8322         estimate D2E/DX2                !
 ! D227  D(12,15,27,11)        -36.3571         estimate D2E/DX2                !
 ! D228  D(12,15,27,26)         36.1848         estimate D2E/DX2                !
 ! D229  D(12,15,27,28)       -179.8186         estimate D2E/DX2                !
 ! D230  D(12,15,27,29)       -122.8244         estimate D2E/DX2                !
 ! D231  D(10,24,26,27)         67.5901         estimate D2E/DX2                !
 ! D232  D(13,24,26,27)        123.8688         estimate D2E/DX2                !
 ! D233  D(17,24,26,27)        179.7118         estimate D2E/DX2                !
 ! D234  D(25,24,26,27)        -57.4049         estimate D2E/DX2                !
 ! D235  D(9,26,27,11)          11.1156         estimate D2E/DX2                !
 ! D236  D(9,26,27,15)         -61.4922         estimate D2E/DX2                !
 ! D237  D(9,26,27,28)         142.2033         estimate D2E/DX2                !
 ! D238  D(9,26,27,29)          82.3562         estimate D2E/DX2                !
 ! D239  D(24,26,27,11)        -66.1996         estimate D2E/DX2                !
 ! D240  D(24,26,27,15)       -138.8074         estimate D2E/DX2                !
 ! D241  D(24,26,27,28)         64.8881         estimate D2E/DX2                !
 ! D242  D(24,26,27,29)          5.041          estimate D2E/DX2                !
 --------------------------------------------------------------------------------
 Trust Radius=3.00D-01 FncErr=1.00D-07 GrdErr=1.00D-06 EigMax=2.50D+02 EigMin=1.00D-04
 Number of steps in this run=    186 maximum allowed number of steps=    186.
 GradGradGradGradGradGradGradGradGradGradGradGradGradGradGradGradGradGrad

                          Input orientation:                          
 ---------------------------------------------------------------------
 Center     Atomic      Atomic             Coordinates (Angstroms)
 Number     Number       Type             X           Y           Z
 ---------------------------------------------------------------------
      1         42           0        0.388631    1.950652   12.106301
      2         16           0        1.402310    3.984554   11.636749
      3         16           0       -1.563049    2.577047   13.327972
      4         16           0       -0.573318    1.145662   10.092506
      5         16           0        2.161510    0.305880   11.452194
      6         42           0       -2.160112    2.687105   11.127134
      7         16           0       -3.326613    1.878668    8.883608
      8         16           0       -1.628247    4.885914   10.612048
      9         42           0        0.022225    3.411466    9.474539
     10         16           0       -0.699781    2.818631    7.178389
     11         16           0        2.205373    2.342043    8.796433
     12         42           0        3.197020    2.462779   11.219123
     13         42           0       -2.345405    4.108968    8.485489
     14         16           0        4.305401    2.723747   13.236614
     15         16           0        5.080293    3.230296   10.096713
     16         16           0       -4.600611    5.228288    8.984940
     17         16           0       -2.013719    6.235100    7.352302
     18         42           0       -4.929170    3.211728    9.860145
     19         16           0       -6.903133    2.524996    9.526462
     20         16           0       -4.408390    3.230128   12.049455
     21         42           0        2.879617    0.925723   13.577352
     22         16           0        3.975815   -0.653471   14.483963
     23         16           0        1.063373    1.635381   14.604842
     24         42           0       -0.173401    5.042144    6.869112
     25         16           0        0.514580    5.428494    4.900448
     26         16           0        1.244701    5.564595    8.595180
     27         42           0        3.581804    4.338847    8.425695
     28          6           0        3.795011    5.459732    6.748688
     29          6           0        4.687499    3.152168    7.273390
     30          8           0        3.912745    6.094807    5.795075
     31          8           0        5.291122    2.446383    6.595768
 ---------------------------------------------------------------------
                    Distance matrix (angstroms):
                    1          2          3          4          5
     1  Mo   0.000000
     2  S    2.320513   0.000000
     3  S    2.386191   3.692515   0.000000
     4  S    2.372493   3.787757   3.673782   0.000000
     5  S    2.505241   3.760730   4.748587   3.167534   0.000000
     6  Mo   2.827936   3.825432   2.283043   2.442216   4.944928
     7  S    4.918737   5.863212   4.832211   3.095055   6.260255
     8  S    3.862169   3.323663   3.565300   3.920750   6.003733
     9  Mo   3.032227   2.628349   4.249505   2.422895   4.258207
    10  S    5.120776   5.065090   6.214577   3.362573   5.724187
    11  S    3.795914   3.377891   5.898396   3.291239   3.346782
    12  Mo   2.989382   2.389811   5.207548   4.149640   2.403917
    13  Mo   5.024297   4.898090   5.138921   3.808409   6.601295
    14  S    4.149261   3.546426   5.870994   6.014787   3.691410
    15  S    5.261903   4.058100   7.416317   6.025698   4.348429
    16  S    6.736344   6.679373   5.926026   5.840687   8.720305
    17  S    6.835809   5.923740   7.020904   5.957000   8.330504
    18  Mo   5.908852   6.621270   4.874363   4.826600   7.826641
    19  S    7.755982   8.692756   6.555203   6.503040   9.528939
    20  S    4.965048   5.873987   3.187018   4.783558   7.216061
    21  Mo   3.069117   3.912138   4.746192   4.910732   2.327269
    22  S    5.030171   6.020036   6.515487   6.573917   3.661104
    23  S    2.607178   3.800404   3.068424   4.824910   3.593420
    24  Mo   6.107483   5.131445   7.051574   5.072748   6.992042
    25  S    8.002223   6.946278   9.136217   6.817891   8.478144
    26  S    5.110911   3.431109   6.261647   5.007409   6.054515
    27  Mo   5.426480   3.896997   7.321596   5.499066   5.238488
    28  C    7.254039   5.638644   8.961342   6.991038   7.166135
    29  C    6.578825   5.524874   8.721128   6.296799   5.651936
    30  O    8.332165   6.699299   9.955074   7.942714   8.281395
    31  O    7.392303   6.549833   9.608293   6.950590   6.161258
                    6          7          8          9         10
     6  Mo   0.000000
     7  S    2.654751   0.000000
     8  S    2.320120   3.862056   0.000000
     9  Mo   2.831672   3.730065   2.488369   0.000000
    10  S    4.212179   3.269793   4.114088   2.478921   0.000000
    11  S    4.960715   5.552043   4.946148   2.523812   3.359334
    12  Mo   5.362616   6.953676   5.433537   3.744717   5.624875
    13  Mo   3.005714   2.468908   2.374913   2.659023   2.466082
    14  S    6.801037   8.826690   6.838969   5.742104   7.858940
    15  S    7.333505   8.600848   6.929008   5.099409   6.488092
    16  S    4.123426   3.585149   3.405826   4.991108   4.928138
    17  S    5.182572   4.800738   3.548920   4.076992   3.664552
    18  Mo   3.090012   2.301926   3.776817   4.970402   5.023353
    19  S    5.008461   3.690867   5.880209   6.982056   6.639371
    20  S    2.490041   3.608223   3.540757   5.127711   6.135992
    21  Mo   5.874087   7.839428   6.693054   5.583608   7.572445
    22  S    7.750958   9.544693   8.779637   7.566301   9.342810
    23  S    4.857101   7.215517   5.809749   5.527972   7.724053
    24  Mo   5.255852   4.899849   4.018775   3.079875   2.305805
    25  S    7.310322   6.574313   6.124416   5.023258   3.670841
    26  S    5.126743   5.879299   3.575220   2.627486   3.650839
    27  Mo   6.557105   7.347679   5.676623   3.825011   4.711560
    28  C    7.894412   8.252238   6.683303   5.085231   5.230986
    29  C    7.871302   8.272883   7.351269   5.164985   5.398431
    30  O    8.770569   8.928783   7.440917   5.989568   5.824284
    31  O    8.724226   8.934309   8.364179   6.081117   6.030666
                   11         12         13         14         15
    11  S    0.000000
    12  Mo   2.620566   0.000000
    13  Mo   4.891655   6.395402   0.000000
    14  S    4.926563   2.316653   8.290069   0.000000
    15  S    3.277939   2.322844   7.649124   3.273534   0.000000
    16  S    7.395090   8.569869   2.566765  10.181675   9.947257
    17  S    5.919641   7.505632   2.431988   9.321266   8.178364
    18  Mo   7.265641   8.273011   3.061137   9.844591  10.012275
    19  S    9.139546  10.241194   4.936140  11.808301  12.017701
    20  S    7.423793   7.688988   4.210715   8.808855   9.687534
    21  Mo   5.031675   2.832760   7.959961   2.319882   4.718991
    22  S    6.667501   4.580034   9.930777   3.615260   5.962506
    23  S    5.961640   4.086579   7.428653   3.683386   6.245208
    24  Mo   4.082117   6.077455   2.863755   8.122790   6.426624
    25  S    5.250110   7.477741   4.772126   9.548699   7.258029
    26  S    3.368714   4.507537   3.875531   6.243494   4.734482
    27  Mo   2.453413   3.386876   5.931966   5.126118   2.503329
    28  C    4.054651   5.415174   6.522710   7.059695   4.222749
    29  C    3.022733   4.273827   7.200444   5.990792   2.851586
    30  O    5.099658   6.566901   7.095514   8.178920   5.298366
    31  O    3.791525   5.075524   8.040633   6.719331   3.593826
                   16         17         18         19         20
    16  S    0.000000
    17  S    3.220433   0.000000
    18  Mo   2.222712   4.891821   0.000000
    19  S    3.592025   6.511391   2.116477   0.000000
    20  S    3.663447   6.068571   2.250473   3.617520   0.000000
    21  Mo   9.775281   9.533387   8.945423  10.708388   7.794857
    22  S   11.763904  11.583934  10.752591  12.370569   9.555316
    23  S    8.750600   9.122787   7.804332   9.489287   6.246072
    24  Mo   4.910353   2.245749   5.908810   7.660733   6.932134
    25  S    6.548919   3.613101   7.690713   9.211556   8.954147
    26  S    5.867937   3.551285   6.727020   8.746065   7.024186
    27  Mo   8.249592   6.004817   8.704293  10.697460   8.843308
    28  C    8.691424   5.891255   9.531318  11.435864  10.018236
    29  C    9.669988   7.376789   9.958673  11.824231  10.273854
    30  O    9.132542   6.129242  10.149699  11.985408  10.796525
    31  O   10.549574   8.263620  10.756220  12.541730  11.155155
                   21         22         23         24         25
    21  Mo   0.000000
    22  S    2.125429   0.000000
    23  S    2.204108   3.706180   0.000000
    24  Mo   8.441938  10.375065   8.542667   0.000000
    25  S   10.057684  11.866516  10.433798   2.120901   0.000000
    26  S    7.001009   8.988943   7.182454   2.294184   3.768640
    27  Mo   6.219490   7.860095   7.199519   4.125426   4.798183
    28  C    8.247778   9.860954   9.154598   3.992139   3.765394
    29  C    6.925708   8.184238   8.317759   5.231042   5.312793
    30  O    9.399501  11.001818  10.277032   4.354107   3.576570
    31  O    7.541239   8.576873   9.092681   6.055882   5.880684
                   26         27         28         29         30
    26  S    0.000000
    27  Mo   2.644472   0.000000
    28  C    3.150335   2.028347   0.000000
    29  C    4.406789   1.989617   2.529170   0.000000
    30  O    3.903866   3.180107   1.151764   3.383014   0.000000
    31  O    5.485838   3.138761   3.367789   1.149637   3.981461
                   31
    31  O    0.000000
 Symmetry turned off by external request.
 Stoichiometry    C2Mo9O2S18
 Framework group  C1[X(C2Mo9O2S18)]
 Deg. of freedom    87
 Full point group                 C1      NOp   1
 Rotational constants (GHZ):           0.0487654           0.0325420           0.0213561
 General basis read from cards:  (5D, 7F)
 ======================================================================================================
                                       Pseudopotential Parameters
 ======================================================================================================
  Center     Atomic      Valence      Angular      Power
  Number     Number     Electrons     Momentum     of R      Exponent        Coefficient   SO-Coeffient
 ======================================================================================================
    1         42           14
                                      F and up 
                                                     0      537.9667807       -0.04694920    0.00000000
                                                     1      147.8982938      -20.20800840    0.00000000
                                                     2       45.7358898     -106.21163020    0.00000000
                                                     2       13.2911467      -41.81073680    0.00000000
                                                     2        4.7059961       -4.20541030    0.00000000
                                      S - F
                                                     0      110.2991760        2.80637170    0.00000000
                                                     1       23.2014645       44.51620120    0.00000000
                                                     2        5.3530131       82.77852270    0.00000000
                                      P - F
                                                     0       63.2901397        4.94208760    0.00000000
                                                     1       23.3315302       25.86049760    0.00000000
                                                     2       24.6759423      132.47087420    0.00000000
                                                     2        4.6493040       57.31497940    0.00000000
                                      D - F
                                                     0      104.4839977        3.00545910    0.00000000
                                                     1       66.2307245       26.36378510    0.00000000
                                                     2       39.1283176      183.38491990    0.00000000
                                                     2       13.1164437       98.44530680    0.00000000
                                                     2        3.6280263       22.49013770    0.00000000
    2         16
                                   No pseudopotential on this center.
    3         16
                                   No pseudopotential on this center.
    4         16
                                   No pseudopotential on this center.
    5         16
                                   No pseudopotential on this center.
    6         42           14
                                      F and up 
                                                     0      537.9667807       -0.04694920    0.00000000
                                                     1      147.8982938      -20.20800840    0.00000000
                                                     2       45.7358898     -106.21163020    0.00000000
                                                     2       13.2911467      -41.81073680    0.00000000
                                                     2        4.7059961       -4.20541030    0.00000000
                                      S - F
                                                     0      110.2991760        2.80637170    0.00000000
                                                     1       23.2014645       44.51620120    0.00000000
                                                     2        5.3530131       82.77852270    0.00000000
                                      P - F
                                                     0       63.2901397        4.94208760    0.00000000
                                                     1       23.3315302       25.86049760    0.00000000
                                                     2       24.6759423      132.47087420    0.00000000
                                                     2        4.6493040       57.31497940    0.00000000
                                      D - F
                                                     0      104.4839977        3.00545910    0.00000000
                                                     1       66.2307245       26.36378510    0.00000000
                                                     2       39.1283176      183.38491990    0.00000000
                                                     2       13.1164437       98.44530680    0.00000000
                                                     2        3.6280263       22.49013770    0.00000000
    7         16
                                   No pseudopotential on this center.
    8         16
                                   No pseudopotential on this center.
    9         42           14
                                      F and up 
                                                     0      537.9667807       -0.04694920    0.00000000
                                                     1      147.8982938      -20.20800840    0.00000000
                                                     2       45.7358898     -106.21163020    0.00000000
                                                     2       13.2911467      -41.81073680    0.00000000
                                                     2        4.7059961       -4.20541030    0.00000000
                                      S - F
                                                     0      110.2991760        2.80637170    0.00000000
                                                     1       23.2014645       44.51620120    0.00000000
                                                     2        5.3530131       82.77852270    0.00000000
                                      P - F
                                                     0       63.2901397        4.94208760    0.00000000
                                                     1       23.3315302       25.86049760    0.00000000
                                                     2       24.6759423      132.47087420    0.00000000
                                                     2        4.6493040       57.31497940    0.00000000
                                      D - F
                                                     0      104.4839977        3.00545910    0.00000000
                                                     1       66.2307245       26.36378510    0.00000000
                                                     2       39.1283176      183.38491990    0.00000000
                                                     2       13.1164437       98.44530680    0.00000000
                                                     2        3.6280263       22.49013770    0.00000000
   10         16
                                   No pseudopotential on this center.
   11         16
                                   No pseudopotential on this center.
   12         42           14
                                      F and up 
                                                     0      537.9667807       -0.04694920    0.00000000
                                                     1      147.8982938      -20.20800840    0.00000000
                                                     2       45.7358898     -106.21163020    0.00000000
                                                     2       13.2911467      -41.81073680    0.00000000
                                                     2        4.7059961       -4.20541030    0.00000000
                                      S - F
                                                     0      110.2991760        2.80637170    0.00000000
                                                     1       23.2014645       44.51620120    0.00000000
                                                     2        5.3530131       82.77852270    0.00000000
                                      P - F
                                                     0       63.2901397        4.94208760    0.00000000
                                                     1       23.3315302       25.86049760    0.00000000
                                                     2       24.6759423      132.47087420    0.00000000
                                                     2        4.6493040       57.31497940    0.00000000
                                      D - F
                                                     0      104.4839977        3.00545910    0.00000000
                                                     1       66.2307245       26.36378510    0.00000000
                                                     2       39.1283176      183.38491990    0.00000000
                                                     2       13.1164437       98.44530680    0.00000000
                                                     2        3.6280263       22.49013770    0.00000000
   13         42           14
                                      F and up 
                                                     0      537.9667807       -0.04694920    0.00000000
                                                     1      147.8982938      -20.20800840    0.00000000
                                                     2       45.7358898     -106.21163020    0.00000000
                                                     2       13.2911467      -41.81073680    0.00000000
                                                     2        4.7059961       -4.20541030    0.00000000
                                      S - F
                                                     0      110.2991760        2.80637170    0.00000000
                                                     1       23.2014645       44.51620120    0.00000000
                                                     2        5.3530131       82.77852270    0.00000000
                                      P - F
                                                     0       63.2901397        4.94208760    0.00000000
                                                     1       23.3315302       25.86049760    0.00000000
                                                     2       24.6759423      132.47087420    0.00000000
                                                     2        4.6493040       57.31497940    0.00000000
                                      D - F
                                                     0      104.4839977        3.00545910    0.00000000
                                                     1       66.2307245       26.36378510    0.00000000
                                                     2       39.1283176      183.38491990    0.00000000
                                                     2       13.1164437       98.44530680    0.00000000
                                                     2        3.6280263       22.49013770    0.00000000
   14         16
                                   No pseudopotential on this center.
   15         16
                                   No pseudopotential on this center.
   16         16
                                   No pseudopotential on this center.
   17         16
                                   No pseudopotential on this center.
   18         42           14
                                      F and up 
                                                     0      537.9667807       -0.04694920    0.00000000
                                                     1      147.8982938      -20.20800840    0.00000000
                                                     2       45.7358898     -106.21163020    0.00000000
                                                     2       13.2911467      -41.81073680    0.00000000
                                                     2        4.7059961       -4.20541030    0.00000000
                                      S - F
                                                     0      110.2991760        2.80637170    0.00000000
                                                     1       23.2014645       44.51620120    0.00000000
                                                     2        5.3530131       82.77852270    0.00000000
                                      P - F
                                                     0       63.2901397        4.94208760    0.00000000
                                                     1       23.3315302       25.86049760    0.00000000
                                                     2       24.6759423      132.47087420    0.00000000
                                                     2        4.6493040       57.31497940    0.00000000
                                      D - F
                                                     0      104.4839977        3.00545910    0.00000000
                                                     1       66.2307245       26.36378510    0.00000000
                                                     2       39.1283176      183.38491990    0.00000000
                                                     2       13.1164437       98.44530680    0.00000000
                                                     2        3.6280263       22.49013770    0.00000000
   19         16
                                   No pseudopotential on this center.
   20         16
                                   No pseudopotential on this center.
   21         42           14
                                      F and up 
                                                     0      537.9667807       -0.04694920    0.00000000
                                                     1      147.8982938      -20.20800840    0.00000000
                                                     2       45.7358898     -106.21163020    0.00000000
                                                     2       13.2911467      -41.81073680    0.00000000
                                                     2        4.7059961       -4.20541030    0.00000000
                                      S - F
                                                     0      110.2991760        2.80637170    0.00000000
                                                     1       23.2014645       44.51620120    0.00000000
                                                     2        5.3530131       82.77852270    0.00000000
                                      P - F
                                                     0       63.2901397        4.94208760    0.00000000
                                                     1       23.3315302       25.86049760    0.00000000
                                                     2       24.6759423      132.47087420    0.00000000
                                                     2        4.6493040       57.31497940    0.00000000
                                      D - F
                                                     0      104.4839977        3.00545910    0.00000000
                                                     1       66.2307245       26.36378510    0.00000000
                                                     2       39.1283176      183.38491990    0.00000000
                                                     2       13.1164437       98.44530680    0.00000000
                                                     2        3.6280263       22.49013770    0.00000000
   22         16
                                   No pseudopotential on this center.
   23         16
                                   No pseudopotential on this center.
   24         42           14
                                      F and up 
                                                     0      537.9667807       -0.04694920    0.00000000
                                                     1      147.8982938      -20.20800840    0.00000000
                                                     2       45.7358898     -106.21163020    0.00000000
                                                     2       13.2911467      -41.81073680    0.00000000
                                                     2        4.7059961       -4.20541030    0.00000000
                                      S - F
                                                     0      110.2991760        2.80637170    0.00000000
                                                     1       23.2014645       44.51620120    0.00000000
                                                     2        5.3530131       82.77852270    0.00000000
                                      P - F
                                                     0       63.2901397        4.94208760    0.00000000
                                                     1       23.3315302       25.86049760    0.00000000
                                                     2       24.6759423      132.47087420    0.00000000
                                                     2        4.6493040       57.31497940    0.00000000
                                      D - F
                                                     0      104.4839977        3.00545910    0.00000000
                                                     1       66.2307245       26.36378510    0.00000000
                                                     2       39.1283176      183.38491990    0.00000000
                                                     2       13.1164437       98.44530680    0.00000000
                                                     2        3.6280263       22.49013770    0.00000000
   25         16
                                   No pseudopotential on this center.
   26         16
                                   No pseudopotential on this center.
   27         42           14
                                      F and up 
                                                     0      537.9667807       -0.04694920    0.00000000
                                                     1      147.8982938      -20.20800840    0.00000000
                                                     2       45.7358898     -106.21163020    0.00000000
                                                     2       13.2911467      -41.81073680    0.00000000
                                                     2        4.7059961       -4.20541030    0.00000000
                                      S - F
                                                     0      110.2991760        2.80637170    0.00000000
                                                     1       23.2014645       44.51620120    0.00000000
                                                     2        5.3530131       82.77852270    0.00000000
                                      P - F
                                                     0       63.2901397        4.94208760    0.00000000
                                                     1       23.3315302       25.86049760    0.00000000
                                                     2       24.6759423      132.47087420    0.00000000
                                                     2        4.6493040       57.31497940    0.00000000
                                      D - F
                                                     0      104.4839977        3.00545910    0.00000000
                                                     1       66.2307245       26.36378510    0.00000000
                                                     2       39.1283176      183.38491990    0.00000000
                                                     2       13.1164437       98.44530680    0.00000000
                                                     2        3.6280263       22.49013770    0.00000000
   28          6
                                   No pseudopotential on this center.
   29          6
                                   No pseudopotential on this center.
   30          8
                                   No pseudopotential on this center.
   31          8
                                   No pseudopotential on this center.
 ======================================================================================================
   578 basis functions,  1489 primitive gaussians,   618 cartesian basis functions
   221 alpha electrons      221 beta electrons
       nuclear repulsion energy     10407.1250813725 Hartrees.
 NAtoms=   31 NActive=   31 NUniq=   31 SFac= 1.00D+00 NAtFMM=   60 NAOKFM=F Big=F
 Integral buffers will be    131072 words long.
 Raffenetti 2 integral format.
 Two-electron integral symmetry is turned off.
 One-electron integrals computed using PRISM.
   1 Symmetry operations used in ECPInt.
 ECPInt:  NShTT=   15931 NPrTT=  127539 LenC2=   13499 LenP2D=   62601.
 LDataN:  DoStor=T MaxTD1= 5 Len=  102
 NBasis=   578 RedAO= T EigKep=  2.24D-04  NBF=   578
 NBsUse=   578 1.00D-06 EigRej= -1.00D+00 NBFU=   578
 Defaulting to unpruned grid for atomic number  42.
 Defaulting to unpruned grid for atomic number  42.
 Defaulting to unpruned grid for atomic number  42.
 Defaulting to unpruned grid for atomic number  42.
 Defaulting to unpruned grid for atomic number  42.
 Defaulting to unpruned grid for atomic number  42.
 Defaulting to unpruned grid for atomic number  42.
 Defaulting to unpruned grid for atomic number  42.
 Defaulting to unpruned grid for atomic number  42.
 ExpMin= 2.47D-02 ExpMax= 2.19D+04 ExpMxC= 3.30D+03 IAcc=3 IRadAn=         5 AccDes= 0.00D+00
 Harris functional with IExCor=  402 and IRadAn=       5 diagonalized for initial guess.
 HarFok:  IExCor=  402 AccDes= 0.00D+00 IRadAn=         5 IDoV= 1 UseB2=F ITyADJ=14
 ICtDFT=  3500011 ScaDFX=  1.000000  1.000000  1.000000  1.000000
 Defaulting to unpruned grid for atomic number  42.
 FoFCou: FMM=F IPFlag=           0 FMFlag=      100000 FMFlg1=           0
         NFxFlg=           0 DoJE=T BraDBF=F KetDBF=T FulRan=T
         wScrn=  0.000000 ICntrl=       500 IOpCl=  0 I1Cent=   200000004 NGrid=           0
         NMat0=    1 NMatS0=      1 NMatT0=    0 NMatD0=    1 NMtDS0=    0 NMtDT0=    0
 Symmetry not used in FoFCou.
 Requested convergence on RMS density matrix=1.00D-08 within 128 cycles.
 Requested convergence on MAX density matrix=1.00D-06.
 Requested convergence on             energy=1.00D-06.
 No special actions if energy rises.
 Defaulting to unpruned grid for atomic number  42.
 Defaulting to unpruned grid for atomic number  42.
 Defaulting to unpruned grid for atomic number  42.
 Defaulting to unpruned grid for atomic number  42.
 Defaulting to unpruned grid for atomic number  42.
 Defaulting to unpruned grid for atomic number  42.
 Defaulting to unpruned grid for atomic number  42.
 Defaulting to unpruned grid for atomic number  42.
 Defaulting to unpruned grid for atomic number  42.
 Defaulting to unpruned grid for atomic number  42.
 Defaulting to unpruned grid for atomic number  42.
 Defaulting to unpruned grid for atomic number  42.
 Defaulting to unpruned grid for atomic number  42.
 Defaulting to unpruned grid for atomic number  42.
 Defaulting to unpruned grid for atomic number  42.
 Defaulting to unpruned grid for atomic number  42.
[...]
 8006,0.00048505,0.00014434,0.00020305,0.00820278,0.00104467,-0.0050191
 7,-0.00007844,-0.00007289,0.00013047,-0.00068993,0.00005349,-0.0005963
 3,-0.00065234,-0.00064612,0.00074918,0.00830437,-0.00658721,0.00117425
 ,-0.00179650,-0.00077905,0.00039877,0.00089499,0.00033795,0.00032798,-
 0.00016632,0.00004310,-0.00022733,0.00066825,-0.00050175,-0.00017596,-
 0.00018099,0.00040382,-0.00023370,-0.00014349,0.00003623,-0.00000922,0
 .06569731,0.00604850,-0.24662802,-0.07399328,-0.00572859,0.25576463,-0
 .00092654,-0.00212293,-0.00238678,-0.00081702,0.00308971,-0.00093630,0
 .00052657,-0.00014219,0.00087518,0.00046068,-0.00090627,0.00182273,-0.
 00093805,0.00089048,0.00091369,0.00302640,-0.00089160,-0.00262771,0.00
 026691,-0.00022436,0.00025480,-0.00510708,-0.00228474,0.00268587,-0.01
 730900,-0.00932553,0.00913812,-0.00081351,-0.00380292,0.00032849,0.001
 55976,0.00288485,0.00119710,0.00625951,-0.00223266,-0.00192684,-0.0036
 9946,0.00288967,0.00158662,0.00021098,0.00005467,-0.00056331,-0.004553
 76,-0.00113627,-0.00296437,0.00133125,0.00001161,-0.00060375,-0.008118
 91,0.00161286,-0.00164851,0.00061510,0.00045346,-0.00040632,-0.0002569
 7,-0.00010777,-0.00016750,0.00011935,-0.00024643,0.00023054,-0.0005213
 4,-0.00010289,0.00154500,-0.00014149,0.00007338,-0.00003935,0.00103203
 ,-0.00002458,0.00011600,-0.06717540,-0.02264039,-0.04951675,0.00664926
 ,0.00330818,-0.00417760,0.13570805,-0.00403330,-0.00263091,-0.00098958
 ,0.00039447,0.00206789,0.00014663,0.00018225,0.00023265,0.00038842,0.0
 0035606,-0.00209202,0.00156126,-0.00061955,0.00021200,0.00038019,0.001
 34911,0.00133123,0.00117913,-0.00010938,0.00020373,-0.00052951,-0.0001
 3620,0.00064069,0.00104351,-0.01447872,-0.01920756,0.00351607,-0.00379
 105,-0.00052245,-0.00316483,0.00572848,-0.01055700,0.00167476,0.002025
 04,-0.00354937,0.00031263,0.00028485,-0.00068914,-0.00018137,0.0001535
 2,0.00025751,-0.00040828,-0.00032805,0.00225415,0.00086233,-0.00006847
 ,0.00012396,0.00021063,-0.00123881,0.00372201,0.00400930,0.00011182,-0
 .00018557,0.00005461,-0.00008402,-0.00003238,0.00000733,0.00007036,0.0
 0000152,0.00021701,0.00002250,0.00029444,0.00028443,-0.00001158,-0.000
 19677,0.00012212,0.00088453,-0.00003194,0.00018122,-0.01740011,-0.0207
 7324,-0.02263751,0.00001945,0.00031000,0.00046373,0.00864803,0.0666030
 5,0.00023760,0.00199327,-0.00013785,0.00282357,0.00360028,-0.00380457,
 0.00021122,0.00004377,0.00027977,0.00165041,0.00625351,-0.00350745,0.0
 0054734,0.00037608,-0.00026396,-0.00059947,0.00067455,-0.00044719,0.00
 014902,-0.00005498,0.00014428,0.00253906,0.00091400,-0.00124236,0.0048
 4755,-0.01035762,0.00031841,0.00013589,-0.00349032,0.00144378,-0.00095
 949,-0.00011021,-0.00124517,-0.00355446,0.00219418,0.00116876,-0.00107
 887,0.00109640,-0.00098800,0.00025326,-0.00006586,-0.00022751,0.001662
 74,0.00040200,0.00317868,0.00074497,0.00023051,-0.00001159,-0.00573904
 ,0.00467375,0.00313374,0.00029804,-0.00009341,-0.00078211,-0.00007591,
 -0.00002784,-0.00006496,0.00046209,-0.00001497,0.00037733,-0.00043970,
 0.00008945,0.00080035,-0.00000227,0.00003078,-0.00001082,0.00034091,-0
 .00000872,-0.00002358,-0.04689136,-0.01820558,-0.05920616,-0.00315787,
 -0.00114094,-0.00495628,0.04398570,0.01580714,0.07239428,-0.00008314,-
 0.00028691,0.00129512,-0.00025865,-0.00254393,0.00001945,-0.00057034,0
 .00043544,-0.00034230,-0.00006782,0.00153243,-0.00019462,0.00057149,-0
 .00336799,-0.00269114,0.00050146,0.00048152,0.00225379,-0.00006013,0.0
 0002932,-0.00026986,-0.00194979,0.00111318,-0.00134186,-0.00097896,-0.
 01382701,0.00356542,-0.00120538,0.00051361,0.00105581,-0.03991473,-0.0
 2306290,-0.00637584,0.00849275,0.03093742,-0.00272362,0.00182055,0.000
 17783,-0.00088535,-0.00144703,-0.00473582,0.00414715,-0.04766493,-0.01
 471225,-0.05501643,-0.00116579,-0.00015101,0.00021365,0.00116124,-0.00
 136169,0.00006473,-0.00009380,0.00001541,0.00029004,-0.00001164,-0.000
 00794,0.00007128,-0.00007550,0.00012573,-0.00007753,0.00198366,0.00227
 061,-0.00001219,-0.00001060,-0.00013739,0.00013836,-0.00069354,0.00014
 284,0.00026758,-0.01019231,0.00102928,0.00021741,0.00211816,-0.0009144
 7,-0.00154935,-0.03586676,0.02136951,0.00121751,0.26537612,0.00212626,
 -0.00246695,-0.00384788,-0.00168646,-0.00133935,-0.00145985,-0.0017171
 4,0.00102379,0.00061037,-0.00067116,-0.00066532,-0.00005189,-0.0008860
 4,0.00099412,0.00110689,0.00023134,-0.00016179,-0.00014828,0.00007046,
 -0.00029096,0.00036800,-0.00176505,0.00029964,-0.00149843,0.00311161,0
 .00199044,0.00007303,0.00089860,-0.00018415,-0.00055664,-0.02640257,-0
 .03692694,-0.00858873,0.01985720,0.00628760,0.01626945,-0.00177432,0.0
 0263768,0.00089122,-0.00233033,-0.00111652,0.00310911,-0.00523980,-0.0
 2417706,-0.00829557,0.00030396,0.00022810,-0.00003173,0.00041481,-0.00
 033376,0.00013679,0.00022104,-0.00034136,-0.00024403,-0.00009412,-0.00
 006943,0.00003859,0.00008674,0.00003979,0.00004338,0.00281560,0.001019
 59,-0.00020104,-0.00027506,0.00000228,-0.00001460,-0.00051032,-0.00022
 246,-0.00037168,-0.00298513,-0.00255230,0.00284035,0.00079919,0.000276
 11,-0.00170343,0.01387705,-0.01584152,-0.00784293,0.00222605,0.1965968
 7,-0.00273048,0.00045731,0.00390539,-0.00342018,0.00275001,-0.00218737
 ,0.00126999,-0.00104279,-0.00013629,-0.00031973,0.00075332,-0.00022234
 ,0.00005101,-0.00076009,0.00270946,0.00100066,0.00149740,0.00036487,0.
 00056611,0.00003680,-0.00016382,-0.00137161,-0.00044229,-0.00064380,0.
 00777388,-0.00020282,0.00029322,-0.00011831,0.00086939,0.00022719,-0.0
 0496998,-0.01290187,-0.00454862,0.01713026,0.02712277,-0.05473204,-0.0
 0138787,-0.00027469,0.00081119,-0.00148169,-0.00316497,0.00146288,-0.0
 7440119,-0.01962712,-0.12955096,0.00034547,-0.00039198,-0.00030572,-0.
 00058935,0.00020623,-0.00038981,-0.00055290,0.00021990,-0.00022156,0.0
 0056254,0.00024309,-0.00001717,0.00017353,-0.00021378,0.00029784,0.001
 25235,-0.00193877,0.00379596,-0.00050182,0.00103919,-0.00040231,-0.000
 15499,0.00006207,-0.00016864,0.00068473,0.00293652,0.00106990,0.000933
 54,0.00052849,0.00088103,-0.00694854,-0.00182561,-0.01230918,0.0079729
 2,0.01003647,0.27100018,-0.00002500,0.00105602,0.00093125,0.00008532,0
 .00036363,0.00079167,0.00027092,-0.00030036,-0.00015223,0.00033600,-0.
 00063060,-0.00012083,0.00121175,-0.00043211,0.00047151,0.00000378,0.00
 016478,0.00007062,-0.00001920,-0.00000984,0.00003376,0.00050881,-0.000
 26268,0.00038067,0.00135664,0.00287731,0.00045586,-0.00003061,-0.00003
 553,-0.00049416,0.00519035,-0.00770461,0.00428938,-0.00629884,-0.01009
 579,0.00377780,-0.00072494,-0.00014510,0.00008281,0.00023059,0.0013016
 8,-0.00135048,0.00235154,0.00535956,-0.00368989,0.00045616,0.00001098,
 -0.00008493,0.00049966,-0.00017919,-0.00007220,-0.00054734,-0.00040948
 ,-0.00007507,0.00057093,0.00020985,0.00007674,0.00012819,-0.00004477,-
 0.00001597,-0.00097802,-0.00132497,0.00016306,-0.00011230,0.00065045,-
 0.00031300,-0.00015216,0.00007562,-0.00004499,-0.00084586,-0.00052561,
 -0.00161855,-0.00042622,-0.00001908,0.00131797,-0.00708552,-0.00442537
 ,0.00222961,-0.06738084,-0.00439925,0.00671242,0.32279494,-0.00061277,
 0.00148049,0.00159196,-0.00091856,0.00027374,0.00084273,0.00077463,-0.
 00032826,-0.00016549,-0.00037221,-0.00033676,0.00020360,0.00200083,0.0
 0042971,0.00090319,0.00041604,-0.00045245,-0.00113619,0.00001210,-0.00
 002298,0.00015235,0.00010282,0.00008121,-0.00055606,0.00369327,-0.0019
 5458,0.00404751,-0.00049681,0.00005184,-0.00023312,-0.00808141,-0.0093
 1038,0.00778999,-0.00903217,-0.00408271,-0.00353034,-0.00214593,0.0005
 7609,0.00074274,0.00011053,-0.00050966,-0.00132834,0.00362404,-0.00022
 008,0.00915845,0.00079636,-0.00009143,-0.00025638,-0.00012403,-0.00023
 345,-0.00005967,-0.00085634,-0.00050530,-0.00032467,0.00090526,0.00033
 532,0.00009310,0.00014896,-0.00000117,0.00005460,-0.00100452,-0.001691
 16,0.00287018,-0.00045740,0.00120841,-0.00063213,0.00004993,-0.0000217
 8,-0.00017381,0.00260263,0.00112281,-0.00333988,-0.00123168,0.00000275
 ,0.00315554,-0.00053160,0.00087447,-0.00043425,-0.00563152,-0.04179961
 ,-0.00857840,0.41965176,0.87320238,-0.00067490,-0.00134964,-0.00153565
 ,0.00051540,-0.00057227,-0.00048152,-0.00045431,0.00015103,0.00017740,
 0.00026628,-0.00006836,0.00063312,-0.00069702,0.00036513,0.00100736,0.
 00042738,0.00018020,-0.00021235,-0.00015568,-0.00002111,-0.00004231,-0
 .00028175,-0.00017343,0.00016649,-0.00497775,0.00035962,-0.00027212,-0
 .00022518,-0.00008489,0.00007185,0.00782046,0.01303879,0.00925010,-0.0
 0295598,-0.00731062,0.00612903,0.00057413,0.00008751,-0.00067933,0.000
 04982,0.00146565,-0.00164548,0.00319744,0.01126180,-0.01522669,-0.0001
 1581,-0.00002301,-0.00008598,0.00018550,0.00006637,-0.00005438,0.00032
 188,0.00016028,0.00042528,-0.00033605,-0.00011138,-0.00004207,-0.00017
 955,0.00005415,-0.00006764,-0.00051069,0.00022746,-0.00106880,0.000279
 35,-0.00035940,0.00025720,0.00034984,0.00000137,0.00013472,-0.00028658
 ,0.00065509,0.00175117,0.00051921,-0.00005169,-0.00131261,0.00011903,-
 0.00057705,0.00125177,0.01089591,-0.00627939,-0.05015710,-0.14770593,-
 0.26113674,0.16370942,-0.00149937,-0.00007824,-0.00023703,-0.00077116,
 0.00000391,-0.00026828,0.00018258,-0.00009744,0.00016175,-0.00001061,0
 .00002604,0.00002417,-0.00126311,0.00158086,0.00101321,0.00096180,0.00
 027342,-0.00032917,-0.00003163,-0.00008851,0.00019060,-0.00073639,0.00
 035628,-0.00032289,-0.00032696,-0.00015451,0.00006355,0.00080582,-0.00
 051181,0.00006698,-0.00687352,0.00237277,0.00338478,0.00676670,-0.0040
 6719,-0.00034420,-0.00073112,0.00141862,-0.00060248,-0.00042753,-0.000
 01418,-0.00059451,0.00345994,-0.00193557,0.00120007,0.00040922,-0.0000
 3305,-0.00011868,0.00009950,-0.00009708,0.00036679,-0.00083514,-0.0006
 4881,-0.00003077,0.00075285,0.00029024,0.00013130,0.00001706,-0.000007
 57,0.00003551,0.00137783,-0.00107238,0.00083517,-0.00051734,0.00104188
 ,-0.00054428,-0.00013934,-0.00001838,-0.00031125,0.00050417,0.00002769
 ,-0.00238319,-0.00103179,-0.00002932,0.00171401,-0.00399092,0.00523588
 ,0.00128265,-0.07110329,0.00254666,0.02192412,0.01392072,0.01473779,-0
 .00913851,0.68729720,0.00032869,0.00000108,-0.00060579,0.00193578,-0.0
 0008512,-0.00034657,-0.00018753,0.00004924,-0.00010970,0.00049428,0.00
 006731,0.00018789,-0.00026192,-0.00193001,-0.00184079,0.00016146,-0.00
 007969,0.00001404,-0.00001527,-0.00001703,-0.00005435,0.00036409,0.000
 22521,0.00070580,-0.00530322,-0.00096181,0.00026322,-0.00007542,-0.000
 06668,0.00043078,-0.00344674,-0.00170948,0.00038255,-0.00276341,0.0007
 9062,0.00312282,0.00135189,-0.00041289,-0.00045331,0.00080155,0.000702
 57,0.00006635,-0.00619778,0.00630727,-0.00655905,-0.00041645,-0.000030
 47,0.00003649,0.00025105,-0.00005735,0.00014912,0.00056958,0.00040268,
 0.00022183,-0.00056061,-0.00019882,-0.00006084,-0.00013306,0.00006194,
 -0.00006992,-0.00108598,0.00138430,-0.00150425,0.00046270,-0.00098870,
 0.00049105,0.00042277,-0.00009781,0.00018253,0.00062867,0.00112887,0.0
 0016590,0.00030438,-0.00032892,-0.00092265,0.00935339,-0.00443968,0.00
 343463,0.00790669,-0.03197407,0.00172889,0.00827573,-0.02535864,-0.004
 21245,-0.41354187,0.36059704,0.00290008,0.00001264,-0.00009428,0.00275
 812,-0.00164291,0.00016438,-0.00066432,0.00054074,-0.00025466,-0.00002
 218,-0.00059033,-0.00015847,0.00176782,-0.00141019,-0.00128159,-0.0013
 2046,-0.00063010,0.00072447,-0.00022753,0.00010069,-0.00006231,0.00111
 328,-0.00009429,0.00013851,-0.00161865,0.00124365,-0.00032594,-0.00009
 850,-0.00005276,-0.00011252,0.00151586,-0.00397469,-0.00244444,-0.0106
 8922,0.00217130,0.00337354,0.00218300,-0.00123694,-0.00062319,0.000349
 14,0.00066483,-0.00009351,0.00603997,0.00077597,-0.00518321,-0.0007378
 8,0.00015963,0.00038432,0.00050855,0.00003622,0.00034422,0.00033728,0.
 00018043,0.00006752,-0.00045540,-0.00018786,-0.00001010,-0.00003074,0.
 00006878,-0.00014111,-0.00151267,0.00096646,-0.00112794,0.00048310,-0.
 00075351,0.00041626,-0.00020175,0.00012358,0.00012190,-0.00174759,-0.0
 0203868,0.00049715,0.00079919,-0.00039496,-0.00159236,0.01091075,-0.00
 233112,0.00515629,0.01501805,0.00623447,-0.03822624,-0.00869770,-0.009
 66139,0.00920988,-0.38980862,0.25471676,0.28745488,0.00023237,-0.00049
 909,-0.00040955,0.00015377,-0.00021607,-0.00028629,-0.00020221,0.00013
 766,0.00005947,-0.00003555,0.00022813,0.00008549,-0.00054153,0.0000738
 9,-0.00015431,-0.00010894,0.00003875,0.00013399,-0.00000602,0.00001806
 ,-0.00005575,-0.00013894,0.00016898,0.00005043,-0.00098918,-0.00076224
 ,-0.00070904,0.00002073,-0.00001361,0.00015084,-0.00305261,0.00144129,
 -0.00054523,0.00134744,0.00218802,-0.00147985,0.00069790,-0.00017527,-
 0.00012093,0.00001247,-0.00030078,0.00051453,-0.00013313,0.00034292,-0
 .00008063,-0.00029966,0.00002045,0.00006721,-0.00012888,0.00009199,-0.
 00001742,0.00034976,0.00024906,0.00012624,-0.00037598,-0.00013915,-0.0
 0004930,-0.00009532,0.00001941,-0.00003165,0.00032127,0.00060677,-0.00
 054484,0.00014542,-0.00043575,0.00023919,0.00001636,0.00001415,0.00007
 488,-0.00010996,0.00001688,0.00119242,0.00031850,0.00002047,-0.0009889
 2,0.00142577,0.00167616,-0.00067469,0.01050028,-0.03069836,0.00883577,
 -0.25893025,-0.40828921,0.13861222,-0.00572118,-0.00013666,0.00368223,
 0.25209733,0.00062856,-0.00095628,-0.00095798,0.00051934,-0.00033780,-
 0.00052027,-0.00045529,0.00022656,0.00010862,0.00014075,0.00013969,0.0
 0012713,-0.00082466,-0.00009625,0.00000126,-0.00039492,0.00012434,0.00
 045085,-0.00004029,0.00002707,-0.00009280,-0.00000540,0.00001365,0.000
 24798,-0.00205095,0.00073434,-0.00196828,0.00010776,0.00000131,0.00014
 383,0.00011981,0.00018811,-0.00054089,0.00163301,0.00058567,-0.0005163
 5,0.00134215,-0.00048746,-0.00037515,0.00006963,0.00012384,0.00061474,
 0.00076437,0.00203140,-0.00333642,-0.00051799,0.00006986,0.00015019,-0
 .00005765,0.00017117,-0.00002273,0.00060151,0.00039215,0.00023003,-0.0
 0064657,-0.00024385,-0.00007432,-0.00013160,0.00001366,-0.00006896,0.0
 0033947,0.00090442,-0.00136172,0.00030251,-0.00075830,0.00043337,0.000
 00085,0.00004594,0.00014191,-0.00089725,-0.00042570,0.00237439,0.00073
 783,0.00003448,-0.00200301,0.00052644,0.00078273,-0.00032133,-0.024088
 72,-0.04254650,0.02137066,-0.40974846,-0.80436345,0.25504071,-0.009890
 46,0.00980174,0.00630174,0.43579125,0.83914355,-0.00000407,0.00059786,
 0.00062153,-0.00020732,0.00024537,0.00025402,0.00022728,-0.00008755,-0
 .00007064,-0.00015035,0.00000636,-0.00024405,0.00036791,-0.00002501,-0
 .00036314,-0.00007393,-0.00013266,-0.00005371,0.00005505,0.00000136,0.
 00004522,0.00010324,0.00003680,-0.00007954,0.00177309,-0.00030335,0.00
 048913,0.00007872,0.00002213,-0.00002873,-0.00102544,-0.00274199,-0.00
 358616,0.00068495,0.00205318,-0.00096971,-0.00047964,0.00008678,0.0002
 7301,-0.00002811,-0.00036699,0.00027443,-0.00082658,-0.00260801,0.0032
 9145,0.00014612,0.00000045,-0.00000421,-0.00002710,-0.00005635,0.00001
 460,-0.00021065,-0.00014608,-0.00017992,0.00023014,0.00008239,0.000028
 82,0.00008524,-0.00001388,0.00003914,0.00003621,-0.00022247,0.00058293
 ,-0.00013214,0.00024861,-0.00016096,-0.00007933,-0.00001649,-0.0000745
 0,0.00022872,-0.00004572,-0.00095375,-0.00027848,0.00000208,0.00078139
 ,-0.00019990,-0.00032910,-0.00019125,0.00528856,0.02138214,0.01156538,
 0.13884069,0.25372197,-0.11770920,0.00327238,-0.00068509,-0.00300822,-
 0.14570798,-0.27180492,0.10797802,0.00092932,-0.00034280,-0.00026940,0
 .00086883,-0.00015086,-0.00024989,-0.00024983,0.00017397,0.00002537,-0
 .00003337,-0.00005593,0.00005627,0.00046357,-0.00073528,-0.00058853,-0
 .00046318,-0.00022705,0.00014563,0.00001687,0.00002422,-0.00008648,0.0
 0038994,-0.00013902,0.00017634,-0.00062125,0.00027409,-0.00034468,-0.0
 0017293,0.00008245,0.00003970,0.00210563,-0.00167989,-0.00214587,-0.00
 337164,0.00175557,0.00199051,0.00039380,-0.00067993,0.00028714,0.00027
 430,0.00020502,0.00017882,0.00046213,0.00081744,-0.00168928,-0.0002169
 2,0.00008060,0.00005674,-0.00013499,0.00006519,-0.00014584,0.00063218,
 0.00037494,0.00005505,-0.00056293,-0.00021532,-0.00009132,-0.00004140,
 0.00002436,-0.00002634,-0.00081030,0.00090200,-0.00075491,0.00039220,-
 0.00080893,0.00042563,0.00012933,-0.00000827,0.00015314,0.00003433,0.0
 0055399,0.00241202,0.00079626,0.00001918,-0.00138849,-0.00186990,-0.00
 178739,-0.00244601,-0.01173076,0.03184857,0.02175934,-0.00635919,-0.00
 984076,0.00456182,-0.62054496,0.40051322,0.36746677,0.00322995,0.00612
 494,-0.00198727,0.63606492,-0.00038630,0.00022201,0.00045011,-0.001052
 94,0.00011640,0.00027118,0.00015340,-0.00012794,-0.00000557,-0.0000503
 6,-0.00000620,-0.00011007,-0.00011937,0.00073862,0.00067550,0.00014132
 ,0.00019928,-0.00001277,0.00001070,-0.00000143,0.00003763,-0.00025185,
 -0.00003495,-0.00018991,0.00193219,0.00038881,-0.00007380,0.00001734,0
 .00003223,-0.00018540,0.00002996,0.00091636,0.00060873,0.00253284,-0.0
 0088043,-0.00171525,-0.00055489,0.00036150,0.00005941,-0.00031657,-0.0
 0028475,0.00004770,0.00035534,-0.00224825,0.00251604,0.00021564,-0.000
 03188,-0.00003576,0.00002910,0.00000126,-0.00003419,-0.00041175,-0.000
 25677,-0.00007529,0.00038958,0.00014453,0.00005151,0.00005534,-0.00003
 252,0.00003113,0.00069180,-0.00078203,0.00055885,-0.00029068,0.0006089
 1,-0.00031204,-0.00021223,0.00004037,-0.00008720,-0.00050091,-0.000818
 24,-0.00107594,-0.00040206,0.00009091,0.00079927,-0.00095065,0.0008375
 2,0.00035466,0.02452268,-0.00838596,-0.02049332,0.00069544,0.01164461,
 -0.00078371,0.40237433,-0.31278272,-0.24929821,-0.00147813,-0.00534010
 ,0.00109818,-0.42716832,0.31567083,-0.00114125,0.00018420,0.00032921,-
 0.00125686,0.00052636,0.00011762,0.00032498,-0.00025637,0.00002480,0.0
 0000694,0.00018836,0.00000905,-0.00058020,0.00066151,0.00067535,0.0004
 4936,0.00028636,-0.00026361,0.00005847,-0.00002240,0.00002826,-0.00041
 123,0.00000862,-0.00009202,0.00099480,-0.00043452,0.00027715,-0.000045
 82,0.00007731,0.00001868,-0.00088366,0.00202241,0.00176476,0.00437445,
 -0.00128035,-0.00219997,-0.00075588,0.00045345,0.00015145,-0.00019905,
 -0.00026855,0.00001361,-0.00193690,-0.00120626,0.00168903,0.00026884,-
 0.00009157,-0.00011922,-0.00008537,-0.00002508,-0.00009485,-0.00033805
 ,-0.00015864,-0.00006721,0.00034757,0.00013615,0.00003470,0.00004205,-
 0.00003921,0.00005512,0.00069651,-0.00067458,0.00062202,-0.00028569,0.
 00053109,-0.00027885,-0.00000973,-0.00002113,-0.00007836,0.00037003,0.
 00025973,-0.00133000,-0.00052798,0.00009651,0.00105944,-0.00059609,0.0
 0055154,-0.00022744,0.01748736,-0.02200418,-0.00400151,0.00381012,0.00
 621894,-0.00358156,0.36936683,-0.24887589,-0.25331322,-0.00196855,-0.0
 0377230,0.00143864,-0.38757598,0.26692848,0.25733893\\-0.00002576,0.00
 001571,-0.00000336,0.00000469,-0.00000068,-0.00000553,0.00001820,-0.00
 000161,0.00000917,0.00000408,-0.00000991,0.00000194,0.00000023,-0.0000
 1890,0.00000562,-0.00001535,0.00001785,-0.00004542,0.00000928,0.000000
 76,0.00000037,-0.00000034,0.00000847,0.00000181,-0.00001916,-0.0000184
 2,0.00003169,0.00000935,0.00000261,-0.00000534,0.00001397,0.00001484,0
 .00000638,-0.00000727,-0.00000850,-0.00000466,-0.00001564,-0.00000291,
 -0.00000381,0.00001436,-0.00000359,-0.00000298,-0.00000305,-0.00001121
 ,-0.00000081,0.00000068,0.00000128,0.00000740,0.00000295,0.00000124,0.
 00000805,-0.00000274,-0.00001399,0.00001001,-0.00000195,0.00000668,-0.
 00000600,0.00001595,-0.00001235,0.00000574,-0.00000347,0.00001340,0.00
 001565,0.00000752,-0.00000264,-0.00000809,0.00000768,0.00000538,0.0000
 0185,0.00000866,0.00001570,-0.00001121,-0.00000982,-0.00000628,-0.0000
 0209,0.00000205,-0.00001488,-0.00001272,-0.00001190,0.00003108,0.00000
 283,0.00000582,-0.00000224,-0.00000009,-0.00000423,-0.00000727,0.00000
 214,0.00000046,0.00000033,0.00000189,-0.00000524,0.00000007,-0.0000004
 1\\\@
 The archive entry for this job was punched.


 THOSE WITH THE GOLD MAKE THE RULES.

             -- PETER'S GOLDEN RULE
 Job cpu time:       0 days  9 hours 43 minutes 52.6 seconds.
 Elapsed time:       0 days  0 hours 12 minutes 45.2 seconds.
 File lengths (MBytes):  RWF=   1649 Int=      0 D2E=      0 Chk=     31 Scr=      2
 Normal termination of Gaussian 16 at Sat Dec 10 14:29:31 2022.
