 Entering Gaussian System, Link 0=g16
 Initial command:
 /home/chesagar/softwares/G16_AVX2//g16/l1.exe "/home/chesagar/scratch/Gau-128777.inp" -scrdir="/home/chesagar/scratch/"
 Entering Link 1 = /home/chesagar/softwares/G16_AVX2//g16/l1.exe PID=    128778.
  
 Copyright (c) 1988-2019, Gaussian, Inc.  All Rights Reserved.
  
 This is part of the Gaussian(R) 16 program.  It is based on
 the Gaussian(R) 09 system (copyright 2009, Gaussian, Inc.),
 the Gaussian(R) 03 system (copyright 2003, Gaussian, Inc.),
 the Gaussian(R) 98 system (copyright 1998, Gaussian, Inc.),
 the Gaussian(R) 94 system (copyright 1995, Gaussian, Inc.),
 the Gaussian 92(TM) system (copyright 1992, Gaussian, Inc.),
 the Gaussian 90(TM) system (copyright 1990, Gaussian, Inc.),
 the Gaussian 88(TM) system (copyright 1988, Gaussian, Inc.),
 the Gaussian 86(TM) system (copyright 1986, Carnegie Mellon
 University), and the Gaussian 82(TM) system (copyright 1983,
 Carnegie Mellon University). Gaussian is a federally registered
 trademark of Gaussian, Inc.
  
 This software contains proprietary and confidential information,
 including trade secrets, belonging to Gaussian, Inc.
  
 This software is provided under written license and may be
 used, copied, transmitted, or stored only in accord with that
 written license.
  
 The following legend is applicable only to US Government
 contracts under FAR:
  
                    RESTRICTED RIGHTS LEGEND
  
 Use, reproduction and disclosure by the US Government is
 subject to restrictions as set forth in subparagraphs (a)
 and (c) of the Commercial Computer Software - Restricted
 Rights clause in FAR 52.227-19.
  
 Gaussian, Inc.
 340 Quinnipiac St., Bldg. 40, Wallingford CT 06492
  
  
 ---------------------------------------------------------------
 Warning -- This program may not be used in any manner that
 competes with the business of Gaussian, Inc. or will provide
 assistance to any competitor of Gaussian, Inc.  The licensee
 of this program is prohibited from giving any competitor of
 Gaussian, Inc. access to this program.  By using this program,
 the user acknowledges that Gaussian, Inc. is engaged in the
 business of creating and licensing software in the field of
 computational chemistry and represents and warrants to the
 licensee that it is not a competitor of Gaussian, Inc. and that
 it will not use this program in any manner prohibited above.
 ---------------------------------------------------------------
  

 Cite this work as:
 Gaussian 16, Revision C.01,
 M. J. Frisch, G. W. Trucks, H. B. Schlegel, G. E. Scuseria, 
 M. A. Robb, J. R. Cheeseman, G. Scalmani, V. Barone, 
 G. A. Petersson, H. Nakatsuji, X. Li, M. Caricato, A. V. Marenich, 
 J. Bloino, B. G. Janesko, R. Gomperts, B. Mennucci, H. P. Hratchian, 
 J. V. Ortiz, A. F. Izmaylov, J. L. Sonnenberg, D. Williams-Young, 
 F. Ding, F. Lipparini, F. Egidi, J. Goings, B. Peng, A. Petrone, 
 T. Henderson, D. Ranasinghe, V. G. Zakrzewski, J. Gao, N. Rega, 
 G. Zheng, W. Liang, M. Hada, M. Ehara, K. Toyota, R. Fukuda, 
 J. Hasegawa, M. Ishida, T. Nakajima, Y. Honda, O. Kitao, H. Nakai, 
 T. Vreven, K. Throssell, J. A. Montgomery, Jr., J. E. Peralta, 
 F. Ogliaro, M. J. Bearpark, J. J. Heyd, E. N. Brothers, K. N. Kudin, 
 V. N. Staroverov, T. A. Keith, R. Kobayashi, J. Normand, 
 K. Raghavachari, A. P. Rendell, J. C. Burant, S. S. Iyengar, 
 J. Tomasi, M. Cossi, J. M. Millam, M. Klene, C. Adamo, R. Cammi, 
 J. W. Ochterski, R. L. Martin, K. Morokuma, O. Farkas, 
 J. B. Foresman, and D. J. Fox, Gaussian, Inc., Wallingford CT, 2019.
 
 ******************************************
 Gaussian 16:  ES64L-G16RevC.01  3-Jul-2019
                10-Dec-2022 
 ******************************************
 %nprocshared=46
 Will use up to   46 processors via shared memory.
 %mem=100GB
 ---------------------------------------
 # opt freq b3lyp/gen nosymm pseudo=read
 ---------------------------------------
 1/18=20,19=15,26=3,38=1/1,3;
 2/9=110,12=2,15=1,17=6,18=5,40=1/2;
 3/5=7,11=2,16=1,17=8,25=1,30=1,71=1,74=-5/1,2,3;
 4//1;
 5/5=2,38=5/2;
 6/7=2,8=2,9=2,10=2,28=1/1;
 7/30=1/1,2,3,16;
 1/18=20,19=15,26=3/3(2);
 2/9=110,15=1/2;
 99//99;
 2/9=110,15=1/2;
 3/5=7,6=1,11=2,16=1,17=8,25=1,30=1,71=1,74=-5,82=7/1,2,3;
 4/5=5,16=3,69=1/1;
 5/5=2,38=5/2;
 7/30=1/1,2,3,16;
 1/18=20,19=15,26=3/3(-5);
 2/9=110,15=1/2;
 6/7=2,8=2,9=2,10=2,19=2,28=1/1;
 99/9=1/99;
 -------------------
 Title Card Required
 -------------------
 Symbolic Z-matrix:
 Charge =  0 Multiplicity = 1
 42                    0.39617   1.94032   12.09638 
 16                    1.37225   3.99017   11.644 
 16                   -1.56544   2.54414   13.31685 
 16                   -0.55824   1.14383   10.0724 
 16                    2.18988   0.32172   11.44002 
 42                   -2.15774   2.67115   11.11427 
 16                   -3.32343   1.88583   8.85774 
 16                   -1.63081   4.88042   10.61746 
 42                    0.02125   3.41913   9.47827 
 16                   -0.6909    2.85      7.17632 
 16                    2.19276   2.35889   8.79166 
 42                    3.17916   2.50933   11.21386 
 42                   -2.34555   4.1251    8.48643 
 16                    4.28392   2.79066   13.23825 
 16                    5.05998   3.3411    10.10544 
 16                   -4.60297   5.22802   8.98981 
 16                   -2.00823   6.26457   7.38184 
 42                   -4.92959   3.203     9.84784 
 16                   -6.90117   2.51602   9.50128 
 16                   -4.4108    3.19673   12.03669 
 42                    2.91703   0.94714   13.56108 
 16                    4.0499   -0.61641   14.44852 
 16                    1.08104   1.60836   14.59719 
 42                   -0.162     5.07507   6.88603 
 16                    0.52746   5.47306   4.91857 
 16                    1.26593   5.55988   8.6123 
 42                    3.57008   4.28965   8.43688 
 6                     4.57919   3.05369   7.29315 
 8                     5.17775   2.34376   6.60846 
 

 GradGradGradGradGradGradGradGradGradGradGradGradGradGradGradGradGradGrad
 Berny optimization.
 Initialization pass.
                           ----------------------------
                           !    Initial Parameters    !
                           ! (Angstroms and Degrees)  !
 --------------------------                            --------------------------
 ! Name  Definition              Value          Derivative Info.                !
 --------------------------------------------------------------------------------
 ! R1    R(1,2)                  2.315          estimate D2E/DX2                !
 ! R2    R(1,3)                  2.3879         estimate D2E/DX2                !
 ! R3    R(1,4)                  2.3752         estimate D2E/DX2                !
 ! R4    R(1,5)                  2.5036         estimate D2E/DX2                !
 ! R5    R(1,6)                  2.8321         estimate D2E/DX2                !
 ! R6    R(1,9)                  3.0302         estimate D2E/DX2                !
 ! R7    R(1,12)                 2.9745         estimate D2E/DX2                !
 ! R8    R(1,21)                 3.08           estimate D2E/DX2                !
 ! R9    R(1,23)                 2.6141         estimate D2E/DX2                !
 ! R10   R(2,9)                  2.6157         estimate D2E/DX2                !
 ! R11   R(2,12)                 2.3755         estimate D2E/DX2                !
 ! R12   R(3,6)                  2.2844         estimate D2E/DX2                !
 ! R13   R(4,6)                  2.4447         estimate D2E/DX2                !
 ! R14   R(4,9)                  2.4219         estimate D2E/DX2                !
 ! R15   R(5,12)                 2.4115         estimate D2E/DX2                !
 ! R16   R(5,21)                 2.3278         estimate D2E/DX2                !
 ! R17   R(6,7)                  2.6585         estimate D2E/DX2                !
 ! R18   R(6,8)                  2.3249         estimate D2E/DX2                !
 ! R19   R(6,9)                  2.8256         estimate D2E/DX2                !
 ! R20   R(6,13)                 3.0091         estimate D2E/DX2                !
 ! R21   R(6,18)                 3.0935         estimate D2E/DX2                !
 ! R22   R(6,20)                 2.4907         estimate D2E/DX2                !
 ! R23   R(7,13)                 2.4715         estimate D2E/DX2                !
 ! R24   R(7,18)                 2.3011         estimate D2E/DX2                !
 ! R25   R(8,9)                  2.4824         estimate D2E/DX2                !
 ! R26   R(8,13)                 2.3712         estimate D2E/DX2                !
 ! R27   R(9,10)                 2.4759         estimate D2E/DX2                !
 ! R28   R(9,11)                 2.5122         estimate D2E/DX2                !
 ! R29   R(9,13)                 2.6616         estimate D2E/DX2                !
 ! R30   R(9,24)                 3.0815         estimate D2E/DX2                !
 ! R31   R(9,26)                 2.6234         estimate D2E/DX2                !
 ! R32   R(10,13)                2.4658         estimate D2E/DX2                !
 ! R33   R(10,24)                2.3054         estimate D2E/DX2                !
 ! R34   R(11,12)                2.6197         estimate D2E/DX2                !
 ! R35   R(11,27)                2.3981         estimate D2E/DX2                !
 ! R36   R(12,14)                2.3233         estimate D2E/DX2                !
 ! R37   R(12,15)                2.3362         estimate D2E/DX2                !
 ! R38   R(12,21)                2.8317         estimate D2E/DX2                !
 ! R39   R(13,16)                2.5624         estimate D2E/DX2                !
 ! R40   R(13,17)                2.4313         estimate D2E/DX2                !
 ! R41   R(13,18)                3.0628         estimate D2E/DX2                !
 ! R42   R(13,24)                2.8691         estimate D2E/DX2                !
 ! R43   R(14,21)                2.3176         estimate D2E/DX2                !
 ! R44   R(15,27)                2.4297         estimate D2E/DX2                !
 ! R45   R(16,18)                2.2234         estimate D2E/DX2                !
 ! R46   R(17,24)                2.2515         estimate D2E/DX2                !
 ! R47   R(18,19)                2.1164         estimate D2E/DX2                !
 ! R48   R(18,20)                2.2495         estimate D2E/DX2                !
 ! R49   R(21,22)                2.125          estimate D2E/DX2                !
 ! R50   R(21,23)                2.2094         estimate D2E/DX2                !
 ! R51   R(24,25)                2.1224         estimate D2E/DX2                !
 ! R52   R(24,26)                2.2922         estimate D2E/DX2                !
 ! R53   R(26,27)                2.6369         estimate D2E/DX2                !
 ! R54   R(27,28)                1.9632         estimate D2E/DX2                !
 ! R55   R(28,29)                1.1537         estimate D2E/DX2                !
 ! A1    A(2,1,3)              102.8464         estimate D2E/DX2                !
 ! A2    A(2,1,4)              107.4471         estimate D2E/DX2                !
 ! A3    A(2,1,5)              102.659          estimate D2E/DX2                !
 ! A4    A(2,1,6)               94.8159         estimate D2E/DX2                !
 ! A5    A(2,1,21)              91.9121         estimate D2E/DX2                !
 ! A6    A(2,1,23)             100.8901         estimate D2E/DX2                !
 ! A7    A(3,1,4)              100.9662         estimate D2E/DX2                !
 ! A8    A(3,1,5)              152.3774         estimate D2E/DX2                !
 ! A9    A(3,1,9)              102.507          estimate D2E/DX2                !
 ! A10   A(3,1,12)             150.6756         estimate D2E/DX2                !
 ! A11   A(3,1,21)             120.7191         estimate D2E/DX2                !
 ! A12   A(3,1,23)              76.0174         estimate D2E/DX2                !
 ! A13   A(4,1,5)               81.2393         estimate D2E/DX2                !
 ! A14   A(4,1,12)             100.7938         estimate D2E/DX2                !
 ! A15   A(4,1,21)             128.7528         estimate D2E/DX2                !
 ! A16   A(4,1,23)             151.3888         estimate D2E/DX2                !
 ! A17   A(5,1,6)              136.2179         estimate D2E/DX2                !
 ! A18   A(5,1,9)              100.2325         estimate D2E/DX2                !
 ! A19   A(5,1,23)              88.9114         estimate D2E/DX2                !
 ! A20   A(6,1,12)             133.7448         estimate D2E/DX2                !
 ! A21   A(6,1,23)             126.9255         estimate D2E/DX2                !
 ! A22   A(9,1,12)              76.4707         estimate D2E/DX2                !
 ! A23   A(9,1,21)             132.0298         estimate D2E/DX2                !
 ! A24   A(9,1,23)             157.0689         estimate D2E/DX2                !
 ! A25   A(12,1,23)             93.6123         estimate D2E/DX2                !
 ! A26   A(9,2,12)              96.1343         estimate D2E/DX2                !
 ! A27   A(1,6,7)              127.8443         estimate D2E/DX2                !
 ! A28   A(1,6,8)               96.5998         estimate D2E/DX2                !
 ! A29   A(1,6,13)             118.934          estimate D2E/DX2                !
 ! A30   A(1,6,20)             137.8814         estimate D2E/DX2                !
 ! A31   A(3,6,4)              101.9197         estimate D2E/DX2                !
 ! A32   A(3,6,7)              156.303          estimate D2E/DX2                !
 ! A33   A(3,6,8)              101.5432         estimate D2E/DX2                !
 ! A34   A(3,6,9)              111.9031         estimate D2E/DX2                !
 ! A35   A(3,6,13)             152.261          estimate D2E/DX2                !
 ! A36   A(3,6,18)             129.5392         estimate D2E/DX2                !
 ! A37   A(3,6,20)              83.6379         estimate D2E/DX2                !
 ! A38   A(4,6,7)               74.9652         estimate D2E/DX2                !
 ! A39   A(4,6,8)              110.7512         estimate D2E/DX2                !
 ! A40   A(4,6,13)              88.3111         estimate D2E/DX2                !
 ! A41   A(4,6,18)             121.2771         estimate D2E/DX2                !
 ! A42   A(4,6,20)             151.8268         estimate D2E/DX2                !
 ! A43   A(7,6,8)              101.4613         estimate D2E/DX2                !
 ! A44   A(7,6,9)               85.6921         estimate D2E/DX2                !
 ! A45   A(7,6,20)              88.8562         estimate D2E/DX2                !
 ! A46   A(8,6,18)              87.2618         estimate D2E/DX2                !
 ! A47   A(8,6,20)              94.7977         estimate D2E/DX2                !
 ! A48   A(9,6,18)             114.1065         estimate D2E/DX2                !
 ! A49   A(9,6,20)             148.8888         estimate D2E/DX2                !
 ! A50   A(13,6,20)             99.4972         estimate D2E/DX2                !
 ! A51   A(1,9,8)               88.4597         estimate D2E/DX2                !
 ! A52   A(1,9,10)             136.6122         estimate D2E/DX2                !
 ! A53   A(1,9,11)              85.597          estimate D2E/DX2                !
 ! A54   A(1,9,13)             124.1564         estimate D2E/DX2                !
 ! A55   A(1,9,26)             128.6644         estimate D2E/DX2                !
 ! A56   A(2,9,4)               97.2135         estimate D2E/DX2                !
 ! A57   A(2,9,6)               88.665          estimate D2E/DX2                !
 ! A58   A(2,9,8)               80.5176         estimate D2E/DX2                !
 ! A59   A(2,9,11)              82.6443         estimate D2E/DX2                !
 ! A60   A(2,9,13)             135.2307         estimate D2E/DX2                !
 ! A61   A(2,9,24)             127.5841         estimate D2E/DX2                !
 ! A62   A(2,9,26)              81.379          estimate D2E/DX2                !
 ! A63   A(4,9,8)              106.3321         estimate D2E/DX2                !
 ! A64   A(4,9,10)              86.75           estimate D2E/DX2                !
 ! A65   A(4,9,11)              82.9569         estimate D2E/DX2                !
 ! A66   A(4,9,13)              97.3445         estimate D2E/DX2                !
 ! A67   A(4,9,24)             134.1859         estimate D2E/DX2                !
 ! A68   A(4,9,26)             163.9731         estimate D2E/DX2                !
 ! A69   A(6,9,10)             104.8126         estimate D2E/DX2                !
 ! A70   A(6,9,11)             135.489          estimate D2E/DX2                !
 ! A71   A(6,9,24)             125.6948         estimate D2E/DX2                !
 ! A72   A(6,9,26)             140.627          estimate D2E/DX2                !
 ! A73   A(8,9,10)             111.7501         estimate D2E/DX2                !
 ! A74   A(8,9,11)             161.6439         estimate D2E/DX2                !
 ! A75   A(8,9,24)              91.7269         estimate D2E/DX2                !
 ! A76   A(8,9,26)              89.248          estimate D2E/DX2                !
 ! A77   A(10,9,11)             84.117          estimate D2E/DX2                !
 ! A78   A(10,9,26)             90.9821         estimate D2E/DX2                !
 ! A79   A(11,9,13)            141.1474         estimate D2E/DX2                !
 ! A80   A(11,9,24)             92.7675         estimate D2E/DX2                !
 ! A81   A(11,9,26)             81.0285         estimate D2E/DX2                !
 ! A82   A(13,9,26)             94.7293         estimate D2E/DX2                !
 ! A83   A(9,11,12)             92.7818         estimate D2E/DX2                !
 ! A84   A(9,11,27)            101.3676         estimate D2E/DX2                !
 ! A85   A(12,11,27)            82.7786         estimate D2E/DX2                !
 ! A86   A(1,12,11)             84.8968         estimate D2E/DX2                !
 ! A87   A(1,12,14)            102.0952         estimate D2E/DX2                !
 ! A88   A(1,12,15)            164.1775         estimate D2E/DX2                !
 ! A89   A(2,12,5)             103.6788         estimate D2E/DX2                !
 ! A90   A(2,12,11)             85.2279         estimate D2E/DX2                !
 ! A91   A(2,12,14)             97.3791         estimate D2E/DX2                !
 ! A92   A(2,12,15)            118.447          estimate D2E/DX2                !
 ! A93   A(2,12,21)             97.0885         estimate D2E/DX2                !
 ! A94   A(5,12,11)             83.1166         estimate D2E/DX2                !
 ! A95   A(5,12,14)            102.8971         estimate D2E/DX2                !
 ! A96   A(5,12,15)            134.2454         estimate D2E/DX2                !
 ! A97   A(11,12,15)            83.3905         estimate D2E/DX2                !
 ! A98   A(11,12,21)           134.4177         estimate D2E/DX2                !
 ! A99   A(14,12,15)            89.2825         estimate D2E/DX2                !
 ! A100  A(15,12,21)           131.6222         estimate D2E/DX2                !
 ! A101  A(6,13,10)             99.9184         estimate D2E/DX2                !
 ! A102  A(6,13,16)             95.2443         estimate D2E/DX2                !
 ! A103  A(6,13,17)            144.4175         estimate D2E/DX2                !
 ! A104  A(6,13,24)            126.842          estimate D2E/DX2                !
 ! A105  A(7,13,8)             105.8333         estimate D2E/DX2                !
 ! A106  A(7,13,9)              93.1832         estimate D2E/DX2                !
 ! A107  A(7,13,10)             82.9234         estimate D2E/DX2                !
 ! A108  A(7,13,16)             90.6818         estimate D2E/DX2                !
 ! A109  A(7,13,17)            156.9884         estimate D2E/DX2                !
 ! A110  A(7,13,24)            133.2288         estimate D2E/DX2                !
 ! A111  A(8,13,10)            116.1003         estimate D2E/DX2                !
 ! A112  A(8,13,16)             87.2426         estimate D2E/DX2                !
 ! A113  A(8,13,17)             94.944          estimate D2E/DX2                !
 ! A114  A(8,13,18)             87.1761         estimate D2E/DX2                !
 ! A115  A(8,13,24)             99.5806         estimate D2E/DX2                !
 ! A116  A(9,13,16)            145.5259         estimate D2E/DX2                !
 ! A117  A(9,13,17)            106.2207         estimate D2E/DX2                !
 ! A118  A(9,13,18)            120.3142         estimate D2E/DX2                !
 ! A119  A(10,13,16)           156.6555         estimate D2E/DX2                !
 ! A120  A(10,13,17)            96.9243         estimate D2E/DX2                !
 ! A121  A(10,13,18)           130.2874         estimate D2E/DX2                !
 ! A122  A(16,13,17)            80.3702         estimate D2E/DX2                !
 ! A123  A(16,13,24)           129.6096         estimate D2E/DX2                !
 ! A124  A(17,13,18)           125.7268         estimate D2E/DX2                !
 ! A125  A(12,15,27)            88.3464         estimate D2E/DX2                !
 ! A126  A(6,18,16)            100.541          estimate D2E/DX2                !
 ! A127  A(6,18,19)            147.7722         estimate D2E/DX2                !
 ! A128  A(7,18,16)            104.6406         estimate D2E/DX2                !
 ! A129  A(7,18,19)            113.2024         estimate D2E/DX2                !
 ! A130  A(7,18,20)            104.8388         estimate D2E/DX2                !
 ! A131  A(13,18,19)           144.1821         estimate D2E/DX2                !
 ! A132  A(13,18,20)           103.8142         estimate D2E/DX2                !
 ! A133  A(16,18,19)           111.6717         estimate D2E/DX2                !
 ! A134  A(16,18,20)           110.1303         estimate D2E/DX2                !
 ! A135  A(19,18,20)           111.9177         estimate D2E/DX2                !
 ! A136  A(1,21,14)             99.2056         estimate D2E/DX2                !
 ! A137  A(1,21,22)            150.7143         estimate D2E/DX2                !
 ! A138  A(5,21,14)            105.7256         estimate D2E/DX2                !
 ! A139  A(5,21,22)            110.4487         estimate D2E/DX2                !
 ! A140  A(5,21,23)            104.3666         estimate D2E/DX2                !
 ! A141  A(12,21,22)           134.6467         estimate D2E/DX2                !
 ! A142  A(12,21,23)           107.4898         estimate D2E/DX2                !
 ! A143  A(14,21,22)           109.2098         estimate D2E/DX2                !
 ! A144  A(14,21,23)           108.5038         estimate D2E/DX2                !
 ! A145  A(22,21,23)           117.8634         estimate D2E/DX2                !
 ! A146  A(9,24,17)             98.4775         estimate D2E/DX2                !
 ! A147  A(9,24,25)            149.4594         estimate D2E/DX2                !
 ! A148  A(10,24,17)           107.1008         estimate D2E/DX2                !
 ! A149  A(10,24,25)           111.8532         estimate D2E/DX2                !
 ! A150  A(10,24,26)           104.6092         estimate D2E/DX2                !
 ! A151  A(13,24,25)           145.7308         estimate D2E/DX2                !
 ! A152  A(13,24,26)            97.1259         estimate D2E/DX2                !
 ! A153  A(17,24,25)           111.8045         estimate D2E/DX2                !
 ! A154  A(17,24,26)           103.4877         estimate D2E/DX2                !
 ! A155  A(25,24,26)           117.136          estimate D2E/DX2                !
 ! A156  A(9,26,27)             92.4904         estimate D2E/DX2                !
 ! A157  A(24,26,27)           113.1013         estimate D2E/DX2                !
 ! A158  A(11,27,15)            86.3461         estimate D2E/DX2                !
 ! A159  A(11,27,26)            82.8846         estimate D2E/DX2                !
 ! A160  A(11,27,28)            82.7919         estimate D2E/DX2                !
 ! A161  A(15,27,26)           132.7018         estimate D2E/DX2                !
 ! A162  A(15,27,28)            80.7409         estimate D2E/DX2                !
 ! A163  A(26,27,28)           142.2963         estimate D2E/DX2                !
 ! A164  L(6,1,21,2,-1)        186.728          estimate D2E/DX2                !
 ! A165  L(1,6,18,8,-1)        183.8616         estimate D2E/DX2                !
 ! A166  L(1,9,24,8,-1)        180.1867         estimate D2E/DX2                !
 ! A167  L(2,9,10,4,-1)        183.9635         estimate D2E/DX2                !
 ! A168  L(11,12,14,1,-1)      186.9919         estimate D2E/DX2                !
 ! A169  L(18,13,24,8,-1)      186.7567         estimate D2E/DX2                !
 ! A170  L(27,28,29,5,-1)      181.0627         estimate D2E/DX2                !
 ! A171  L(6,1,21,2,-2)        173.2277         estimate D2E/DX2                !
 ! A172  L(1,6,18,8,-2)        175.2451         estimate D2E/DX2                !
 ! A173  L(1,9,24,8,-2)        175.1776         estimate D2E/DX2                !
 ! A174  L(2,9,10,4,-2)        193.9095         estimate D2E/DX2                !
 ! A175  L(11,12,14,1,-2)      182.4729         estimate D2E/DX2                !
 ! A176  L(18,13,24,8,-2)      184.7189         estimate D2E/DX2                !
 ! A177  L(27,28,29,5,-2)      179.988          estimate D2E/DX2                !
 ! D1    D(2,1,6,7)            106.9242         estimate D2E/DX2                !
 ! D2    D(2,1,6,8)             -3.1475         estimate D2E/DX2                !
 ! D3    D(2,1,6,13)            45.3582         estimate D2E/DX2                !
 ! D4    D(2,1,6,20)          -107.8325         estimate D2E/DX2                !
 ! D5    D(5,1,6,7)             -7.0146         estimate D2E/DX2                !
 ! D6    D(5,1,6,8)           -117.0863         estimate D2E/DX2                !
 ! D7    D(5,1,6,13)           -68.5806         estimate D2E/DX2                !
 ! D8    D(5,1,6,20)           138.2287         estimate D2E/DX2                !
 ! D9    D(12,1,6,7)            68.4777         estimate D2E/DX2                !
 ! D10   D(12,1,6,8)           -41.5941         estimate D2E/DX2                !
 ! D11   D(12,1,6,13)            6.9117         estimate D2E/DX2                !
 ! D12   D(12,1,6,20)         -146.279          estimate D2E/DX2                !
 ! D13   D(23,1,6,7)          -145.5891         estimate D2E/DX2                !
 ! D14   D(23,1,6,8)           104.3391         estimate D2E/DX2                !
 ! D15   D(23,1,6,13)          152.8449         estimate D2E/DX2                !
 ! D16   D(23,1,6,20)           -0.3458         estimate D2E/DX2                !
 ! D17   D(3,1,9,8)             18.7227         estimate D2E/DX2                !
 ! D18   D(3,1,9,10)          -102.0204         estimate D2E/DX2                !
 ! D19   D(3,1,9,11)          -178.6579         estimate D2E/DX2                !
 ! D20   D(3,1,9,13)           -25.5783         estimate D2E/DX2                !
 ! D21   D(3,1,9,26)           106.526          estimate D2E/DX2                !
 ! D22   D(5,1,9,8)           -177.0668         estimate D2E/DX2                !
 ! D23   D(5,1,9,10)            62.1901         estimate D2E/DX2                !
 ! D24   D(5,1,9,11)           -14.4475         estimate D2E/DX2                !
 ! D25   D(5,1,9,13)           138.6322         estimate D2E/DX2                !
 ! D26   D(5,1,9,26)           -89.2635         estimate D2E/DX2                !
 ! D27   D(12,1,9,8)          -131.1791         estimate D2E/DX2                !
 ! D28   D(12,1,9,10)          108.0778         estimate D2E/DX2                !
 ! D29   D(12,1,9,11)           31.4402         estimate D2E/DX2                !
 ! D30   D(12,1,9,13)         -175.4801         estimate D2E/DX2                !
 ! D31   D(12,1,9,26)          -43.3758         estimate D2E/DX2                !
 ! D32   D(21,1,9,8)          -136.0152         estimate D2E/DX2                !
 ! D33   D(21,1,9,10)          103.2417         estimate D2E/DX2                !
 ! D34   D(21,1,9,11)           26.6042         estimate D2E/DX2                !
 ! D35   D(21,1,9,13)          179.6838         estimate D2E/DX2                !
 ! D36   D(21,1,9,26)          -48.2119         estimate D2E/DX2                !
 ! D37   D(23,1,9,8)           -64.9102         estimate D2E/DX2                !
 ! D38   D(23,1,9,10)          174.3467         estimate D2E/DX2                !
 ! D39   D(23,1,9,11)           97.7091         estimate D2E/DX2                !
 ! D40   D(23,1,9,13)         -109.2112         estimate D2E/DX2                !
 ! D41   D(23,1,9,26)           22.8931         estimate D2E/DX2                !
 ! D42   D(3,1,12,11)         -121.5625         estimate D2E/DX2                !
 ! D43   D(3,1,12,14)           55.9646         estimate D2E/DX2                !
 ! D44   D(3,1,12,15)          -79.2048         estimate D2E/DX2                !
 ! D45   D(4,1,12,11)           15.7285         estimate D2E/DX2                !
 ! D46   D(4,1,12,14)         -166.7444         estimate D2E/DX2                !
 ! D47   D(4,1,12,15)           58.0863         estimate D2E/DX2                !
 ! D48   D(6,1,12,11)          -35.767          estimate D2E/DX2                !
 ! D49   D(6,1,12,14)          141.7601         estimate D2E/DX2                !
 ! D50   D(6,1,12,15)            6.5907         estimate D2E/DX2                !
 ! D51   D(9,1,12,11)          -30.0471         estimate D2E/DX2                !
 ! D52   D(9,1,12,14)          147.48           estimate D2E/DX2                !
 ! D53   D(9,1,12,15)           12.3106         estimate D2E/DX2                !
 ! D54   D(23,1,12,11)         170.8928         estimate D2E/DX2                !
 ! D55   D(23,1,12,14)         -11.5801         estimate D2E/DX2                !
 ! D56   D(23,1,12,15)        -146.7495         estimate D2E/DX2                !
 ! D57   D(2,1,21,14)           -2.5768         estimate D2E/DX2                !
 ! D58   D(2,1,21,22)         -168.5958         estimate D2E/DX2                !
 ! D59   D(3,1,21,14)         -108.754          estimate D2E/DX2                !
 ! D60   D(3,1,21,22)           85.227          estimate D2E/DX2                !
 ! D61   D(4,1,21,14)          111.7206         estimate D2E/DX2                !
 ! D62   D(4,1,21,22)          -54.2984         estimate D2E/DX2                !
 ! D63   D(9,1,21,14)           42.2574         estimate D2E/DX2                !
 ! D64   D(9,1,21,22)         -123.7616         estimate D2E/DX2                !
 ! D65   D(12,2,9,4)            67.8039         estimate D2E/DX2                !
 ! D66   D(12,2,9,6)           122.1467         estimate D2E/DX2                !
 ! D67   D(12,2,9,8)           173.2442         estimate D2E/DX2                !
 ! D68   D(12,2,9,11)          -14.0928         estimate D2E/DX2                !
 ! D69   D(12,2,9,13)          175.8968         estimate D2E/DX2                !
 ! D70   D(12,2,9,24)         -101.9194         estimate D2E/DX2                !
 ! D71   D(12,2,9,26)          -96.0761         estimate D2E/DX2                !
 ! D72   D(9,2,12,5)           -68.2776         estimate D2E/DX2                !
 ! D73   D(9,2,12,11)           13.4375         estimate D2E/DX2                !
 ! D74   D(9,2,12,14)         -173.5349         estimate D2E/DX2                !
 ! D75   D(9,2,12,15)           93.2663         estimate D2E/DX2                !
 ! D76   D(9,2,12,21)         -120.7769         estimate D2E/DX2                !
 ! D77   D(1,4,6,9)             83.5355         estimate D2E/DX2                !
 ! D78   D(1,5,12,21)           83.0294         estimate D2E/DX2                !
 ! D79   D(3,6,9,2)            -10.7009         estimate D2E/DX2                !
 ! D80   D(3,6,9,10)           164.1521         estimate D2E/DX2                !
 ! D81   D(3,6,9,11)            67.3887         estimate D2E/DX2                !
 ! D82   D(3,6,9,24)          -147.9637         estimate D2E/DX2                !
 ! D83   D(3,6,9,26)           -85.3483         estimate D2E/DX2                !
 ! D84   D(7,6,9,2)           -174.3251         estimate D2E/DX2                !
 ! D85   D(7,6,9,10)             0.5279         estimate D2E/DX2                !
 ! D86   D(7,6,9,11)           -96.2355         estimate D2E/DX2                !
 ! D87   D(7,6,9,24)            48.4121         estimate D2E/DX2                !
 ! D88   D(7,6,9,26)           111.0274         estimate D2E/DX2                !
 ! D89   D(18,6,9,2)           147.984          estimate D2E/DX2                !
 ! D90   D(18,6,9,10)          -37.163          estimate D2E/DX2                !
 ! D91   D(18,6,9,11)         -133.9264         estimate D2E/DX2                !
 ! D92   D(18,6,9,24)           10.7212         estimate D2E/DX2                !
 ! D93   D(18,6,9,26)           73.3365         estimate D2E/DX2                !
 ! D94   D(20,6,9,2)           105.0886         estimate D2E/DX2                !
 ! D95   D(20,6,9,10)          -80.0584         estimate D2E/DX2                !
 ! D96   D(20,6,9,11)         -176.8218         estimate D2E/DX2                !
 ! D97   D(20,6,9,24)          -32.1742         estimate D2E/DX2                !
 ! D98   D(20,6,9,26)           30.4412         estimate D2E/DX2                !
 ! D99   D(1,6,13,10)           42.299          estimate D2E/DX2                !
 ! D100  D(1,6,13,16)         -155.5182         estimate D2E/DX2                !
 ! D101  D(1,6,13,17)          -74.7487         estimate D2E/DX2                !
 ! D102  D(1,6,13,24)           -5.2021         estimate D2E/DX2                !
 ! D103  D(3,6,13,10)          110.0382         estimate D2E/DX2                !
 ! D104  D(3,6,13,16)          -87.779          estimate D2E/DX2                !
 ! D105  D(3,6,13,17)           -7.0094         estimate D2E/DX2                !
 ! D106  D(3,6,13,24)           62.5371         estimate D2E/DX2                !
 ! D107  D(4,6,13,10)           -2.7842         estimate D2E/DX2                !
 ! D108  D(4,6,13,16)          159.3986         estimate D2E/DX2                !
 ! D109  D(4,6,13,17)         -119.8318         estimate D2E/DX2                !
 ! D110  D(4,6,13,24)          -50.2853         estimate D2E/DX2                !
 ! D111  D(20,6,13,10)        -155.5609         estimate D2E/DX2                !
 ! D112  D(20,6,13,16)           6.6219         estimate D2E/DX2                !
 ! D113  D(20,6,13,17)          87.3915         estimate D2E/DX2                !
 ! D114  D(20,6,13,24)         156.938          estimate D2E/DX2                !
 ! D115  D(3,6,18,16)          110.7148         estimate D2E/DX2                !
 ! D116  D(3,6,18,19)          -67.5354         estimate D2E/DX2                !
 ! D117  D(4,6,18,16)         -104.7161         estimate D2E/DX2                !
 ! D118  D(4,6,18,19)           77.0337         estimate D2E/DX2                !
 ! D119  D(8,6,18,16)            7.9885         estimate D2E/DX2                !
 ! D120  D(8,6,18,19)         -170.2617         estimate D2E/DX2                !
 ! D121  D(9,6,18,16)          -43.352          estimate D2E/DX2                !
 ! D122  D(9,6,18,19)          138.3978         estimate D2E/DX2                !
 ! D123  D(6,7,13,18)          -79.3627         estimate D2E/DX2                !
 ! D124  D(6,8,9,13)            86.3831         estimate D2E/DX2                !
 ! D125  D(1,9,11,12)          -35.2051         estimate D2E/DX2                !
 ! D126  D(1,9,11,27)         -118.3937         estimate D2E/DX2                !
 ! D127  D(2,9,11,12)           12.6967         estimate D2E/DX2                !
 ! D128  D(2,9,11,27)          -70.4919         estimate D2E/DX2                !
 ! D129  D(4,9,11,12)          -85.5549         estimate D2E/DX2                !
 ! D130  D(4,9,11,27)         -168.7435         estimate D2E/DX2                !
 ! D131  D(6,9,11,12)          -67.8164         estimate D2E/DX2                !
 ! D132  D(6,9,11,27)         -151.0049         estimate D2E/DX2                !
 ! D133  D(8,9,11,12)           36.273          estimate D2E/DX2                !
 ! D134  D(8,9,11,27)          -46.9155         estimate D2E/DX2                !
 ! D135  D(10,9,11,12)        -172.9932         estimate D2E/DX2                !
 ! D136  D(10,9,11,27)         103.8182         estimate D2E/DX2                !
 ! D137  D(13,9,11,12)        -178.5331         estimate D2E/DX2                !
 ! D138  D(13,9,11,27)          98.2783         estimate D2E/DX2                !
 ! D139  D(24,9,11,12)         140.2474         estimate D2E/DX2                !
 ! D140  D(24,9,11,27)          57.0589         estimate D2E/DX2                !
 ! D141  D(26,9,11,12)          95.0749         estimate D2E/DX2                !
 ! D142  D(26,9,11,27)          11.8863         estimate D2E/DX2                !
 ! D143  D(1,9,13,7)           -47.8749         estimate D2E/DX2                !
 ! D144  D(1,9,13,16)           47.9824         estimate D2E/DX2                !
 ! D145  D(1,9,13,17)          144.6388         estimate D2E/DX2                !
 ! D146  D(1,9,13,18)           -6.3522         estimate D2E/DX2                !
 ! D147  D(2,9,13,7)          -109.8133         estimate D2E/DX2                !
 ! D148  D(2,9,13,16)          -13.956          estimate D2E/DX2                !
 ! D149  D(2,9,13,17)           82.7003         estimate D2E/DX2                !
 ! D150  D(2,9,13,18)          -68.2906         estimate D2E/DX2                !
 ! D151  D(4,9,13,7)            -1.7716         estimate D2E/DX2                !
 ! D152  D(4,9,13,16)           94.0857         estimate D2E/DX2                !
 ! D153  D(4,9,13,17)         -169.258          estimate D2E/DX2                !
 ! D154  D(4,9,13,18)           39.751          estimate D2E/DX2                !
 ! D155  D(11,9,13,7)           86.1041         estimate D2E/DX2                !
 ! D156  D(11,9,13,16)        -178.0386         estimate D2E/DX2                !
 ! D157  D(11,9,13,17)         -81.3823         estimate D2E/DX2                !
 ! D158  D(11,9,13,18)         127.6268         estimate D2E/DX2                !
 ! D159  D(26,9,13,7)          167.6664         estimate D2E/DX2                !
 ! D160  D(26,9,13,16)         -96.4763         estimate D2E/DX2                !
 ! D161  D(26,9,13,17)           0.18           estimate D2E/DX2                !
 ! D162  D(26,9,13,18)        -150.8109         estimate D2E/DX2                !
 ! D163  D(2,9,24,17)          -92.6285         estimate D2E/DX2                !
 ! D164  D(2,9,24,25)           94.7722         estimate D2E/DX2                !
 ! D165  D(4,9,24,17)          101.661          estimate D2E/DX2                !
 ! D166  D(4,9,24,25)          -70.9384         estimate D2E/DX2                !
 ! D167  D(6,9,24,17)           28.4861         estimate D2E/DX2                !
 ! D168  D(6,9,24,25)         -144.1132         estimate D2E/DX2                !
 ! D169  D(8,9,24,17)          -13.2768         estimate D2E/DX2                !
 ! D170  D(8,9,24,25)          174.1238         estimate D2E/DX2                !
 ! D171  D(11,9,24,17)        -175.4741         estimate D2E/DX2                !
 ! D172  D(11,9,24,25)          11.9266         estimate D2E/DX2                !
 ! D173  D(1,9,26,27)           66.3546         estimate D2E/DX2                !
 ! D174  D(2,9,26,27)           73.2565         estimate D2E/DX2                !
 ! D175  D(4,9,26,27)          -12.8564         estimate D2E/DX2                !
 ! D176  D(6,9,26,27)          150.436          estimate D2E/DX2                !
 ! D177  D(8,9,26,27)          153.7795         estimate D2E/DX2                !
 ! D178  D(10,9,26,27)         -94.479          estimate D2E/DX2                !
 ! D179  D(11,9,26,27)         -10.5919         estimate D2E/DX2                !
 ! D180  D(13,9,26,27)        -151.6734         estimate D2E/DX2                !
 ! D181  D(9,10,13,24)          86.4516         estimate D2E/DX2                !
 ! D182  D(9,11,12,1)           36.0075         estimate D2E/DX2                !
 ! D183  D(9,11,12,2)          -13.9371         estimate D2E/DX2                !
 ! D184  D(9,11,12,5)           90.4873         estimate D2E/DX2                !
 ! D185  D(9,11,12,15)        -133.3352         estimate D2E/DX2                !
 ! D186  D(9,11,12,21)          81.3168         estimate D2E/DX2                !
 ! D187  D(27,11,12,1)         137.1212         estimate D2E/DX2                !
 ! D188  D(27,11,12,2)          87.1765         estimate D2E/DX2                !
 ! D189  D(27,11,12,5)        -168.3991         estimate D2E/DX2                !
 ! D190  D(27,11,12,15)        -32.2215         estimate D2E/DX2                !
 ! D191  D(27,11,12,21)       -177.5696         estimate D2E/DX2                !
 ! D192  D(9,11,27,15)         122.0835         estimate D2E/DX2                !
 ! D193  D(9,11,27,26)         -11.7694         estimate D2E/DX2                !
 ! D194  D(9,11,27,28)        -156.8006         estimate D2E/DX2                !
 ! D195  D(12,11,27,15)         30.6839         estimate D2E/DX2                !
 ! D196  D(12,11,27,26)       -103.1691         estimate D2E/DX2                !
 ! D197  D(12,11,27,28)        111.7998         estimate D2E/DX2                !
 ! D198  D(1,12,15,27)         -11.0133         estimate D2E/DX2                !
 ! D199  D(2,12,15,27)         -49.4222         estimate D2E/DX2                !
 ! D200  D(5,12,15,27)         105.1488         estimate D2E/DX2                !
 ! D201  D(11,12,15,27)         31.4856         estimate D2E/DX2                !
 ! D202  D(14,12,15,27)       -147.4294         estimate D2E/DX2                !
 ! D203  D(21,12,15,27)        178.5789         estimate D2E/DX2                !
 ! D204  D(2,12,21,22)        -173.7803         estimate D2E/DX2                !
 ! D205  D(2,12,21,23)           6.3616         estimate D2E/DX2                !
 ! D206  D(11,12,21,22)         95.9631         estimate D2E/DX2                !
 ! D207  D(11,12,21,23)        -83.8951         estimate D2E/DX2                !
 ! D208  D(15,12,21,22)        -34.9628         estimate D2E/DX2                !
 ! D209  D(15,12,21,23)        145.1791         estimate D2E/DX2                !
 ! D210  D(8,13,18,19)         167.8028         estimate D2E/DX2                !
 ! D211  D(8,13,18,20)         -16.2084         estimate D2E/DX2                !
 ! D212  D(9,13,18,19)        -141.2584         estimate D2E/DX2                !
 ! D213  D(9,13,18,20)          34.7305         estimate D2E/DX2                !
 ! D214  D(10,13,18,19)        -69.8107         estimate D2E/DX2                !
 ! D215  D(10,13,18,20)        106.1782         estimate D2E/DX2                !
 ! D216  D(17,13,18,19)         73.7423         estimate D2E/DX2                !
 ! D217  D(17,13,18,20)       -110.2688         estimate D2E/DX2                !
 ! D218  D(6,13,24,25)         148.5289         estimate D2E/DX2                !
 ! D219  D(6,13,24,26)         -32.6324         estimate D2E/DX2                !
 ! D220  D(7,13,24,25)          71.774          estimate D2E/DX2                !
 ! D221  D(7,13,24,26)        -109.3873         estimate D2E/DX2                !
 ! D222  D(8,13,24,25)        -165.6499         estimate D2E/DX2                !
 ! D223  D(8,13,24,26)          13.1888         estimate D2E/DX2                !
 ! D224  D(16,13,24,25)        -71.2708         estimate D2E/DX2                !
 ! D225  D(16,13,24,26)        107.5679         estimate D2E/DX2                !
 ! D226  D(12,15,27,11)        -34.6047         estimate D2E/DX2                !
 ! D227  D(12,15,27,26)         42.2262         estimate D2E/DX2                !
 ! D228  D(12,15,27,28)       -117.887          estimate D2E/DX2                !
 ! D229  D(10,24,26,27)         66.491          estimate D2E/DX2                !
 ! D230  D(13,24,26,27)        122.7655         estimate D2E/DX2                !
 ! D231  D(17,24,26,27)        178.5162         estimate D2E/DX2                !
 ! D232  D(25,24,26,27)        -57.9693         estimate D2E/DX2                !
 ! D233  D(9,26,27,11)          11.0507         estimate D2E/DX2                !
 ! D234  D(9,26,27,15)         -67.2609         estimate D2E/DX2                !
 ! D235  D(9,26,27,28)          79.4434         estimate D2E/DX2                !
 ! D236  D(24,26,27,11)        -66.218          estimate D2E/DX2                !
 ! D237  D(24,26,27,15)       -144.5297         estimate D2E/DX2                !
 ! D238  D(24,26,27,28)          2.1747         estimate D2E/DX2                !
 --------------------------------------------------------------------------------
 Trust Radius=3.00D-01 FncErr=1.00D-07 GrdErr=1.00D-06 EigMax=2.50D+02 EigMin=1.00D-04
 Number of steps in this run=    174 maximum allowed number of steps=    174.
 GradGradGradGradGradGradGradGradGradGradGradGradGradGradGradGradGradGrad

                          Input orientation:                          
 ---------------------------------------------------------------------
 Center     Atomic      Atomic             Coordinates (Angstroms)
 Number     Number       Type             X           Y           Z
 ---------------------------------------------------------------------
      1         42           0        0.396168    1.940321   12.096380
      2         16           0        1.372252    3.990172   11.643996
      3         16           0       -1.565442    2.544136   13.316852
      4         16           0       -0.558244    1.143834   10.072401
      5         16           0        2.189875    0.321716   11.440016
      6         42           0       -2.157735    2.671149   11.114270
      7         16           0       -3.323428    1.885830    8.857744
      8         16           0       -1.630805    4.880415   10.617464
      9         42           0        0.021248    3.419127    9.478269
     10         16           0       -0.690896    2.849998    7.176316
     11         16           0        2.192759    2.358894    8.791663
     12         42           0        3.179164    2.509331   11.213859
     13         42           0       -2.345554    4.125103    8.486426
     14         16           0        4.283922    2.790664   13.238253
     15         16           0        5.059984    3.341100   10.105436
     16         16           0       -4.602970    5.228023    8.989811
     17         16           0       -2.008230    6.264570    7.381840
     18         42           0       -4.929590    3.202997    9.847837
     19         16           0       -6.901169    2.516022    9.501278
     20         16           0       -4.410798    3.196733   12.036685
     21         42           0        2.917029    0.947138   13.561076
     22         16           0        4.049898   -0.616414   14.448516
     23         16           0        1.081044    1.608360   14.597188
     24         42           0       -0.162000    5.075070    6.886029
     25         16           0        0.527459    5.473060    4.918571
     26         16           0        1.265926    5.559883    8.612296
     27         42           0        3.570078    4.289651    8.436877
     28          6           0        4.579191    3.053686    7.293154
     29          8           0        5.177748    2.343761    6.608456
 ---------------------------------------------------------------------
                    Distance matrix (angstroms):
                    1          2          3          4          5
     1  Mo   0.000000
     2  S    2.315012   0.000000
     3  S    2.387898   3.676889   0.000000
     4  S    2.375244   3.781318   3.674474   0.000000
     5  S    2.503614   3.763998   4.750165   3.177799   0.000000
     6  Mo   2.832149   3.805422   2.284362   2.444699   4.952541
     7  S    4.932254   5.851570   4.838132   3.110015   6.285785
     8  S    3.865225   3.296157   3.570598   3.925496   6.004659
     9  Mo   3.030171   2.615660   4.244751   2.421934   4.259736
    10  S    5.120181   5.051410   6.210037   3.363911   5.733253
    11  S    3.784719   3.386754   5.885212   3.268743   3.341239
    12  Mo   2.974505   2.375466   5.189901   4.139532   2.411535
    13  Mo   5.032105   4.879604   5.142086   3.820701   6.615101
    14  S    4.140240   3.529631   5.855084   6.015084   3.703295
    15  S    5.260914   4.048188   7.405715   6.032707   4.374392
    16  S    6.741746   6.654341   5.929006   5.849137   8.730298
    17  S    6.834263   5.896314   7.018693   5.963515   8.331290
    18  Mo   5.917262   6.599928   4.877054   4.837277   7.843698
    19  S    7.766409   8.672592   6.559678   6.514736   9.550956
    20  S    4.968808   5.850420   3.187595   4.786959   7.224308
    21  Mo   3.080014   3.914280   4.764724   4.928191   2.327832
    22  S    5.041744   6.021275   6.542307   6.594227   3.659350
    23  S    2.614057   3.805151   3.085259   4.834951   3.585065
    24  Mo   6.106223   5.115582   7.052004   5.075883   6.990314
    25  S    8.001151   6.938586   9.137284   6.817838   8.475212
    26  S    5.098681   3.415626   6.264521   4.996098   6.023958
    27  Mo   5.383774   3.899454   7.296201   5.441888   5.164137
    28  C    6.465929   5.485553   8.619808   6.145322   5.510804
    29  O    7.289964   6.522970   9.513850   6.807374   6.029927
                    6          7          8          9         10
     6  Mo   0.000000
     7  S    2.658472   0.000000
     8  S    2.324936   3.863823   0.000000
     9  Mo   2.825586   3.731341   2.482420   0.000000
    10  S    4.206077   3.269105   4.104573   2.475893   0.000000
    11  S    4.941539   5.536829   4.930645   2.512167   3.341556
    12  Mo   5.340280   6.944331   5.395695   3.716508   5.603139
    13  Mo   3.009123   2.471530   2.371220   2.661561   2.465801
    14  S    6.783843   8.824928   6.798499   5.718639   7.842156
    15  S    7.318610   8.599776   6.884644   5.078217   6.472522
    16  S    4.126755   3.581190   3.406442   4.989398   4.924235
    17  S    5.183248   4.804311   3.539435   4.075579   3.665639
    18  Mo   3.093525   2.301080   3.779952   4.969315   5.022764
    19  S    5.012582   3.689378   5.883278   6.981116   6.639614
    20  S    2.490659   3.606453   3.546454   5.122303   6.130341
    21  Mo   5.891715   7.870564   6.694648   5.582615   7.576487
    22  S    7.775601   9.585609   8.784217   7.564322   9.347515
    23  S    4.873390   7.239999   5.822257   5.532213   7.729863
    24  Mo   5.257358   4.904441   4.014833   3.081466   2.305416
    25  S    7.310791   6.573784   6.122639   5.026503   3.669095
    26  S    5.130898   5.883968   3.587956   2.623351   3.637948
    27  Mo   6.526548   7.312722   5.670374   3.799540   4.670922
    28  C    7.754575   8.140222   7.276814   5.067852   5.275316
    29  O    8.615036   8.805623   8.298383   5.998477   5.917746
                   11         12         13         14         15
    11  S    0.000000
    12  Mo   2.619668   0.000000
    13  Mo   4.879441   6.369625   0.000000
    14  S    4.932702   2.323319   8.265019   0.000000
    15  S    3.303287   2.336220   7.620882   3.274110   0.000000
    16  S    7.379234   8.538108   2.562373  10.147257   9.908470
    17  S    5.906794   7.462925   2.431299   9.271288   8.119378
    18  Mo   7.249543   8.252217   3.062836   9.826176   9.993849
    19  S    9.122925  10.224778   4.936871  11.796045  12.004788
    20  S    7.405343   7.665317   4.210872   8.786741   9.666761
    21  Mo   5.026422   2.831711   7.971594   2.317585   4.718555
    22  S    6.655930   4.581644   9.946372   3.623215   5.961924
    23  S    5.958467   4.081761   7.444258   3.674639   6.245814
    24  Mo   4.068654   6.039578   2.869079   8.083037   6.374978
    25  S    5.241383   7.446199   4.775016   9.514377   7.210590
    26  S    3.337293   4.442350   3.888088   6.178701   4.641911
    27  Mo   2.398062   3.321744   5.918128   5.080329   2.429744
    28  C    2.902296   4.198610   7.108018   5.958235   2.867525
    29  O    3.698213   5.023095   7.956131   6.704689   3.638327
                   16         17         18         19         20
    16  S    0.000000
    17  S    3.223767   0.000000
    18  Mo   2.223425   4.897828   0.000000
    19  S    3.591416   6.518012   2.116403   0.000000
    20  S    3.666948   6.070547   2.249498   3.618509   0.000000
    21  Mo   9.786359   9.524506   8.969196  10.739663   7.815465
    22  S   11.782488  11.575265  10.788204  12.418260   9.588555
    23  S    8.766564   9.126070   7.824763   9.513563   6.264139
    24  Mo   4.916453   2.251511   5.916661   7.668419   6.936115
    25  S    6.554109   3.622693   7.696118   9.215736   8.957432
    26  S    5.890381   3.568011   6.742840   8.761097   7.038190
    27  Mo   8.245301   6.010901   8.684238  10.673599   8.823121
    28  C    9.587412   7.328831   9.847112  11.703143  10.165700
    29  O   10.471498   8.222478  10.648481  12.421688  11.051400
                   21         22         23         24         25
    21  Mo   0.000000
    22  S    2.125003   0.000000
    23  S    2.209431   3.712926   0.000000
    24  Mo   8.430688  10.359743   8.545479   0.000000
    25  S   10.044247  11.845215  10.436378   2.122414   0.000000
    26  S    6.963762   8.941958   7.174096   2.292164   3.767821
    27  Mo   6.152746   7.774285   7.164778   4.117089   4.799632
    28  C    6.818150   8.059094   8.226476   5.170168   5.282854
    29  O    7.443140   8.455840   9.007976   6.004166   5.854350
                   26         27         28         29
    26  S    0.000000
    27  Mo   2.636926   0.000000
    28  C    4.358771   1.963166   0.000000
    29  O    5.446207   3.116763   1.153722   0.000000
 Symmetry turned off by external request.
 Stoichiometry    CMo9OS18
 Framework group  C1[X(CMo9OS18)]
 Deg. of freedom    81
 Full point group                 C1      NOp   1
 Rotational constants (GHZ):           0.0543722           0.0326599           0.0224226
 General basis read from cards:  (5D, 7F)
 ======================================================================================================
                                       Pseudopotential Parameters
 ======================================================================================================
  Center     Atomic      Valence      Angular      Power
  Number     Number     Electrons     Momentum     of R      Exponent        Coefficient   SO-Coeffient
 ======================================================================================================
    1         42           14
                                      F and up 
                                                     0      537.9667807       -0.04694920    0.00000000
                                                     1      147.8982938      -20.20800840    0.00000000
                                                     2       45.7358898     -106.21163020    0.00000000
                                                     2       13.2911467      -41.81073680    0.00000000
                                                     2        4.7059961       -4.20541030    0.00000000
                                      S - F
                                                     0      110.2991760        2.80637170    0.00000000
                                                     1       23.2014645       44.51620120    0.00000000
                                                     2        5.3530131       82.77852270    0.00000000
                                      P - F
                                                     0       63.2901397        4.94208760    0.00000000
                                                     1       23.3315302       25.86049760    0.00000000
                                                     2       24.6759423      132.47087420    0.00000000
                                                     2        4.6493040       57.31497940    0.00000000
                                      D - F
                                                     0      104.4839977        3.00545910    0.00000000
                                                     1       66.2307245       26.36378510    0.00000000
                                                     2       39.1283176      183.38491990    0.00000000
                                                     2       13.1164437       98.44530680    0.00000000
                                                     2        3.6280263       22.49013770    0.00000000
    2         16
                                   No pseudopotential on this center.
    3         16
                                   No pseudopotential on this center.
    4         16
                                   No pseudopotential on this center.
    5         16
                                   No pseudopotential on this center.
    6         42           14
                                      F and up 
                                                     0      537.9667807       -0.04694920    0.00000000
                                                     1      147.8982938      -20.20800840    0.00000000
                                                     2       45.7358898     -106.21163020    0.00000000
                                                     2       13.2911467      -41.81073680    0.00000000
                                                     2        4.7059961       -4.20541030    0.00000000
                                      S - F
                                                     0      110.2991760        2.80637170    0.00000000
                                                     1       23.2014645       44.51620120    0.00000000
                                                     2        5.3530131       82.77852270    0.00000000
                                      P - F
                                                     0       63.2901397        4.94208760    0.00000000
                                                     1       23.3315302       25.86049760    0.00000000
                                                     2       24.6759423      132.47087420    0.00000000
                                                     2        4.6493040       57.31497940    0.00000000
                                      D - F
                                                     0      104.4839977        3.00545910    0.00000000
                                                     1       66.2307245       26.36378510    0.00000000
                                                     2       39.1283176      183.38491990    0.00000000
                                                     2       13.1164437       98.44530680    0.00000000
                                                     2        3.6280263       22.49013770    0.00000000
    7         16
                                   No pseudopotential on this center.
    8         16
                                   No pseudopotential on this center.
    9         42           14
                                      F and up 
                                                     0      537.9667807       -0.04694920    0.00000000
                                                     1      147.8982938      -20.20800840    0.00000000
                                                     2       45.7358898     -106.21163020    0.00000000
                                                     2       13.2911467      -41.81073680    0.00000000
                                                     2        4.7059961       -4.20541030    0.00000000
                                      S - F
                                                     0      110.2991760        2.80637170    0.00000000
                                                     1       23.2014645       44.51620120    0.00000000
                                                     2        5.3530131       82.77852270    0.00000000
                                      P - F
                                                     0       63.2901397        4.94208760    0.00000000
                                                     1       23.3315302       25.86049760    0.00000000
                                                     2       24.6759423      132.47087420    0.00000000
                                                     2        4.6493040       57.31497940    0.00000000
                                      D - F
                                                     0      104.4839977        3.00545910    0.00000000
                                                     1       66.2307245       26.36378510    0.00000000
                                                     2       39.1283176      183.38491990    0.00000000
                                                     2       13.1164437       98.44530680    0.00000000
                                                     2        3.6280263       22.49013770    0.00000000
   10         16
                                   No pseudopotential on this center.
   11         16
                                   No pseudopotential on this center.
   12         42           14
                                      F and up 
                                                     0      537.9667807       -0.04694920    0.00000000
                                                     1      147.8982938      -20.20800840    0.00000000
                                                     2       45.7358898     -106.21163020    0.00000000
                                                     2       13.2911467      -41.81073680    0.00000000
                                                     2        4.7059961       -4.20541030    0.00000000
                                      S - F
                                                     0      110.2991760        2.80637170    0.00000000
                                                     1       23.2014645       44.51620120    0.00000000
                                                     2        5.3530131       82.77852270    0.00000000
                                      P - F
                                                     0       63.2901397        4.94208760    0.00000000
                                                     1       23.3315302       25.86049760    0.00000000
                                                     2       24.6759423      132.47087420    0.00000000
                                                     2        4.6493040       57.31497940    0.00000000
                                      D - F
                                                     0      104.4839977        3.00545910    0.00000000
                                                     1       66.2307245       26.36378510    0.00000000
                                                     2       39.1283176      183.38491990    0.00000000
                                                     2       13.1164437       98.44530680    0.00000000
                                                     2        3.6280263       22.49013770    0.00000000
   13         42           14
                                      F and up 
                                                     0      537.9667807       -0.04694920    0.00000000
                                                     1      147.8982938      -20.20800840    0.00000000
                                                     2       45.7358898     -106.21163020    0.00000000
                                                     2       13.2911467      -41.81073680    0.00000000
                                                     2        4.7059961       -4.20541030    0.00000000
                                      S - F
                                                     0      110.2991760        2.80637170    0.00000000
                                                     1       23.2014645       44.51620120    0.00000000
                                                     2        5.3530131       82.77852270    0.00000000
                                      P - F
                                                     0       63.2901397        4.94208760    0.00000000
                                                     1       23.3315302       25.86049760    0.00000000
                                                     2       24.6759423      132.47087420    0.00000000
                                                     2        4.6493040       57.31497940    0.00000000
                                      D - F
                                                     0      104.4839977        3.00545910    0.00000000
                                                     1       66.2307245       26.36378510    0.00000000
                                                     2       39.1283176      183.38491990    0.00000000
                                                     2       13.1164437       98.44530680    0.00000000
                                                     2        3.6280263       22.49013770    0.00000000
   14         16
                                   No pseudopotential on this center.
   15         16
                                   No pseudopotential on this center.
   16         16
                                   No pseudopotential on this center.
   17         16
                                   No pseudopotential on this center.
   18         42           14
                                      F and up 
                                                     0      537.9667807       -0.04694920    0.00000000
                                                     1      147.8982938      -20.20800840    0.00000000
                                                     2       45.7358898     -106.21163020    0.00000000
                                                     2       13.2911467      -41.81073680    0.00000000
                                                     2        4.7059961       -4.20541030    0.00000000
                                      S - F
                                                     0      110.2991760        2.80637170    0.00000000
                                                     1       23.2014645       44.51620120    0.00000000
                                                     2        5.3530131       82.77852270    0.00000000
                                      P - F
                                                     0       63.2901397        4.94208760    0.00000000
                                                     1       23.3315302       25.86049760    0.00000000
                                                     2       24.6759423      132.47087420    0.00000000
                                                     2        4.6493040       57.31497940    0.00000000
                                      D - F
                                                     0      104.4839977        3.00545910    0.00000000
                                                     1       66.2307245       26.36378510    0.00000000
                                                     2       39.1283176      183.38491990    0.00000000
                                                     2       13.1164437       98.44530680    0.00000000
                                                     2        3.6280263       22.49013770    0.00000000
   19         16
                                   No pseudopotential on this center.
   20         16
                                   No pseudopotential on this center.
   21         42           14
                                      F and up 
                                                     0      537.9667807       -0.04694920    0.00000000
                                                     1      147.8982938      -20.20800840    0.00000000
                                                     2       45.7358898     -106.21163020    0.00000000
                                                     2       13.2911467      -41.81073680    0.00000000
                                                     2        4.7059961       -4.20541030    0.00000000
                                      S - F
                                                     0      110.2991760        2.80637170    0.00000000
                                                     1       23.2014645       44.51620120    0.00000000
                                                     2        5.3530131       82.77852270    0.00000000
                                      P - F
                                                     0       63.2901397        4.94208760    0.00000000
                                                     1       23.3315302       25.86049760    0.00000000
                                                     2       24.6759423      132.47087420    0.00000000
                                                     2        4.6493040       57.31497940    0.00000000
                                      D - F
                                                     0      104.4839977        3.00545910    0.00000000
                                                     1       66.2307245       26.36378510    0.00000000
                                                     2       39.1283176      183.38491990    0.00000000
                                                     2       13.1164437       98.44530680    0.00000000
                                                     2        3.6280263       22.49013770    0.00000000
   22         16
                                   No pseudopotential on this center.
   23         16
                                   No pseudopotential on this center.
   24         42           14
                                      F and up 
                                                     0      537.9667807       -0.04694920    0.00000000
                                                     1      147.8982938      -20.20800840    0.00000000
                                                     2       45.7358898     -106.21163020    0.00000000
                                                     2       13.2911467      -41.81073680    0.00000000
                                                     2        4.7059961       -4.20541030    0.00000000
                                      S - F
                                                     0      110.2991760        2.80637170    0.00000000
                                                     1       23.2014645       44.51620120    0.00000000
                                                     2        5.3530131       82.77852270    0.00000000
                                      P - F
                                                     0       63.2901397        4.94208760    0.00000000
                                                     1       23.3315302       25.86049760    0.00000000
                                                     2       24.6759423      132.47087420    0.00000000
                                                     2        4.6493040       57.31497940    0.00000000
                                      D - F
                                                     0      104.4839977        3.00545910    0.00000000
                                                     1       66.2307245       26.36378510    0.00000000
                                                     2       39.1283176      183.38491990    0.00000000
                                                     2       13.1164437       98.44530680    0.00000000
                                                     2        3.6280263       22.49013770    0.00000000
   25         16
                                   No pseudopotential on this center.
   26         16
                                   No pseudopotential on this center.
   27         42           14
                                      F and up 
                                                     0      537.9667807       -0.04694920    0.00000000
                                                     1      147.8982938      -20.20800840    0.00000000
                                                     2       45.7358898     -106.21163020    0.00000000
                                                     2       13.2911467      -41.81073680    0.00000000
                                                     2        4.7059961       -4.20541030    0.00000000
                                      S - F
                                                     0      110.2991760        2.80637170    0.00000000
                                                     1       23.2014645       44.51620120    0.00000000
                                                     2        5.3530131       82.77852270    0.00000000
                                      P - F
                                                     0       63.2901397        4.94208760    0.00000000
                                                     1       23.3315302       25.86049760    0.00000000
                                                     2       24.6759423      132.47087420    0.00000000
                                                     2        4.6493040       57.31497940    0.00000000
                                      D - F
                                                     0      104.4839977        3.00545910    0.00000000
                                                     1       66.2307245       26.36378510    0.00000000
                                                     2       39.1283176      183.38491990    0.00000000
                                                     2       13.1164437       98.44530680    0.00000000
                                                     2        3.6280263       22.49013770    0.00000000
   28          6
                                   No pseudopotential on this center.
   29          8
                                   No pseudopotential on this center.
 ======================================================================================================
   550 basis functions,  1433 primitive gaussians,   588 cartesian basis functions
   214 alpha electrons      214 beta electrons
       nuclear repulsion energy      9880.4419703316 Hartrees.
 NAtoms=   29 NActive=   29 NUniq=   29 SFac= 1.00D+00 NAtFMM=   60 NAOKFM=F Big=F
 Integral buffers will be    131072 words long.
 Raffenetti 2 integral format.
 Two-electron integral symmetry is turned off.
 One-electron integrals computed using PRISM.
   1 Symmetry operations used in ECPInt.
 ECPInt:  NShTT=   14535 NPrTT=  116668 LenC2=   12526 LenP2D=   59159.
 LDataN:  DoStor=T MaxTD1= 5 Len=  102
 NBasis=   550 RedAO= T EigKep=  2.25D-04  NBF=   550
 NBsUse=   550 1.00D-06 EigRej= -1.00D+00 NBFU=   550
 Defaulting to unpruned grid for atomic number  42.
 Defaulting to unpruned grid for atomic number  42.
 Defaulting to unpruned grid for atomic number  42.
 Defaulting to unpruned grid for atomic number  42.
 Defaulting to unpruned grid for atomic number  42.
 Defaulting to unpruned grid for atomic number  42.
 Defaulting to unpruned grid for atomic number  42.
 Defaulting to unpruned grid for atomic number  42.
 Defaulting to unpruned grid for atomic number  42.
 ExpMin= 2.47D-02 ExpMax= 2.19D+04 ExpMxC= 3.30D+03 IAcc=3 IRadAn=         5 AccDes= 0.00D+00
 Harris functional with IExCor=  402 and IRadAn=       5 diagonalized for initial guess.
 HarFok:  IExCor=  402 AccDes= 0.00D+00 IRadAn=         5 IDoV= 1 UseB2=F ITyADJ=14
 ICtDFT=  3500011 ScaDFX=  1.000000  1.000000  1.000000  1.000000
 Defaulting to unpruned grid for atomic number  42.
 FoFCou: FMM=F IPFlag=           0 FMFlag=      100000 FMFlg1=           0
         NFxFlg=           0 DoJE=T BraDBF=F KetDBF=T FulRan=T
         wScrn=  0.000000 ICntrl=       500 IOpCl=  0 I1Cent=   200000004 NGrid=           0
         NMat0=    1 NMatS0=      1 NMatT0=    0 NMatD0=    1 NMtDS0=    0 NMtDT0=    0
 Symmetry not used in FoFCou.
 Requested convergence on RMS density matrix=1.00D-08 within 128 cycles.
 Requested convergence on MAX density matrix=1.00D-06.
 Requested convergence on             energy=1.00D-06.
 No special actions if energy rises.
 Defaulting to unpruned grid for atomic number  42.
 Defaulting to unpruned grid for atomic number  42.
 Defaulting to unpruned grid for atomic number  42.
 Defaulting to unpruned grid for atomic number  42.
 Defaulting to unpruned grid for atomic number  42.
 Defaulting to unpruned grid for atomic number  42.
 Defaulting to unpruned grid for atomic number  42.
 Defaulting to unpruned grid for atomic number  42.
 Defaulting to unpruned grid for atomic number  42.
 Defaulting to unpruned grid for atomic number  42.
 Defaulting to unpruned grid for atomic number  42.
 Defaulting to unpruned grid for atomic number  42.
 Defaulting to unpruned grid for atomic number  42.
 Defaulting to unpruned grid for atomic number  42.
 Defaulting to unpruned grid for atomic number  42.
 Defaulting to unpruned grid for atomic number  42.
 Defaulting to unpruned grid for atomic number  42.
 Defaulting to unpruned grid for atomic number  42.
 Defaulting to unpruned grid for atomic number  42.
 Defaulting to unpruned grid for atomic number  42.
 Defaulting to unpruned grid for atomic number  42.
 Defaulting to unpruned grid for atomic number  42.
 Defaulting to unpruned grid for atomic number  42.
 Defaulting to unpruned grid for atomic number  42.
 Defaulting to unpruned grid for atomic number  42.
 Defaulting to unpruned grid for atomic number  42.
 Defaulting to unpruned grid for atomic number  42.
 Defaulting to unpruned grid for atomic number  42.
 Defaulting to unpruned grid for atomic number  42.
 Defaulting to unpruned grid for atomic number  42.
 Defaulting to unpruned grid for atomic number  42.
 Defaulting to unpruned grid for atomic number  42.
 Defaulting to unpruned grid for atomic number  42.
 Defaulting to unpruned grid for atomic number  42.
 Defaulting to unpruned grid for atomic number  42.
 Defaulting to unpruned grid for atomic number  42.
 Defaulting to unpruned grid for atomic number  42.
 Defaulting to unpruned grid for atomic number  42.
 Defaulting to unpruned grid for atomic number  42.
 Defaulting to unpruned grid for atomic number  42.
 Defaulting to unpruned grid for atomic number  42.
 Defaulting to unpruned grid for atomic number  42.
 Defaulting to unpruned grid for atomic number  42.
 Defaulting to unpruned grid for atomic number  42.
 Defaulting to unpruned grid for atomic number  42.
 Defaulting to unpruned grid for atomic number  42.
 EnCoef did     1 forward-backward iterations
 EnCoef did   100 forward-backward iterations
 EnCoef did   100 forward-backward iterations
 EnCoef did   100 forward-backward iterations
 EnCoef did   100 forward-backward iterations
 EnCoef did   100 forward-backward iterations
 EnCoef did   100 forward-backward iterations
 EnCoef did     5 forward-backward iterations
 EnCoef did     7 forward-backward iterations
 EnCoef did     6 forward-backward iterations
 EnCoef did     8 forward-backward iterations
 EnCoef did     4 forward-backward iterations
 EnCoef did    11 forward-backward iterations
 EnCoef did     3 forward-backward iterations
 EnCoef did     5 forward-backward iterations
 EnCoef did     3 forward-backward iterations
 EnCoef did     2 forward-backward iterations
[...]
 05281,0.00008426,-0.00015860,0.00004671,0.00015853,-0.00005592,0.00001
 347,-0.00004114,-0.00058373,0.00042377,-0.00023859,-0.09482936,0.05255
 287,0.05155313,-0.00426755,0.00483935,-0.00541515,0.11519373,-0.008863
 50,-0.00976775,-0.01467587,0.00102026,-0.00031446,0.00239460,0.0039102
 5,-0.00192492,0.00365337,0.00318659,0.00238551,0.00348392,0.00154486,-
 0.00137491,-0.00513986,-0.00150022,0.00200025,-0.00112352,0.00004049,0
 .00000159,0.00018819,0.00012253,0.00015962,-0.00001367,-0.00020379,-0.
 00135548,0.00174644,0.00097146,-0.00036757,-0.00006236,-0.00024985,0.0
 0007864,-0.00015185,0.00082193,0.00088664,0.00049576,-0.00050728,0.000
 43359,0.00018386,0.00101402,0.01060488,0.00162307,0.00010199,-0.000280
 23,0.00015538,0.00022864,0.00009815,0.00008785,0.00001706,-0.00009371,
 0.00005975,0.00013200,-0.00042285,-0.00012485,0.00004141,0.00001194,0.
 00006649,0.00011904,0.00028698,0.00004756,0.04798890,-0.04791026,-0.03
 036057,0.00415125,-0.00309223,-0.00119908,-0.05376309,0.04993457,-0.00
 094889,-0.00084682,-0.04358453,0.00043439,0.00228370,-0.00142168,-0.00
 550193,0.00304131,-0.00093141,-0.00402859,-0.00185621,-0.00333577,0.00
 614267,-0.00258388,-0.00465655,0.00072214,-0.00208373,-0.00096060,-0.0
 0033251,-0.00003954,0.00000732,0.00026203,-0.00022400,-0.00002717,-0.0
 0053076,0.00129845,-0.00143099,-0.00040186,-0.00000856,0.00036360,-0.0
 0023241,-0.00007726,-0.00003076,0.00151815,0.00008984,-0.00220089,0.00
 022168,-0.00032824,0.00055885,0.00194626,0.00389031,-0.00067825,-0.000
 03124,-0.00010823,0.00048088,-0.00018083,0.00004839,-0.00002125,-0.000
 15897,-0.00006148,0.00002726,-0.00013547,0.00000024,-0.00001494,-0.000
 08321,-0.00000029,-0.00002093,-0.00043577,0.00019535,-0.00008428,0.059
 83646,-0.03984269,-0.06857005,-0.00234838,-0.00129510,0.00887939,-0.05
 629652,0.03830022,0.11764250,-0.00051317,0.00022409,-0.00436992,0.0013
 4737,-0.00305792,-0.00119203,-0.00044962,0.00041150,-0.00049090,-0.001
 10756,-0.00162293,0.00001355,-0.00083958,-0.00039080,0.00028201,-0.000
 93913,-0.00222739,-0.00473859,0.00128188,0.00203751,0.00323755,0.00070
 385,0.00120447,0.00261864,-0.00309899,0.00998880,0.00328794,-0.0238186
 1,-0.03609318,0.00320634,0.00009332,0.00028033,0.00188631,0.00111570,0
 .00320542,-0.00075050,-0.03168693,-0.01356233,0.01787128,0.00003427,-0
 .00026119,0.00002503,0.00063678,0.00016538,0.00164551,-0.00114245,-0.0
 0021588,0.00021694,-0.11855285,0.08539453,0.01413996,-0.00088869,0.000
 10350,-0.00040101,0.00104617,0.00023622,0.00104833,-0.00124321,0.00038
 712,-0.00107757,0.00126178,0.00087311,-0.00009739,-0.00002692,-0.00008
 289,0.00009980,0.00040597,-0.00067605,0.00042596,0.29170298,0.00197751
 ,-0.00163904,-0.00136623,-0.00261725,-0.00151227,-0.00174145,0.0006242
 5,-0.00036468,0.00096937,-0.00191524,-0.00133257,0.00349774,-0.0001796
 7,-0.00022352,0.00080227,0.00035066,-0.00537990,-0.00284976,-0.0029039
 2,-0.00331756,0.00247930,0.00021077,0.00218892,-0.00373489,0.00810276,
 0.00317860,0.01053455,-0.03335891,-0.12286364,0.02069375,0.00144934,-0
 .00220664,0.00224563,0.00245579,-0.00184010,-0.00075086,-0.00900024,0.
 02277446,-0.00532262,-0.00020850,0.00059308,-0.00037377,0.00045625,-0.
 00043226,0.00018523,0.00211862,-0.00233876,0.00256003,0.08638381,-0.08
 479930,-0.00235489,0.00029036,-0.00223864,-0.00212700,0.00034854,0.000
 24402,0.00069223,-0.00069971,0.00030318,-0.00051655,-0.00078630,-0.000
 91509,-0.00077136,0.00001309,0.00004917,-0.00005927,-0.00031445,0.0004
 6004,0.00028335,-0.03244626,0.24127496,0.00067611,-0.00084451,-0.00027
 521,-0.00210089,0.00088471,-0.00075258,0.00023744,0.00016996,0.0001529
 9,-0.00097835,-0.00036439,-0.00073101,0.00045553,-0.00039229,-0.000328
 04,0.00011712,0.00003608,-0.00202070,0.00177356,0.00034857,0.00108340,
 0.00220765,0.00040737,-0.00344864,0.00476454,0.01146050,-0.00489422,0.
 00589558,0.01840873,-0.01600136,0.00012685,-0.00061706,-0.00135531,-0.
 00197752,-0.00081760,-0.00026889,-0.00044865,0.00276736,-0.00577871,-0
 .00002441,0.00027706,-0.00025665,0.00203511,0.00013275,0.00114643,0.00
 262151,0.00072478,-0.00065936,0.01593049,-0.00944543,-0.01892940,0.001
 31417,0.00023901,0.00019294,-0.00113079,-0.00055504,-0.00079780,0.0000
 9203,-0.00015447,0.00023257,-0.00067281,0.00071743,-0.00012108,0.00023
 913,-0.00044555,0.00029733,0.00040671,-0.00011134,0.00020005,-0.069183
 23,-0.01483497,0.34935993,0.00017130,-0.00056676,-0.00146517,0.0002153
 5,0.00071858,-0.00054851,0.00002824,-0.00007899,0.00001661,-0.00036950
 ,0.00030972,0.00008040,-0.00001505,-0.00001433,0.00017785,-0.00001059,
 0.00000545,-0.00019222,-0.00041296,-0.00028237,-0.00036764,0.00050879,
 0.00011813,-0.00074820,0.00001203,-0.00231842,0.00541358,-0.00096508,-
 0.00122669,0.00150696,-0.00001743,-0.00011507,-0.00066506,0.00033005,-
 0.00028107,0.00019918,0.00324737,0.00109627,-0.00093088,0.00002927,0.0
 0002652,-0.00001952,0.00017720,0.00004405,-0.00019765,-0.00027477,0.00
 000725,0.00016039,-0.00385644,-0.00000486,0.00495663,0.00016923,-0.000
 01623,0.00036787,-0.00024384,-0.00008007,-0.00004203,-0.00009122,0.000
 07897,-0.00007973,-0.00024719,0.00025928,0.00002962,0.00009868,-0.0001
 8635,0.00012927,0.00027533,-0.00000065,0.00012588,-0.05259499,-0.00032
 183,0.08362925,0.04703420,-0.00012409,0.00034409,0.00066093,0.00038266
 ,-0.00027954,0.00039575,-0.00002402,0.00004372,0.00000520,0.00034378,0
 .00005457,-0.00009902,-0.00006368,0.00000354,-0.00009901,-0.00028605,0
 .00030105,0.00022914,0.00007789,0.00028916,-0.00018323,-0.00021195,-0.
 00037129,0.00005897,-0.00139723,0.00041556,-0.00265001,-0.00108611,0.0
 0220573,0.00573025,-0.00028506,0.00006018,-0.00014963,-0.00001139,0.00
 041619,-0.00028290,0.00120516,-0.00001369,0.00049424,-0.00003344,-0.00
 009704,0.00017746,0.00004316,-0.00008388,0.00011785,-0.00000854,0.0000
 9507,0.00001177,-0.00296021,0.00358009,-0.00585043,-0.00022417,0.00003
 937,0.00001782,0.00001342,0.00000611,-0.00001647,0.00010988,-0.0000060
 9,0.00005171,0.00027515,0.00007160,-0.00007451,-0.00001408,0.00001204,
 -0.00000536,-0.00015017,-0.00002467,-0.00004870,-0.00065913,-0.0204176
 2,0.01107035,0.00258431,0.01260430,-0.00025108,-0.00002347,-0.00004132
 ,0.00036708,-0.00019630,0.00014829,-0.00008793,0.00003419,-0.00031464,
 0.00046016,0.00011824,0.00014878,-0.00019816,0.00004738,0.00011837,0.0
 0027373,0.00025515,0.00118640,-0.00079588,0.00051871,0.00000846,-0.000
 23834,-0.00022455,0.00087659,-0.00296846,0.00097751,-0.00281035,0.0014
 8832,0.00476274,-0.00054658,0.00000836,0.00050934,0.00062832,0.0006543
 9,-0.00006270,0.00011380,0.00823190,0.00131939,-0.00421489,-0.00008093
 ,-0.00005867,0.00004737,-0.00075470,0.00006469,-0.00024442,-0.00068800
 ,-0.00048358,0.00069898,0.00826187,-0.00667897,0.00226540,-0.00165827,
 -0.00084420,0.00027226,0.00079977,0.00030046,0.00036147,-0.00019137,0.
 00008103,-0.00024191,0.00062378,-0.00045323,0.00005461,-0.00020318,0.0
 0036957,-0.00023238,-0.00011843,0.00001447,-0.00003117,0.08038402,0.00
 900258,-0.23972077,-0.09120291,-0.00842595,0.24683838,0.00040088,-0.00
 209634,-0.00132665,0.00129293,0.00191271,-0.00213480,0.00039263,0.0000
 2442,0.00039607,-0.00068955,-0.00327112,0.00218614,0.00008938,0.000327
 81,-0.00008427,0.00047801,0.00047081,0.00042624,-0.00003250,-0.0000559
 3,-0.00013408,-0.00530922,-0.00456261,0.00375567,-0.00888078,0.0054916
 0,0.00150931,-0.00035996,-0.00214256,-0.00091690,0.00291237,0.00321464
 ,0.00072150,-0.00080898,-0.00493834,0.00369252,-0.00040817,0.00165306,
 0.00027487,0.00032361,0.00015236,-0.00011665,-0.00410720,-0.00054515,-
 0.00654644,0.00031885,-0.00005548,-0.00001683,-0.00610100,0.00133711,-
 0.00157657,0.00021704,0.00021009,-0.00050477,0.00002722,0.00000821,-0.
 00005799,0.00049385,-0.00046891,0.00032245,-0.00076493,-0.00001762,0.0
 0032729,-0.00004310,0.00005696,-0.00004211,0.00057874,0.00011005,0.000
 28638,-0.05069215,-0.02206825,-0.04105615,0.00478738,0.00336543,-0.002
 34712,0.11445282,-0.00236036,-0.00003572,0.00086613,-0.00093198,0.0002
 5644,0.00144471,-0.00037545,0.00037327,-0.00004761,-0.00098579,-0.0013
 0042,0.00006962,0.00008733,0.00005968,-0.00046053,-0.00026930,-0.00136
 279,0.00244593,-0.00003247,0.00015883,-0.00019873,0.00080865,0.0002179
 3,0.00077700,-0.00247719,-0.01631397,0.00165341,-0.00341920,0.00059192
 ,-0.00341788,0.00196570,-0.00218050,-0.00004972,-0.00063034,-0.0021521
 1,0.00322643,-0.00078862,-0.00047873,0.00124516,-0.00002652,0.00020538
 ,-0.00046888,0.00224253,0.00263298,0.00476630,0.00013572,0.00017790,0.
 00016386,-0.00060964,0.00259122,0.00308303,0.00004635,-0.00016331,0.00
 000554,0.00000802,-0.00003056,0.00000121,0.00007615,0.00015706,-0.0000
 0781,0.00046338,0.00047228,-0.00053709,0.00003588,-0.00012336,0.000046
 65,-0.00019789,0.00001021,-0.00015748,-0.02199770,-0.02309395,-0.02259
 249,0.00149596,0.00035934,-0.00099323,-0.02402834,0.10524036,-0.001215
 75,0.00069572,0.00000225,0.00208538,0.00481100,-0.00388528,0.00026736,
 0.00000791,0.00028416,0.00284559,0.00361670,-0.00287161,0.00025803,0.0
 0022410,-0.00026627,0.00107794,0.00117067,0.00109019,0.00007385,-0.000
 08140,-0.00002025,0.00135138,0.00199231,-0.00067857,-0.00275003,-0.008
 43701,-0.00362763,-0.00035731,-0.00302567,0.00166192,0.00087271,0.0022
 2036,-0.00001036,-0.00210311,0.00074072,0.00167192,0.00081515,0.001011
 93,-0.00106086,0.00024589,0.00000671,-0.00028003,-0.00068030,0.0022777
 8,0.00122290,0.00037838,0.00008321,-0.00004610,-0.00433050,0.00401980,
 0.00241582,0.00014443,-0.00003668,-0.00011278,-0.00008179,-0.00002545,
 -0.00004419,0.00019795,-0.00000452,0.00008905,-0.00052133,0.00013242,0
 .00067595,-0.00001301,0.00001211,0.00000727,0.00057439,-0.00002819,-0.
 00015955,-0.03964908,-0.01806330,-0.05787718,-0.00323798,-0.00138797,-
 0.00458932,0.03556199,0.01661201,0.07608722,-0.00516424,-0.00251484,0.
 00092208,-0.00053343,-0.00003463,0.00186728,-0.00062794,0.00013175,0.0
 0005238,-0.00067295,0.00232307,0.00123055,-0.00121064,-0.00416242,0.00
 045584,0.00074877,0.00160668,0.00139043,0.00022925,0.00006618,-0.00010
 941,-0.00187431,0.00010439,-0.00013279,-0.02180584,-0.01752818,-0.0005
 7249,-0.00097771,-0.00141114,0.00196792,-0.02846636,-0.03837954,0.0018
 9371,0.01066340,0.03342820,-0.01833865,-0.00128156,-0.00030102,-0.0003
 6093,-0.00038619,-0.00352648,0.00159367,-0.07893591,-0.00713017,-0.060
 18842,-0.00007756,0.00004391,-0.00017845,0.00097718,-0.00044051,0.0000
 3182,0.00023492,-0.00061124,0.00026441,-0.00005784,0.00003052,-0.00008
 661,0.00010809,-0.00000917,0.00045865,0.00183236,0.00165032,0.00126086
 ,-0.00026188,0.00022314,0.00013471,-0.00004617,-0.00020638,-0.00019024
 ,-0.01477329,0.00195678,-0.00345257,0.00327385,-0.00089239,-0.00137344
 ,-0.04400259,0.04783209,0.00988761,0.26996508,-0.00191154,-0.00503853,
 -0.00348711,0.00266947,0.00022054,-0.00276343,-0.00026152,0.00052926,0
 .00046950,-0.00268603,-0.00264994,0.00256417,-0.00053044,-0.00040922,0
 .00248547,-0.00163474,0.00163899,-0.00139162,-0.00010359,-0.00012947,0
 .00002720,-0.00010923,-0.00702616,-0.00039577,-0.00117579,0.02224864,0
 .00222803,0.00130932,-0.00228751,-0.00023882,-0.03895943,-0.10364537,-
 0.00189940,0.00943727,-0.00570365,0.02871737,-0.00204001,0.00122369,-0
 .00014796,-0.00109468,-0.00105450,0.00094072,-0.00098134,-0.01663396,0
 .00110393,0.00050339,0.00017729,0.00021824,-0.00011408,0.00040038,-0.0
 0009635,0.00046705,-0.00085066,-0.00074937,0.00011055,0.00008447,-0.00
 000906,0.00061049,-0.00033740,0.00081475,0.00101911,0.00018098,0.00094
 608,-0.00059276,0.00075712,0.00005983,0.00110611,-0.00052781,0.0000783
 9,0.00958316,0.00609598,0.00149308,-0.00155364,0.00027466,0.00038075,0
 .04306346,-0.07267838,-0.00445054,-0.01494282,0.20276358,-0.00151850,0
 .00188016,0.00399107,0.00383768,-0.00071148,-0.00377412,-0.00029248,0.
 00012903,-0.00073017,-0.00063780,-0.00043567,0.00004645,0.00465501,-0.
 00072288,0.00233017,-0.00149460,-0.00182810,-0.00213855,-0.00039902,-0
 .00006318,0.00016634,0.00440474,-0.00090541,0.00087810,-0.00207773,0.0
 0413352,0.00720912,0.00069727,0.00047297,-0.00020763,0.00473788,-0.001
 62822,-0.00826382,0.00018675,0.04083526,-0.06864741,-0.00100288,-0.002
 36971,0.00012238,-0.00300862,-0.00199605,0.00130357,-0.07261514,-0.003
 21296,-0.08397001,-0.00006201,0.00032580,0.00061495,-0.00009625,-0.000
 09182,-0.00040950,-0.00023545,-0.00053248,-0.00110425,0.00048698,0.000
 21864,0.00013990,0.00019978,0.00027407,0.00031553,0.00011736,-0.002471
 35,0.00238579,-0.00017795,0.00055235,-0.00006662,-0.00059987,0.0004045
 2,0.00015777,-0.00750478,0.00146915,0.00016190,0.00213517,0.00030563,0
 .00055006,0.00208221,-0.00473423,-0.01171816,0.00758085,-0.02933469,0.
 23767038,0.00149961,0.00147688,0.00424107,-0.00043941,-0.00142067,0.00
 111204,0.00005592,-0.00019111,-0.00052404,0.00000196,-0.00085505,-0.00
 136347,0.00206902,0.00083206,0.00036181,-0.00021265,0.00060903,0.00174
 504,0.00008168,0.00009933,-0.00023742,-0.00033198,0.00010050,0.0005860
 2,0.00520785,0.00122930,0.00159438,-0.00032339,0.00043355,-0.00065638,
 0.00101566,-0.00152394,-0.00064220,-0.00806918,-0.00735966,0.00489840,
 0.00106959,0.00027176,0.00001997,-0.00052146,0.00075620,-0.00021053,0.
 00608993,0.00179031,-0.00517258,-0.00004895,-0.00031177,-0.00002363,0.
 00006105,-0.00018869,-0.00009954,-0.00107347,-0.00036276,-0.00010670,0
 .00104501,0.00040080,0.00021375,0.00031822,-0.00009719,0.00007640,0.00
 010238,-0.00267529,-0.00037013,-0.00039479,0.00106413,-0.00053897,-0.0
 0097060,0.00065730,-0.00023760,0.00439434,-0.00007614,-0.00442814,-0.0
 0268405,0.00003274,0.00417016,-0.00727111,0.00513035,-0.00119401,-0.06
 503481,-0.00130518,0.02567288,0.59180777,0.00080443,0.00129866,0.00023
 132,-0.00119383,-0.00022015,0.00130508,-0.00006804,0.00009898,0.000017
 28,0.00075152,0.00089526,-0.00060849,0.00027668,0.00050971,0.00068040,
 0.00188900,-0.00216929,-0.00071657,-0.00010198,-0.00001839,0.00018630,
 -0.00061860,0.00411577,-0.00079009,-0.00010121,-0.01252352,0.00321377,
 -0.00112231,0.00071883,-0.00013876,-0.00655101,0.00247317,0.00535562,-
 0.00252381,-0.00142030,-0.00203394,0.00018901,0.00098086,0.00054817,-0
 .00018920,0.00078281,0.00062598,-0.00069110,-0.00076985,-0.00147099,-0
 .00009708,-0.00016827,-0.00023617,-0.00037709,-0.00029073,0.00023513,-
 0.00032366,0.00056085,0.00031269,-0.00006009,-0.00004806,0.00000462,-0
 .00034753,0.00018857,-0.00047628,-0.00072977,-0.00092482,0.00006021,0.
 00007051,-0.00008670,-0.00007210,-0.00024689,0.00017497,0.00009285,-0.
 00122470,-0.00347728,0.00253233,0.00028312,0.00010522,-0.00024220,0.00
 516458,0.00881125,-0.00489361,0.00660656,-0.02909298,-0.00651613,0.030
 24554,0.06224870,-0.00035998,-0.00070218,-0.00029165,-0.00053838,0.000
 22940,0.00034024,-0.00044599,0.00030888,0.00035836,0.00041568,0.001182
 58,-0.00089368,-0.00159342,-0.00084720,-0.00102540,-0.00059528,0.00116
 489,0.00303159,0.00038048,0.00013268,-0.00035426,-0.00206705,0.0005775
 8,0.00026710,0.00828610,-0.00333516,-0.00776508,0.00000279,-0.00105727
 ,0.00065233,-0.00405513,0.00232754,0.00203861,0.00249415,-0.00590219,0
 .01121232,0.00176076,-0.00007670,0.00054694,0.00042223,0.00178857,-0.0
 0123118,-0.00111603,0.00348092,-0.01079158,-0.00048216,0.00002247,-0.0
 0010905,-0.00032972,0.00020458,0.00022573,0.00082208,0.00045030,0.0007
 5545,-0.00084065,-0.00033535,-0.00019570,-0.00009641,-0.00005448,-0.00
 012047,0.00029145,0.00149884,-0.00331351,0.00073061,-0.00120783,0.0005
 9928,-0.00041636,0.00005639,-0.00011232,-0.00190493,-0.00028905,0.0049
 4753,0.00239771,-0.00003338,-0.00416038,0.00815684,-0.00278955,0.00031
 105,0.01421373,0.00259858,-0.05165961,-0.54736900,-0.02633562,0.628262
 72,-0.00037888,-0.00060262,-0.00167768,0.00035975,0.00042642,-0.000707
 10,-0.00009852,0.00012340,0.00025470,0.00015513,0.00032454,0.00055881,
 -0.00065713,-0.00018019,-0.00007893,0.00027785,-0.00056314,-0.00091070
 ,-0.00003691,-0.00004043,0.00008981,0.00048585,0.00034601,-0.00021531,
 -0.00443813,-0.00138022,0.00009178,0.00006063,-0.00023769,0.00033541,-
 0.00027024,-0.00035721,-0.00015157,0.00232987,0.00127911,-0.00054043,-
 0.00011186,-0.00032068,0.00003553,0.00024506,-0.00002877,0.00011507,0.
 00058729,-0.00056456,0.00070491,-0.00010063,0.00016799,0.00002857,-0.0
 0013727,0.00009948,0.00006991,0.00068906,0.00034298,0.00014967,-0.0006
 8395,-0.00026768,-0.00013577,-0.00021312,0.00007996,-0.00011513,-0.000
 24133,0.00134657,-0.00031137,0.00037148,-0.00075899,0.00041766,0.00031
 368,-0.00020921,0.00015317,-0.00165628,0.00015815,0.00293074,0.0014248
 3,-0.00000187,-0.00256532,0.00270551,-0.00119734,-0.00050386,-0.021841
 70,0.00011745,0.03492852,-0.52744415,-0.02971303,0.52183587,0.54830410
 ,-0.00032233,-0.00047228,-0.00022209,0.00042160,0.00010369,-0.00049607
 ,0.00000553,-0.00000311,0.00001849,-0.00024319,-0.00024921,0.00018926,
 -0.00017095,-0.00011319,-0.00023248,-0.00065652,0.00063250,0.00020903,
 0.00002854,0.00000775,-0.00005258,0.00023641,-0.00126532,0.00026790,-0
 .00023920,0.00377321,-0.00090647,0.00039224,-0.00024851,0.00005560,0.0
 0187604,-0.00001013,-0.00167073,0.00105852,0.00060069,0.00107472,-0.00
 008604,-0.00035408,-0.00014538,0.00002697,-0.00020164,-0.00027789,-0.0
 0006011,0.00016325,0.00037287,0.00004220,0.00007073,0.00007922,0.00008
 468,0.00008187,-0.00007067,0.00013773,-0.00017873,-0.00009427,-0.00001
 111,0.00000161,-0.00000591,0.00010129,-0.00005085,0.00014077,0.0002108
 9,0.00033600,-0.00000550,-0.00000252,-0.00000905,0.00003472,0.00010249
 ,-0.00007073,-0.00004018,0.00042319,0.00123042,-0.00049495,0.00001972,
 0.00001224,-0.00006917,-0.00231263,-0.00240225,0.00079888,-0.00391268,
 0.01146994,0.00655327,-0.02876231,-0.03275328,0.02694174,0.03161156,0.
 01989850,0.00011284,0.00025036,0.00045927,-0.00004210,-0.00018226,0.00
 029352,0.00017804,-0.00015055,-0.00022131,-0.00029524,-0.00053748,0.00
 022982,0.00059851,0.00028677,0.00044573,-0.00009234,0.00014809,-0.0005
 3001,-0.00011382,-0.00003270,0.00007852,0.00029280,-0.00070695,-0.0000
 3138,0.00044688,0.00300511,0.00141539,-0.00004526,0.00048617,-0.000404
 17,0.00135291,0.00041240,0.00001877,-0.00073286,0.00209024,-0.00367523
 ,-0.00070587,0.00022879,-0.00033676,-0.00027092,-0.00061735,0.00023449
 ,-0.00113221,-0.00086525,0.00221209,0.00025256,-0.00008744,0.00002162,
 0.00026522,-0.00006920,-0.00009957,-0.00063278,-0.00039933,-0.00034175
 ,0.00065261,0.00026184,0.00013986,0.00015101,-0.00004191,0.00013944,0.
 00017958,-0.00109999,0.00129235,-0.00046530,0.00080766,-0.00043288,0.0
 0006903,0.00002933,-0.00004454,0.00097078,-0.00025924,-0.00355818,-0.0
 0162887,-0.00002049,0.00283058,-0.00283813,0.00004825,0.00172843,0.039
 77748,-0.00016194,-0.02535364,0.51848244,0.02912920,-0.57152538,-0.554
 78699,-0.03195213,0.59501491\\-0.00001185,0.00000541,0.00004640,0.0000
 3690,-0.00000363,0.00000229,-0.00000942,0.00000629,-0.00000974,-0.0000
 1461,-0.00000249,-0.00000864,0.00000656,0.00000327,-0.00000871,0.00000
 630,-0.00000323,0.00000393,-0.00000792,-0.00000244,-0.00000459,0.00001
 204,-0.00001631,-0.00000027,-0.00008552,0.00004620,-0.00000173,-0.0000
 0452,-0.00000113,-0.00000536,0.00002451,0.00000025,0.00000272,-0.00004
 313,-0.00003192,-0.00003639,0.00003666,0.00001038,0.00003132,0.0000117
 7,-0.00000148,0.00001879,0.00000550,-0.00000392,0.00000405,-0.00000432
 ,-0.00000216,-0.00001236,-0.00000978,-0.00000731,-0.00001557,0.0000011
 5,-0.00001307,-0.00000714,-0.00000033,0.00000514,0.00000007,0.00001009
 ,-0.00001525,-0.00000104,0.00000905,0.00003747,-0.00001203,-0.00000082
 ,-0.00000980,-0.00000922,-0.00001300,0.00000132,0.00000440,0.00001337,
 0.00000874,0.00004288,0.00000105,-0.00000537,-0.00000060,0.00002447,-0
 .00000356,-0.00001557,0.00000599,-0.00000467,-0.00001778,-0.00001077,0
 .00000075,0.00002847,0.00001055,0.00000253,-0.00001856\\\@
 The archive entry for this job was punched.


 SCIENCE IS LONG AND LIFE IS SHORT.

                     DON MOSER IN THE FEBRUARY 1979 SMITHSONIAN
 Job cpu time:       0 days  8 hours 38 minutes 33.9 seconds.
 Elapsed time:       0 days  0 hours 11 minutes 19.8 seconds.
 File lengths (MBytes):  RWF=   1424 Int=      0 D2E=      0 Chk=     29 Scr=      2
 Normal termination of Gaussian 16 at Sat Dec 10 14:39:20 2022.
