 Entering Gaussian System, Link 0=g16
 Initial command:
 /home/chesagar/softwares/G16_AVX2//g16/l1.exe "/home/chesagar/scratch/Gau-195479.inp" -scrdir="/home/chesagar/scratch/"
 Entering Link 1 = /home/chesagar/softwares/G16_AVX2//g16/l1.exe PID=    195482.
  
 Copyright (c) 1988-2019, Gaussian, Inc.  All Rights Reserved.
  
 This is part of the Gaussian(R) 16 program.  It is based on
 the Gaussian(R) 09 system (copyright 2009, Gaussian, Inc.),
 the Gaussian(R) 03 system (copyright 2003, Gaussian, Inc.),
 the Gaussian(R) 98 system (copyright 1998, Gaussian, Inc.),
 the Gaussian(R) 94 system (copyright 1995, Gaussian, Inc.),
 the Gaussian 92(TM) system (copyright 1992, Gaussian, Inc.),
 the Gaussian 90(TM) system (copyright 1990, Gaussian, Inc.),
 the Gaussian 88(TM) system (copyright 1988, Gaussian, Inc.),
 the Gaussian 86(TM) system (copyright 1986, Carnegie Mellon
 University), and the Gaussian 82(TM) system (copyright 1983,
 Carnegie Mellon University). Gaussian is a federally registered
 trademark of Gaussian, Inc.
  
 This software contains proprietary and confidential information,
 including trade secrets, belonging to Gaussian, Inc.
  
 This software is provided under written license and may be
 used, copied, transmitted, or stored only in accord with that
 written license.
  
 The following legend is applicable only to US Government
 contracts under FAR:
  
                    RESTRICTED RIGHTS LEGEND
  
 Use, reproduction and disclosure by the US Government is
 subject to restrictions as set forth in subparagraphs (a)
 and (c) of the Commercial Computer Software - Restricted
 Rights clause in FAR 52.227-19.
  
 Gaussian, Inc.
 340 Quinnipiac St., Bldg. 40, Wallingford CT 06492
  
  
 ---------------------------------------------------------------
 Warning -- This program may not be used in any manner that
 competes with the business of Gaussian, Inc. or will provide
 assistance to any competitor of Gaussian, Inc.  The licensee
 of this program is prohibited from giving any competitor of
 Gaussian, Inc. access to this program.  By using this program,
 the user acknowledges that Gaussian, Inc. is engaged in the
 business of creating and licensing software in the field of
 computational chemistry and represents and warrants to the
 licensee that it is not a competitor of Gaussian, Inc. and that
 it will not use this program in any manner prohibited above.
 ---------------------------------------------------------------
  

 Cite this work as:
 Gaussian 16, Revision C.01,
 M. J. Frisch, G. W. Trucks, H. B. Schlegel, G. E. Scuseria, 
 M. A. Robb, J. R. Cheeseman, G. Scalmani, V. Barone, 
 G. A. Petersson, H. Nakatsuji, X. Li, M. Caricato, A. V. Marenich, 
 J. Bloino, B. G. Janesko, R. Gomperts, B. Mennucci, H. P. Hratchian, 
 J. V. Ortiz, A. F. Izmaylov, J. L. Sonnenberg, D. Williams-Young, 
 F. Ding, F. Lipparini, F. Egidi, J. Goings, B. Peng, A. Petrone, 
 T. Henderson, D. Ranasinghe, V. G. Zakrzewski, J. Gao, N. Rega, 
 G. Zheng, W. Liang, M. Hada, M. Ehara, K. Toyota, R. Fukuda, 
 J. Hasegawa, M. Ishida, T. Nakajima, Y. Honda, O. Kitao, H. Nakai, 
 T. Vreven, K. Throssell, J. A. Montgomery, Jr., J. E. Peralta, 
 F. Ogliaro, M. J. Bearpark, J. J. Heyd, E. N. Brothers, K. N. Kudin, 
 V. N. Staroverov, T. A. Keith, R. Kobayashi, J. Normand, 
 K. Raghavachari, A. P. Rendell, J. C. Burant, S. S. Iyengar, 
 J. Tomasi, M. Cossi, J. M. Millam, M. Klene, C. Adamo, R. Cammi, 
 J. W. Ochterski, R. L. Martin, K. Morokuma, O. Farkas, 
 J. B. Foresman, and D. J. Fox, Gaussian, Inc., Wallingford CT, 2019.
 
 ******************************************
 Gaussian 16:  ES64L-G16RevC.01  3-Jul-2019
                10-Dec-2022 
 ******************************************
 %nprocshared=46
 Will use up to   46 processors via shared memory.
 %mem=100GB
 ---------------------------------------
 # opt freq b3lyp/gen nosymm pseudo=read
 ---------------------------------------
 1/18=20,19=15,26=3,38=1/1,3;
 2/9=110,12=2,15=1,17=6,18=5,40=1/2;
 3/5=7,11=2,16=1,17=8,25=1,30=1,71=1,74=-5/1,2,3;
 4//1;
 5/5=2,38=5/2;
 6/7=2,8=2,9=2,10=2,28=1/1;
 7/30=1/1,2,3,16;
 1/18=20,19=15,26=3/3(2);
 2/9=110,15=1/2;
 99//99;
 2/9=110,15=1/2;
 3/5=7,6=1,11=2,16=1,17=8,25=1,30=1,71=1,74=-5,82=7/1,2,3;
 4/5=5,16=3,69=1/1;
 5/5=2,38=5/2;
 7/30=1/1,2,3,16;
 1/18=20,19=15,26=3/3(-5);
 2/9=110,15=1/2;
 6/7=2,8=2,9=2,10=2,19=2,28=1/1;
 99/9=1/99;
 -------------------
 Title Card Required
 -------------------
 Symbolic Z-matrix:
 Charge =  0 Multiplicity = 1
 42                    0.32206   1.85129   12.15789 
 16                    1.29199   3.98188   12.03076 
 16                   -1.71568   2.22988   13.19325 
 16                   -0.45172   1.13006   10.03098 
 16                    2.19266   0.26695   11.61895 
 42                   -2.20788   2.51975   10.85 
 16                   -3.09933   1.86449   8.60282 
 16                   -1.48512   4.69215   10.6874 
 42                    0.55414   3.3783    9.76313 
 16                   -0.4201    3.26048   7.37728 
 16                    2.37976   1.9976    8.90278 
 42                    2.97135   2.62998   11.15431 
 42                   -2.34135   4.21715   8.59664 
 16                    4.35667   2.64243   13.23211 
 16                    4.52142   4.41005   10.54547 
 16                   -4.50058   5.19759   8.78692 
 16                   -1.6874    6.56186   7.90161 
 42                   -4.83856   3.04924   9.50326 
 16                   -6.68875   2.2832    8.79069 
 16                   -4.52065   2.90741   11.72529 
 42                    2.94474   0.95886   13.68756 
 16                    3.92154  -0.59155   14.7587 
 16                    1.1034    1.67617   14.67168 
 42                    0.21068   5.50797   7.38335 
 16                    1.19466   6.37863   5.68842 
 16                    1.43279   5.7582    9.34331 
 42                    3.11833   4.24284   8.77167 
 16                    3.22164   3.48157   6.23595 
 1                     3.69286   4.49373   5.47785 
 1                     4.39105   2.79786   6.22044 
 

 GradGradGradGradGradGradGradGradGradGradGradGradGradGradGradGradGradGrad
 Berny optimization.
 Initialization pass.
                           ----------------------------
                           !    Initial Parameters    !
                           ! (Angstroms and Degrees)  !
 --------------------------                            --------------------------
 ! Name  Definition              Value          Derivative Info.                !
 --------------------------------------------------------------------------------
 ! R1    R(1,2)                  2.3444         estimate D2E/DX2                !
 ! R2    R(1,3)                  2.3168         estimate D2E/DX2                !
 ! R3    R(1,4)                  2.3754         estimate D2E/DX2                !
 ! R4    R(1,5)                  2.5099         estimate D2E/DX2                !
 ! R5    R(1,6)                  2.9254         estimate D2E/DX2                !
 ! R6    R(1,9)                  2.8496         estimate D2E/DX2                !
 ! R7    R(1,12)                 2.9381         estimate D2E/DX2                !
 ! R8    R(1,23)                 2.6382         estimate D2E/DX2                !
 ! R9    R(2,9)                  2.4599         estimate D2E/DX2                !
 ! R10   R(2,12)                 2.3272         estimate D2E/DX2                !
 ! R11   R(3,6)                  2.4119         estimate D2E/DX2                !
 ! R12   R(4,6)                  2.3845         estimate D2E/DX2                !
 ! R13   R(4,9)                  2.4775         estimate D2E/DX2                !
 ! R14   R(5,12)                 2.531          estimate D2E/DX2                !
 ! R15   R(5,21)                 2.3073         estimate D2E/DX2                !
 ! R16   R(6,7)                  2.5048         estimate D2E/DX2                !
 ! R17   R(6,8)                  2.2952         estimate D2E/DX2                !
 ! R18   R(6,9)                  3.0898         estimate D2E/DX2                !
 ! R19   R(6,13)                 2.8243         estimate D2E/DX2                !
 ! R20   R(6,18)                 3.0024         estimate D2E/DX2                !
 ! R21   R(6,20)                 2.5031         estimate D2E/DX2                !
 ! R22   R(7,13)                 2.4718         estimate D2E/DX2                !
 ! R23   R(7,18)                 2.289          estimate D2E/DX2                !
 ! R24   R(8,9)                  2.596          estimate D2E/DX2                !
 ! R25   R(8,13)                 2.3087         estimate D2E/DX2                !
 ! R26   R(9,10)                 2.5798         estimate D2E/DX2                !
 ! R27   R(9,11)                 2.4453         estimate D2E/DX2                !
 ! R28   R(9,12)                 2.8876         estimate D2E/DX2                !
 ! R29   R(9,26)                 2.5714         estimate D2E/DX2                !
 ! R30   R(9,27)                 2.8819         estimate D2E/DX2                !
 ! R31   R(10,13)                2.4685         estimate D2E/DX2                !
 ! R32   R(10,24)                2.3343         estimate D2E/DX2                !
 ! R33   R(11,12)                2.4123         estimate D2E/DX2                !
 ! R34   R(11,27)                2.3672         estimate D2E/DX2                !
 ! R35   R(12,14)                2.4973         estimate D2E/DX2                !
 ! R36   R(12,15)                2.4376         estimate D2E/DX2                !
 ! R37   R(12,21)                3.0349         estimate D2E/DX2                !
 ! R38   R(12,27)                2.881          estimate D2E/DX2                !
 ! R39   R(13,16)                2.379          estimate D2E/DX2                !
 ! R40   R(13,17)                2.5315         estimate D2E/DX2                !
 ! R41   R(13,18)                2.9021         estimate D2E/DX2                !
 ! R42   R(13,24)                3.1066         estimate D2E/DX2                !
 ! R43   R(14,21)                2.244          estimate D2E/DX2                !
 ! R44   R(15,27)                2.2678         estimate D2E/DX2                !
 ! R45   R(16,18)                2.2897         estimate D2E/DX2                !
 ! R46   R(17,24)                2.232          estimate D2E/DX2                !
 ! R47   R(18,19)                2.1255         estimate D2E/DX2                !
 ! R48   R(18,20)                2.2491         estimate D2E/DX2                !
 ! R49   R(21,22)                2.1226         estimate D2E/DX2                !
 ! R50   R(21,23)                2.2076         estimate D2E/DX2                !
 ! R51   R(24,25)                2.1445         estimate D2E/DX2                !
 ! R52   R(24,26)                2.3233         estimate D2E/DX2                !
 ! R53   R(26,27)                2.3375         estimate D2E/DX2                !
 ! R54   R(27,28)                2.6495         estimate D2E/DX2                !
 ! R55   R(28,29)                1.3495         estimate D2E/DX2                !
 ! R56   R(28,30)                1.3547         estimate D2E/DX2                !
 ! A1    A(2,1,3)              103.8632         estimate D2E/DX2                !
 ! A2    A(2,1,4)              111.2319         estimate D2E/DX2                !
 ! A3    A(2,1,5)              104.6954         estimate D2E/DX2                !
 ! A4    A(2,1,6)               97.2319         estimate D2E/DX2                !
 ! A5    A(2,1,23)              89.3962         estimate D2E/DX2                !
 ! A6    A(3,1,4)               99.3951         estimate D2E/DX2                !
 ! A7    A(3,1,5)              148.7164         estimate D2E/DX2                !
 ! A8    A(3,1,9)              111.0766         estimate D2E/DX2                !
 ! A9    A(3,1,12)             154.4788         estimate D2E/DX2                !
 ! A10   A(3,1,23)              81.1133         estimate D2E/DX2                !
 ! A11   A(4,1,5)               81.8862         estimate D2E/DX2                !
 ! A12   A(4,1,12)              93.9198         estimate D2E/DX2                !
 ! A13   A(4,1,23)             158.3513         estimate D2E/DX2                !
 ! A14   A(5,1,6)              133.8497         estimate D2E/DX2                !
 ! A15   A(5,1,9)               95.5728         estimate D2E/DX2                !
 ! A16   A(5,1,23)              86.6736         estimate D2E/DX2                !
 ! A17   A(6,1,12)             124.5094         estimate D2E/DX2                !
 ! A18   A(6,1,23)             134.209          estimate D2E/DX2                !
 ! A19   A(9,1,23)             144.3093         estimate D2E/DX2                !
 ! A20   A(12,1,23)             94.3592         estimate D2E/DX2                !
 ! A21   A(1,5,21)              82.0174         estimate D2E/DX2                !
 ! A22   A(1,6,7)              130.4749         estimate D2E/DX2                !
 ! A23   A(1,6,8)               88.603          estimate D2E/DX2                !
 ! A24   A(1,6,13)             122.3371         estimate D2E/DX2                !
 ! A25   A(1,6,20)             132.6971         estimate D2E/DX2                !
 ! A26   A(3,6,4)               96.509          estimate D2E/DX2                !
 ! A27   A(3,6,7)              155.899          estimate D2E/DX2                !
 ! A28   A(3,6,8)               96.795          estimate D2E/DX2                !
 ! A29   A(3,6,9)              101.1116         estimate D2E/DX2                !
 ! A30   A(3,6,13)             148.9843         estimate D2E/DX2                !
 ! A31   A(3,6,18)             129.4787         estimate D2E/DX2                !
 ! A32   A(3,6,20)              82.3821         estimate D2E/DX2                !
 ! A33   A(4,6,7)               78.5512         estimate D2E/DX2                !
 ! A34   A(4,6,8)              107.1788         estimate D2E/DX2                !
 ! A35   A(4,6,13)              96.3743         estimate D2E/DX2                !
 ! A36   A(4,6,18)             126.4414         estimate D2E/DX2                !
 ! A37   A(4,6,20)             152.9799         estimate D2E/DX2                !
 ! A38   A(7,6,8)              107.2244         estimate D2E/DX2                !
 ! A39   A(7,6,9)               94.3156         estimate D2E/DX2                !
 ! A40   A(7,6,20)              91.4552         estimate D2E/DX2                !
 ! A41   A(8,6,18)              94.4282         estimate D2E/DX2                !
 ! A42   A(8,6,20)              99.7378         estimate D2E/DX2                !
 ! A43   A(9,6,13)              66.0838         estimate D2E/DX2                !
 ! A44   A(9,6,18)             125.2006         estimate D2E/DX2                !
 ! A45   A(9,6,20)             154.9467         estimate D2E/DX2                !
 ! A46   A(13,6,20)             98.1782         estimate D2E/DX2                !
 ! A47   A(9,8,13)              82.2285         estimate D2E/DX2                !
 ! A48   A(1,9,8)               84.7229         estimate D2E/DX2                !
 ! A49   A(1,9,10)             136.217          estimate D2E/DX2                !
 ! A50   A(1,9,11)              93.0904         estimate D2E/DX2                !
 ! A51   A(1,9,26)             131.3746         estimate D2E/DX2                !
 ! A52   A(1,9,27)             121.4881         estimate D2E/DX2                !
 ! A53   A(2,9,4)              104.169          estimate D2E/DX2                !
 ! A54   A(2,9,6)               90.6902         estimate D2E/DX2                !
 ! A55   A(2,9,8)               77.4805         estimate D2E/DX2                !
 ! A56   A(2,9,11)             103.8245         estimate D2E/DX2                !
 ! A57   A(2,9,26)              79.6834         estimate D2E/DX2                !
 ! A58   A(2,9,27)              88.6618         estimate D2E/DX2                !
 ! A59   A(4,9,8)               95.8459         estimate D2E/DX2                !
 ! A60   A(4,9,10)              84.5613         estimate D2E/DX2                !
 ! A61   A(4,9,11)              80.1405         estimate D2E/DX2                !
 ! A62   A(4,9,12)              93.0155         estimate D2E/DX2                !
 ! A63   A(4,9,27)             132.1176         estimate D2E/DX2                !
 ! A64   A(6,9,10)              88.5701         estimate D2E/DX2                !
 ! A65   A(6,9,11)             129.3641         estimate D2E/DX2                !
 ! A66   A(6,9,12)             120.4515         estimate D2E/DX2                !
 ! A67   A(6,9,26)             128.3193         estimate D2E/DX2                !
 ! A68   A(8,9,10)              93.1949         estimate D2E/DX2                !
 ! A69   A(8,9,12)             128.1126         estimate D2E/DX2                !
 ! A70   A(8,9,26)              81.8442         estimate D2E/DX2                !
 ! A71   A(8,9,27)             132.0362         estimate D2E/DX2                !
 ! A72   A(10,9,11)             86.0298         estimate D2E/DX2                !
 ! A73   A(10,9,12)            138.577          estimate D2E/DX2                !
 ! A74   A(10,9,26)             91.1643         estimate D2E/DX2                !
 ! A75   A(10,9,27)             91.8076         estimate D2E/DX2                !
 ! A76   A(11,9,26)            102.1241         estimate D2E/DX2                !
 ! A77   A(12,9,26)             91.8605         estimate D2E/DX2                !
 ! A78   A(9,10,13)             79.5944         estimate D2E/DX2                !
 ! A79   A(9,10,24)             81.4645         estimate D2E/DX2                !
 ! A80   A(1,12,11)             91.6159         estimate D2E/DX2                !
 ! A81   A(1,12,14)            102.5521         estimate D2E/DX2                !
 ! A82   A(1,12,15)            148.4568         estimate D2E/DX2                !
 ! A83   A(1,12,21)             63.9626         estimate D2E/DX2                !
 ! A84   A(1,12,27)            118.4816         estimate D2E/DX2                !
 ! A85   A(2,12,5)             104.5486         estimate D2E/DX2                !
 ! A86   A(2,12,11)            109.076          estimate D2E/DX2                !
 ! A87   A(2,12,14)             94.8218         estimate D2E/DX2                !
 ! A88   A(2,12,15)             97.396          estimate D2E/DX2                !
 ! A89   A(2,12,21)             89.9533         estimate D2E/DX2                !
 ! A90   A(2,12,27)             91.3219         estimate D2E/DX2                !
 ! A91   A(5,12,9)              94.1778         estimate D2E/DX2                !
 ! A92   A(5,12,11)             81.4395         estimate D2E/DX2                !
 ! A93   A(5,12,14)             91.2939         estimate D2E/DX2                !
 ! A94   A(5,12,15)            157.4073         estimate D2E/DX2                !
 ! A95   A(5,12,27)            133.6455         estimate D2E/DX2                !
 ! A96   A(9,12,14)            149.7591         estimate D2E/DX2                !
 ! A97   A(9,12,15)            102.8695         estimate D2E/DX2                !
 ! A98   A(9,12,21)            122.5134         estimate D2E/DX2                !
 ! A99   A(11,12,14)           156.051          estimate D2E/DX2                !
 ! A100  A(11,12,15)            96.5608         estimate D2E/DX2                !
 ! A101  A(11,12,21)           129.24           estimate D2E/DX2                !
 ! A102  A(14,12,15)            81.4554         estimate D2E/DX2                !
 ! A103  A(14,12,27)           131.0723         estimate D2E/DX2                !
 ! A104  A(15,12,21)           128.0356         estimate D2E/DX2                !
 ! A105  A(6,13,10)             97.1469         estimate D2E/DX2                !
 ! A106  A(6,13,16)            103.1064         estimate D2E/DX2                !
 ! A107  A(6,13,17)            139.7741         estimate D2E/DX2                !
 ! A108  A(6,13,24)            121.4999         estimate D2E/DX2                !
 ! A109  A(7,13,8)             107.8963         estimate D2E/DX2                !
 ! A110  A(7,13,10)             82.5898         estimate D2E/DX2                !
 ! A111  A(7,13,16)             96.5307         estimate D2E/DX2                !
 ! A112  A(7,13,17)            164.0494         estimate D2E/DX2                !
 ! A113  A(7,13,24)            130.4192         estimate D2E/DX2                !
 ! A114  A(8,13,10)            103.7939         estimate D2E/DX2                !
 ! A115  A(8,13,16)            100.3337         estimate D2E/DX2                !
 ! A116  A(8,13,17)             87.8374         estimate D2E/DX2                !
 ! A117  A(8,13,18)             96.8353         estimate D2E/DX2                !
 ! A118  A(8,13,24)             87.9101         estimate D2E/DX2                !
 ! A119  A(10,13,16)           154.9104         estimate D2E/DX2                !
 ! A120  A(10,13,17)            91.2769         estimate D2E/DX2                !
 ! A121  A(10,13,18)           131.9198         estimate D2E/DX2                !
 ! A122  A(16,13,17)            82.8023         estimate D2E/DX2                !
 ! A123  A(16,13,24)           127.2709         estimate D2E/DX2                !
 ! A124  A(17,13,18)           132.9068         estimate D2E/DX2                !
 ! A125  A(6,18,16)            100.1639         estimate D2E/DX2                !
 ! A126  A(6,18,19)            148.1583         estimate D2E/DX2                !
 ! A127  A(7,18,16)            104.5018         estimate D2E/DX2                !
 ! A128  A(7,18,19)            110.0594         estimate D2E/DX2                !
 ! A129  A(7,18,20)            104.3949         estimate D2E/DX2                !
 ! A130  A(13,18,19)           142.1242         estimate D2E/DX2                !
 ! A131  A(13,18,20)           102.2625         estimate D2E/DX2                !
 ! A132  A(16,18,19)           111.2084         estimate D2E/DX2                !
 ! A133  A(16,18,20)           110.3274         estimate D2E/DX2                !
 ! A134  A(19,18,20)           115.5636         estimate D2E/DX2                !
 ! A135  A(5,21,14)            104.3663         estimate D2E/DX2                !
 ! A136  A(5,21,22)            112.5449         estimate D2E/DX2                !
 ! A137  A(5,21,23)            103.0164         estimate D2E/DX2                !
 ! A138  A(12,21,22)           145.025          estimate D2E/DX2                !
 ! A139  A(12,21,23)           101.5657         estimate D2E/DX2                !
 ! A140  A(14,21,22)           111.155          estimate D2E/DX2                !
 ! A141  A(14,21,23)           111.8089         estimate D2E/DX2                !
 ! A142  A(22,21,23)           113.3423         estimate D2E/DX2                !
 ! A143  A(1,23,21)             81.0154         estimate D2E/DX2                !
 ! A144  A(10,24,17)           103.0275         estimate D2E/DX2                !
 ! A145  A(10,24,25)           120.8514         estimate D2E/DX2                !
 ! A146  A(10,24,26)           104.3612         estimate D2E/DX2                !
 ! A147  A(13,24,25)           148.6803         estimate D2E/DX2                !
 ! A148  A(13,24,26)            98.4763         estimate D2E/DX2                !
 ! A149  A(17,24,25)           112.4577         estimate D2E/DX2                !
 ! A150  A(17,24,26)           101.5713         estimate D2E/DX2                !
 ! A151  A(25,24,26)           112.4367         estimate D2E/DX2                !
 ! A152  A(9,26,24)             81.854          estimate D2E/DX2                !
 ! A153  A(24,26,27)            95.9223         estimate D2E/DX2                !
 ! A154  A(9,27,15)            107.669          estimate D2E/DX2                !
 ! A155  A(9,27,28)            106.1258         estimate D2E/DX2                !
 ! A156  A(11,27,15)           102.6881         estimate D2E/DX2                !
 ! A157  A(11,27,26)           112.1075         estimate D2E/DX2                !
 ! A158  A(11,27,28)            78.0333         estimate D2E/DX2                !
 ! A159  A(12,27,26)            97.1166         estimate D2E/DX2                !
 ! A160  A(12,27,28)           129.2451         estimate D2E/DX2                !
 ! A161  A(15,27,26)           101.9496         estimate D2E/DX2                !
 ! A162  A(15,27,28)           138.2126         estimate D2E/DX2                !
 ! A163  A(26,27,28)           116.6422         estimate D2E/DX2                !
 ! A164  A(27,28,29)           109.6176         estimate D2E/DX2                !
 ! A165  A(27,28,30)           100.931          estimate D2E/DX2                !
 ! A166  A(29,28,30)            94.0528         estimate D2E/DX2                !
 ! A167  L(1,6,18,8,-1)        183.0312         estimate D2E/DX2                !
 ! A168  L(2,9,10,4,-1)        188.7303         estimate D2E/DX2                !
 ! A169  L(4,9,26,2,-1)        183.8524         estimate D2E/DX2                !
 ! A170  L(6,9,27,10,-1)       180.3777         estimate D2E/DX2                !
 ! A171  L(8,9,11,1,-1)        177.8133         estimate D2E/DX2                !
 ! A172  L(21,12,27,2,-1)      181.2753         estimate D2E/DX2                !
 ! A173  L(18,13,24,8,-1)      184.7454         estimate D2E/DX2                !
 ! A174  L(1,6,18,8,-2)        179.5849         estimate D2E/DX2                !
 ! A175  L(2,9,10,4,-2)        171.1947         estimate D2E/DX2                !
 ! A176  L(4,9,26,2,-2)        183.2043         estimate D2E/DX2                !
 ! A177  L(6,9,27,10,-2)       178.6891         estimate D2E/DX2                !
 ! A178  L(8,9,11,1,-2)        176.5981         estimate D2E/DX2                !
 ! A179  L(21,12,27,2,-2)      177.8303         estimate D2E/DX2                !
 ! A180  L(18,13,24,8,-2)      181.7669         estimate D2E/DX2                !
 ! D1    D(2,1,5,21)            70.2597         estimate D2E/DX2                !
 ! D2    D(3,1,5,21)           -85.0596         estimate D2E/DX2                !
 ! D3    D(4,1,5,21)          -179.8154         estimate D2E/DX2                !
 ! D4    D(6,1,5,21)          -174.1203         estimate D2E/DX2                !
 ! D5    D(9,1,5,21)           126.025          estimate D2E/DX2                !
 ! D6    D(23,1,5,21)          -18.2415         estimate D2E/DX2                !
 ! D7    D(2,1,6,7)            109.7191         estimate D2E/DX2                !
 ! D8    D(2,1,6,8)             -1.9087         estimate D2E/DX2                !
 ! D9    D(2,1,6,13)            40.5144         estimate D2E/DX2                !
 ! D10   D(2,1,6,20)          -103.8966         estimate D2E/DX2                !
 ! D11   D(5,1,6,7)             -8.7372         estimate D2E/DX2                !
 ! D12   D(5,1,6,8)           -120.3651         estimate D2E/DX2                !
 ! D13   D(5,1,6,13)           -77.942          estimate D2E/DX2                !
 ! D14   D(5,1,6,20)           137.647          estimate D2E/DX2                !
 ! D15   D(12,1,6,7)            63.0648         estimate D2E/DX2                !
 ! D16   D(12,1,6,8)           -48.5631         estimate D2E/DX2                !
 ! D17   D(12,1,6,13)           -6.14           estimate D2E/DX2                !
 ! D18   D(12,1,6,20)         -150.551          estimate D2E/DX2                !
 ! D19   D(23,1,6,7)          -154.045          estimate D2E/DX2                !
 ! D20   D(23,1,6,8)            94.3271         estimate D2E/DX2                !
 ! D21   D(23,1,6,13)          136.7502         estimate D2E/DX2                !
 ! D22   D(23,1,6,20)           -7.6608         estimate D2E/DX2                !
 ! D23   D(3,1,9,8)             14.4733         estimate D2E/DX2                !
 ! D24   D(3,1,9,10)           -74.6395         estimate D2E/DX2                !
 ! D25   D(3,1,9,11)          -162.1248         estimate D2E/DX2                !
 ! D26   D(3,1,9,26)            88.7367         estimate D2E/DX2                !
 ! D27   D(3,1,9,27)           151.5271         estimate D2E/DX2                !
 ! D28   D(5,1,9,8)            177.7754         estimate D2E/DX2                !
 ! D29   D(5,1,9,10)            88.6626         estimate D2E/DX2                !
 ! D30   D(5,1,9,11)             1.1774         estimate D2E/DX2                !
 ! D31   D(5,1,9,26)          -107.9612         estimate D2E/DX2                !
 ! D32   D(5,1,9,27)           -45.1708         estimate D2E/DX2                !
 ! D33   D(23,1,9,8)           -90.167          estimate D2E/DX2                !
 ! D34   D(23,1,9,10)         -179.2798         estimate D2E/DX2                !
 ! D35   D(23,1,9,11)           93.2349         estimate D2E/DX2                !
 ! D36   D(23,1,9,26)          -15.9036         estimate D2E/DX2                !
 ! D37   D(23,1,9,27)           46.8868         estimate D2E/DX2                !
 ! D38   D(3,1,12,11)         -120.5329         estimate D2E/DX2                !
 ! D39   D(3,1,12,14)           78.9159         estimate D2E/DX2                !
 ! D40   D(3,1,12,15)          -15.1985         estimate D2E/DX2                !
 ! D41   D(3,1,12,21)          105.7957         estimate D2E/DX2                !
 ! D42   D(3,1,12,27)          -73.5303         estimate D2E/DX2                !
 ! D43   D(4,1,12,11)            1.0204         estimate D2E/DX2                !
 ! D44   D(4,1,12,14)         -159.5308         estimate D2E/DX2                !
 ! D45   D(4,1,12,15)          106.3548         estimate D2E/DX2                !
 ! D46   D(4,1,12,21)         -132.6509         estimate D2E/DX2                !
 ! D47   D(4,1,12,27)           48.023          estimate D2E/DX2                !
 ! D48   D(6,1,12,11)          -44.7049         estimate D2E/DX2                !
 ! D49   D(6,1,12,14)          154.7439         estimate D2E/DX2                !
 ! D50   D(6,1,12,15)           60.6294         estimate D2E/DX2                !
 ! D51   D(6,1,12,21)         -178.3763         estimate D2E/DX2                !
 ! D52   D(6,1,12,27)            2.2977         estimate D2E/DX2                !
 ! D53   D(23,1,12,11)         160.9997         estimate D2E/DX2                !
 ! D54   D(23,1,12,14)           0.4485         estimate D2E/DX2                !
 ! D55   D(23,1,12,15)         -93.6659         estimate D2E/DX2                !
 ! D56   D(23,1,12,21)          27.3284         estimate D2E/DX2                !
 ! D57   D(23,1,12,27)        -151.9977         estimate D2E/DX2                !
 ! D58   D(2,1,23,21)          -85.6101         estimate D2E/DX2                !
 ! D59   D(3,1,23,21)          170.2567         estimate D2E/DX2                !
 ! D60   D(4,1,23,21)           77.1653         estimate D2E/DX2                !
 ! D61   D(5,1,23,21)           19.1479         estimate D2E/DX2                !
 ! D62   D(6,1,23,21)          174.8706         estimate D2E/DX2                !
 ! D63   D(9,1,23,21)          -75.7755         estimate D2E/DX2                !
 ! D64   D(12,1,23,21)         -35.0381         estimate D2E/DX2                !
 ! D65   D(1,2,9,12)           -82.0038         estimate D2E/DX2                !
 ! D66   D(1,4,6,9)             73.9008         estimate D2E/DX2                !
 ! D67   D(1,5,21,14)          -94.3871         estimate D2E/DX2                !
 ! D68   D(1,5,21,22)          144.9695         estimate D2E/DX2                !
 ! D69   D(1,5,21,23)           22.5382         estimate D2E/DX2                !
 ! D70   D(3,6,9,2)            -18.6476         estimate D2E/DX2                !
 ! D71   D(3,6,9,10)           173.6345         estimate D2E/DX2                !
 ! D72   D(3,6,9,11)            89.9532         estimate D2E/DX2                !
 ! D73   D(3,6,9,12)            24.8275         estimate D2E/DX2                !
 ! D74   D(3,6,9,26)           -96.0114         estimate D2E/DX2                !
 ! D75   D(7,6,9,2)            179.9589         estimate D2E/DX2                !
 ! D76   D(7,6,9,10)            12.2409         estimate D2E/DX2                !
 ! D77   D(7,6,9,11)           -71.4404         estimate D2E/DX2                !
 ! D78   D(7,6,9,12)          -136.5661         estimate D2E/DX2                !
 ! D79   D(7,6,9,26)           102.5951         estimate D2E/DX2                !
 ! D80   D(13,6,9,2)           131.618          estimate D2E/DX2                !
 ! D81   D(13,6,9,10)          -36.1            estimate D2E/DX2                !
 ! D82   D(13,6,9,11)         -119.7813         estimate D2E/DX2                !
 ! D83   D(13,6,9,12)          175.093          estimate D2E/DX2                !
 ! D84   D(13,6,9,26)           54.2541         estimate D2E/DX2                !
 ! D85   D(18,6,9,2)           140.0198         estimate D2E/DX2                !
 ! D86   D(18,6,9,10)          -27.6981         estimate D2E/DX2                !
 ! D87   D(18,6,9,11)         -111.3794         estimate D2E/DX2                !
 ! D88   D(18,6,9,12)         -176.5051         estimate D2E/DX2                !
 ! D89   D(18,6,9,26)           62.656          estimate D2E/DX2                !
 ! D90   D(20,6,9,2)            77.1568         estimate D2E/DX2                !
 ! D91   D(20,6,9,10)          -90.5612         estimate D2E/DX2                !
 ! D92   D(20,6,9,11)         -174.2425         estimate D2E/DX2                !
 ! D93   D(20,6,9,12)          120.6318         estimate D2E/DX2                !
 ! D94   D(20,6,9,26)           -0.207          estimate D2E/DX2                !
 ! D95   D(1,6,13,10)           43.5746         estimate D2E/DX2                !
 ! D96   D(1,6,13,16)         -151.3329         estimate D2E/DX2                !
 ! D97   D(1,6,13,17)          -56.9708         estimate D2E/DX2                !
 ! D98   D(1,6,13,24)           -0.6508         estimate D2E/DX2                !
 ! D99   D(3,6,13,10)          109.1697         estimate D2E/DX2                !
 ! D100  D(3,6,13,16)          -85.7378         estimate D2E/DX2                !
 ! D101  D(3,6,13,17)            8.6243         estimate D2E/DX2                !
 ! D102  D(3,6,13,24)           64.9443         estimate D2E/DX2                !
 ! D103  D(4,6,13,10)           -4.8579         estimate D2E/DX2                !
 ! D104  D(4,6,13,16)          160.2346         estimate D2E/DX2                !
 ! D105  D(4,6,13,17)         -105.4034         estimate D2E/DX2                !
 ! D106  D(4,6,13,24)          -49.0833         estimate D2E/DX2                !
 ! D107  D(9,6,13,10)           38.3454         estimate D2E/DX2                !
 ! D108  D(9,6,13,16)         -156.5621         estimate D2E/DX2                !
 ! D109  D(9,6,13,17)          -62.2            estimate D2E/DX2                !
 ! D110  D(9,6,13,24)           -5.88           estimate D2E/DX2                !
 ! D111  D(20,6,13,10)        -162.0269         estimate D2E/DX2                !
 ! D112  D(20,6,13,16)           3.0656         estimate D2E/DX2                !
 ! D113  D(20,6,13,17)          97.4276         estimate D2E/DX2                !
 ! D114  D(20,6,13,24)         153.7477         estimate D2E/DX2                !
 ! D115  D(3,6,18,16)          111.1719         estimate D2E/DX2                !
 ! D116  D(3,6,18,19)          -78.6587         estimate D2E/DX2                !
 ! D117  D(4,6,18,16)         -106.5701         estimate D2E/DX2                !
 ! D118  D(4,6,18,19)           63.5994         estimate D2E/DX2                !
 ! D119  D(8,6,18,16)            8.6074         estimate D2E/DX2                !
 ! D120  D(8,6,18,19)          178.7769         estimate D2E/DX2                !
 ! D121  D(9,6,18,16)          -41.2816         estimate D2E/DX2                !
 ! D122  D(9,6,18,19)          128.8879         estimate D2E/DX2                !
 ! D123  D(6,7,13,18)          -81.9863         estimate D2E/DX2                !
 ! D124  D(13,8,9,1)          -128.0539         estimate D2E/DX2                !
 ! D125  D(13,8,9,2)           179.9739         estimate D2E/DX2                !
 ! D126  D(13,8,9,4)           -76.769          estimate D2E/DX2                !
 ! D127  D(13,8,9,10)            8.0841         estimate D2E/DX2                !
 ! D128  D(13,8,9,12)         -175.2526         estimate D2E/DX2                !
 ! D129  D(13,8,9,26)           98.8038         estimate D2E/DX2                !
 ! D130  D(13,8,9,27)          103.4122         estimate D2E/DX2                !
 ! D131  D(9,8,13,7)            77.8538         estimate D2E/DX2                !
 ! D132  D(9,8,13,10)           -8.6906         estimate D2E/DX2                !
 ! D133  D(9,8,13,16)          178.2451         estimate D2E/DX2                !
 ! D134  D(9,8,13,17)          -99.4751         estimate D2E/DX2                !
 ! D135  D(9,8,13,18)          127.5527         estimate D2E/DX2                !
 ! D136  D(9,8,13,24)          -54.2142         estimate D2E/DX2                !
 ! D137  D(1,9,10,13)           78.0914         estimate D2E/DX2                !
 ! D138  D(1,9,10,24)          159.9762         estimate D2E/DX2                !
 ! D139  D(4,9,10,13)           87.9617         estimate D2E/DX2                !
 ! D140  D(4,9,10,24)          169.8465         estimate D2E/DX2                !
 ! D141  D(6,9,10,13)           38.7965         estimate D2E/DX2                !
 ! D142  D(6,9,10,24)          120.6813         estimate D2E/DX2                !
 ! D143  D(8,9,10,13)           -7.6139         estimate D2E/DX2                !
 ! D144  D(8,9,10,24)           74.2709         estimate D2E/DX2                !
 ! D145  D(11,9,10,13)         168.4172         estimate D2E/DX2                !
 ! D146  D(11,9,10,24)        -109.698          estimate D2E/DX2                !
 ! D147  D(12,9,10,13)         176.3552         estimate D2E/DX2                !
 ! D148  D(12,9,10,24)        -101.76           estimate D2E/DX2                !
 ! D149  D(26,9,10,13)         -89.5092         estimate D2E/DX2                !
 ! D150  D(26,9,10,24)          -7.6244         estimate D2E/DX2                !
 ! D151  D(27,9,10,13)        -139.8926         estimate D2E/DX2                !
 ! D152  D(27,9,10,24)         -58.0078         estimate D2E/DX2                !
 ! D153  D(4,9,12,5)            -1.0091         estimate D2E/DX2                !
 ! D154  D(4,9,12,14)         -100.8117         estimate D2E/DX2                !
 ! D155  D(4,9,12,15)          164.0653         estimate D2E/DX2                !
 ! D156  D(4,9,12,21)          -42.41           estimate D2E/DX2                !
 ! D157  D(6,9,12,5)            42.2982         estimate D2E/DX2                !
 ! D158  D(6,9,12,14)          -57.5044         estimate D2E/DX2                !
 ! D159  D(6,9,12,15)         -152.6273         estimate D2E/DX2                !
 ! D160  D(6,9,12,21)            0.8974         estimate D2E/DX2                !
 ! D161  D(8,9,12,5)            98.8343         estimate D2E/DX2                !
 ! D162  D(8,9,12,14)           -0.9683         estimate D2E/DX2                !
 ! D163  D(8,9,12,15)          -96.0913         estimate D2E/DX2                !
 ! D164  D(8,9,12,21)           57.4334         estimate D2E/DX2                !
 ! D165  D(10,9,12,5)          -86.2049         estimate D2E/DX2                !
 ! D166  D(10,9,12,14)         173.9925         estimate D2E/DX2                !
 ! D167  D(10,9,12,15)          78.8695         estimate D2E/DX2                !
 ! D168  D(10,9,12,21)        -127.6057         estimate D2E/DX2                !
 ! D169  D(26,9,12,5)          179.9221         estimate D2E/DX2                !
 ! D170  D(26,9,12,14)          80.1195         estimate D2E/DX2                !
 ! D171  D(26,9,12,15)         -15.0035         estimate D2E/DX2                !
 ! D172  D(26,9,12,21)         138.5212         estimate D2E/DX2                !
 ! D173  D(1,9,26,24)         -160.9272         estimate D2E/DX2                !
 ! D174  D(2,9,26,24)         -164.0757         estimate D2E/DX2                !
 ! D175  D(6,9,26,24)          -81.4443         estimate D2E/DX2                !
 ! D176  D(8,9,26,24)          -85.4079         estimate D2E/DX2                !
 ! D177  D(10,9,26,24)           7.6533         estimate D2E/DX2                !
 ! D178  D(11,9,26,24)          93.8423         estimate D2E/DX2                !
 ! D179  D(12,9,26,24)         146.3352         estimate D2E/DX2                !
 ! D180  D(1,9,27,15)          -26.6904         estimate D2E/DX2                !
 ! D181  D(1,9,27,28)          128.3611         estimate D2E/DX2                !
 ! D182  D(2,9,27,15)           15.5661         estimate D2E/DX2                !
 ! D183  D(2,9,27,28)          170.6176         estimate D2E/DX2                !
 ! D184  D(4,9,27,15)          -92.431          estimate D2E/DX2                !
 ! D185  D(4,9,27,28)           62.6205         estimate D2E/DX2                !
 ! D186  D(8,9,27,15)           87.326          estimate D2E/DX2                !
 ! D187  D(8,9,27,28)         -117.6225         estimate D2E/DX2                !
 ! D188  D(10,9,27,15)        -176.7317         estimate D2E/DX2                !
 ! D189  D(10,9,27,28)         -21.6802         estimate D2E/DX2                !
 ! D190  D(9,10,13,6)          -43.6791         estimate D2E/DX2                !
 ! D191  D(9,10,13,7)          -97.8771         estimate D2E/DX2                !
 ! D192  D(9,10,13,8)            8.8106         estimate D2E/DX2                !
 ! D193  D(9,10,13,16)         172.541          estimate D2E/DX2                !
 ! D194  D(9,10,13,17)          96.8969         estimate D2E/DX2                !
 ! D195  D(9,10,13,18)        -103.8416         estimate D2E/DX2                !
 ! D196  D(9,10,24,17)         -97.0524         estimate D2E/DX2                !
 ! D197  D(9,10,24,25)         136.4403         estimate D2E/DX2                !
 ! D198  D(9,10,24,26)           8.7171         estimate D2E/DX2                !
 ! D199  D(9,11,12,27)         -77.2525         estimate D2E/DX2                !
 ! D200  D(1,12,21,22)         142.5124         estimate D2E/DX2                !
 ! D201  D(1,12,21,23)         -33.9445         estimate D2E/DX2                !
 ! D202  D(2,12,21,22)        -171.5627         estimate D2E/DX2                !
 ! D203  D(2,12,21,23)          11.9803         estimate D2E/DX2                !
 ! D204  D(9,12,21,22)         141.2971         estimate D2E/DX2                !
 ! D205  D(9,12,21,23)         -35.1598         estimate D2E/DX2                !
 ! D206  D(11,12,21,22)         73.5198         estimate D2E/DX2                !
 ! D207  D(11,12,21,23)       -102.9371         estimate D2E/DX2                !
 ! D208  D(15,12,21,22)        -72.1934         estimate D2E/DX2                !
 ! D209  D(15,12,21,23)        111.3496         estimate D2E/DX2                !
 ! D210  D(1,12,27,26)          44.6033         estimate D2E/DX2                !
 ! D211  D(1,12,27,28)         -88.6718         estimate D2E/DX2                !
 ! D212  D(2,12,27,26)          -1.0387         estimate D2E/DX2                !
 ! D213  D(2,12,27,28)        -134.3138         estimate D2E/DX2                !
 ! D214  D(5,12,27,26)         110.6304         estimate D2E/DX2                !
 ! D215  D(5,12,27,28)         -22.6447         estimate D2E/DX2                !
 ! D216  D(14,12,27,26)        -98.6031         estimate D2E/DX2                !
 ! D217  D(14,12,27,28)        128.1218         estimate D2E/DX2                !
 ! D218  D(8,13,18,19)         174.3605         estimate D2E/DX2                !
 ! D219  D(8,13,18,20)          -8.5651         estimate D2E/DX2                !
 ! D220  D(10,13,18,19)        -70.1493         estimate D2E/DX2                !
 ! D221  D(10,13,18,20)        106.925          estimate D2E/DX2                !
 ! D222  D(17,13,18,19)         80.9479         estimate D2E/DX2                !
 ! D223  D(17,13,18,20)       -101.9777         estimate D2E/DX2                !
 ! D224  D(6,13,24,25)         156.526          estimate D2E/DX2                !
 ! D225  D(6,13,24,26)         -32.6299         estimate D2E/DX2                !
 ! D226  D(7,13,24,25)          86.4092         estimate D2E/DX2                !
 ! D227  D(7,13,24,26)        -102.7468         estimate D2E/DX2                !
 ! D228  D(8,13,24,25)        -161.7008         estimate D2E/DX2                !
 ! D229  D(8,13,24,26)           9.1432         estimate D2E/DX2                !
 ! D230  D(16,13,24,25)        -60.2928         estimate D2E/DX2                !
 ! D231  D(16,13,24,26)        110.5513         estimate D2E/DX2                !
 ! D232  D(5,21,23,1)          -21.4451         estimate D2E/DX2                !
 ! D233  D(12,21,23,1)          34.4493         estimate D2E/DX2                !
 ! D234  D(14,21,23,1)          90.0732         estimate D2E/DX2                !
 ! D235  D(22,21,23,1)        -143.3396         estimate D2E/DX2                !
 ! D236  D(10,24,26,9)          -8.7369         estimate D2E/DX2                !
 ! D237  D(10,24,26,27)         61.7869         estimate D2E/DX2                !
 ! D238  D(13,24,26,9)          43.6763         estimate D2E/DX2                !
 ! D239  D(13,24,26,27)        114.2001         estimate D2E/DX2                !
 ! D240  D(17,24,26,9)          98.1175         estimate D2E/DX2                !
 ! D241  D(17,24,26,27)        168.6413         estimate D2E/DX2                !
 ! D242  D(25,24,26,9)        -141.4578         estimate D2E/DX2                !
 ! D243  D(25,24,26,27)        -70.9341         estimate D2E/DX2                !
 ! D244  D(24,26,27,11)        -73.7169         estimate D2E/DX2                !
 ! D245  D(24,26,27,12)       -127.2759         estimate D2E/DX2                !
 ! D246  D(24,26,27,15)        177.1179         estimate D2E/DX2                !
 ! D247  D(24,26,27,28)         13.6126         estimate D2E/DX2                !
 ! D248  D(9,27,28,29)         134.6272         estimate D2E/DX2                !
 ! D249  D(9,27,28,30)        -127.0207         estimate D2E/DX2                !
 ! D250  D(11,27,28,29)       -178.1934         estimate D2E/DX2                !
 ! D251  D(11,27,28,30)        -79.8413         estimate D2E/DX2                !
 ! D252  D(12,27,28,29)       -161.0312         estimate D2E/DX2                !
 ! D253  D(12,27,28,30)        -62.6792         estimate D2E/DX2                !
 ! D254  D(15,27,28,29)        -82.467          estimate D2E/DX2                !
 ! D255  D(15,27,28,30)         15.885          estimate D2E/DX2                !
 ! D256  D(26,27,28,29)         72.8972         estimate D2E/DX2                !
 ! D257  D(26,27,28,30)        171.2493         estimate D2E/DX2                !
 --------------------------------------------------------------------------------
 Trust Radius=3.00D-01 FncErr=1.00D-07 GrdErr=1.00D-06 EigMax=2.50D+02 EigMin=1.00D-04
 Number of steps in this run=    180 maximum allowed number of steps=    180.
 GradGradGradGradGradGradGradGradGradGradGradGradGradGradGradGradGradGrad

                          Input orientation:                          
 ---------------------------------------------------------------------
 Center     Atomic      Atomic             Coordinates (Angstroms)
 Number     Number       Type             X           Y           Z
 ---------------------------------------------------------------------
      1         42           0        0.322064    1.851288   12.157885
      2         16           0        1.291990    3.981884   12.030763
      3         16           0       -1.715678    2.229879   13.193249
      4         16           0       -0.451723    1.130063   10.030984
      5         16           0        2.192655    0.266948   11.618950
      6         42           0       -2.207876    2.519746   10.849999
      7         16           0       -3.099327    1.864493    8.602821
      8         16           0       -1.485121    4.692150   10.687397
      9         42           0        0.554138    3.378300    9.763133
     10         16           0       -0.420097    3.260475    7.377279
     11         16           0        2.379758    1.997602    8.902782
     12         42           0        2.971345    2.629982   11.154310
     13         42           0       -2.341346    4.217149    8.596635
     14         16           0        4.356670    2.642432   13.232108
     15         16           0        4.521416    4.410053   10.545474
     16         16           0       -4.500576    5.197587    8.786920
     17         16           0       -1.687397    6.561862    7.901613
     18         42           0       -4.838556    3.049239    9.503256
     19         16           0       -6.688752    2.283196    8.790694
     20         16           0       -4.520651    2.907407   11.725288
     21         42           0        2.944741    0.958857   13.687557
     22         16           0        3.921536   -0.591547   14.758697
     23         16           0        1.103395    1.676173   14.671678
     24         42           0        0.210676    5.507971    7.383348
     25         16           0        1.194660    6.378628    5.688422
     26         16           0        1.432794    5.758202    9.343312
     27         42           0        3.118329    4.242844    8.771674
     28         16           0        3.221639    3.481574    6.235949
     29          1           0        3.692863    4.493731    5.477849
     30          1           0        4.391052    2.797860    6.220437
 ---------------------------------------------------------------------
                    Distance matrix (angstroms):
                    1          2          3          4          5
     1  Mo   0.000000
     2  S    2.344431   0.000000
     3  S    2.316830   3.669736   0.000000
     4  S    2.375420   3.895194   3.578701   0.000000
     5  S    2.509919   3.844676   4.648288   3.203020   0.000000
     6  Mo   2.925406   3.972545   2.411867   2.384550   5.003105
     7  S    4.934022   5.959681   4.808328   3.096586   6.297163
     8  S    3.674064   3.165668   3.520686   3.766597   5.828914
     9  Mo   2.849642   2.459855   4.270437   2.477513   3.976092
    10  S    5.038929   5.010647   6.046996   3.403205   5.812009
    11  S    3.853726   3.860684   5.935879   3.169030   3.226103
    12  Mo   2.938063   2.327239   5.126942   3.902437   2.531043
    13  Mo   5.037217   5.004969   5.046738   3.893345   6.730204
    14  S    4.249460   3.553818   6.086470   5.971189   3.595576
    15  S    5.175104   3.580308   7.117950   5.979561   4.872453
    16  S    6.768972   6.749390   5.998223   5.872449   8.782422
    17  S    6.659076   5.708144   6.838734   5.963686   8.276433
    18  Mo   5.925719   6.696395   4.903036   4.817264   7.852085
    19  S    7.789484   8.779284   6.642048   6.462860   9.536439
    20  S    4.975381   5.919004   3.237565   4.752451   7.214694
    21  Mo   3.164611   3.822989   4.855857   4.993576   2.307272
    22  S    5.068320   5.939058   6.495326   6.666379   3.685655
    23  S    2.638238   3.510884   3.231024   4.924700   3.534339
    24  Mo   6.014976   5.009655   6.943463   5.158956   7.024022
    25  S    7.944318   6.780792   9.055640   7.008271   8.574368
    26  S    4.941611   3.224519   6.097865   5.044201   5.992478
    27  Mo   5.000506   3.745033   6.853465   4.901075   4.977108
    28  S    6.792252   6.128109   8.622521   5.781478   6.353686
    29  H    7.935217   6.997632   9.690446   7.015903   7.604567
    30  H    7.259886   6.690739   9.286273   6.383908   6.354715
                    6          7          8          9         10
     6  Mo   0.000000
     7  S    2.504766   0.000000
     8  S    2.295246   3.866104   0.000000
     9  Mo   3.089840   4.121376   2.595967   0.000000
    10  S    3.975502   3.260214   3.760432   2.579790   0.000000
    11  S    5.011055   5.488904   5.038128   2.445285   3.429460
    12  Mo   5.189324   6.629414   4.932609   2.887602   5.115209
    13  Mo   2.824295   2.471753   2.308686   3.232370   2.468451
    14  S    6.984466   8.810640   6.693536   5.199475   7.581458
    15  S    6.996382   8.266166   6.014832   4.173232   5.981433
    16  S    4.084556   3.620346   3.600034   5.460122   4.731786
    17  S    5.030167   4.954848   3.361150   4.315646   3.574931
    18  Mo   3.002425   2.288957   3.917508   5.408971   4.907869
    19  S    4.937099   3.618643   6.039728   7.389475   6.499912
    20  S    2.503066   3.585754   3.671099   5.461252   5.987018
    21  Mo   6.085850   7.950187   6.523965   5.193245   7.512602
    22  S    7.907449   9.655022   8.586319   7.214895   9.390058
    23  S    5.126535   7.384400   5.627702   5.224245   7.618353
    24  Mo   5.176539   5.071308   3.802372   3.211984   2.334341
    25  S    7.287668   6.878187   5.917363   5.100540   3.896480
    26  S    5.100214   6.020749   3.384857   2.571424   3.679284
    27  Mo   5.971345   6.659152   5.006358   2.881927   3.928084
    28  S    7.189868   6.940580   6.590484   4.423489   3.822795
    29  H    8.220422   7.925414   7.347808   5.427655   4.695231
    30  H    8.065733   7.915346   7.620464   5.254476   4.969854
                   11         12         13         14         15
    11  S    0.000000
    12  Mo   2.412314   0.000000
    13  Mo   5.225795   6.106184   0.000000
    14  S    4.802817   2.497304   8.296431   0.000000
    15  S    3.620091   2.437633   7.136714   3.220191   0.000000
    16  S    7.588961   8.247832   2.379021  10.234223   9.225457
    17  S    6.194882   6.909674   2.531479   8.961409   7.083053
    18  Mo   7.319192   7.993517   2.902074   9.930862   9.515624
    19  S    9.073698   9.951101   4.762118  11.910355  11.544290
    20  S    7.510654   7.518842   4.031534   9.008193   9.241693
    21  Mo   4.928719   3.034915   8.029737   2.243970   4.926393
    22  S    6.585781   4.926735  10.015900   3.602560   6.567123
    23  S    5.917143   4.095225   7.431618   3.686437   6.015191
    24  Mo   4.397305   5.488558   3.106622   7.720659   5.457742
    25  S    5.561471   6.861843   5.062908   8.992478   6.207540
    26  S    3.902937   3.928436   4.144455   5.777526   3.578028
    27  Mo   2.367232   2.880952   5.462541   4.897987   2.267814
    28  S    3.165902   4.997813   6.087751   7.137135   4.596031
    29  H    4.436786   6.018003   6.798162   7.999780   5.135594
    30  H    3.446838   5.136814   7.279140   7.013478   4.617587
                   16         17         18         19         20
    16  S    0.000000
    17  S    3.249460   0.000000
    18  Mo   2.289709   4.983331   0.000000
    19  S    3.644421   6.641611   2.125510   0.000000
    20  S    3.725498   6.000238   2.249135   3.701641   0.000000
    21  Mo   9.869945   9.291260   9.080627  10.887485   7.961120
    22  S   11.836729  11.386439  10.845008  12.508374   9.628851
    23  S    8.856366   8.802969   7.994040   9.781207   6.467383
    24  Mo   4.925672   2.232032   6.002842   7.744798   6.928263
    25  S    6.590240   3.638412   7.876388   9.409827   9.008768
    26  S    5.985711   3.529866   6.833293   8.851020   7.017432
    27  Mo   7.678508   5.406464   8.079104  10.000971   8.298267
    28  S    8.311724   6.030029   8.707982  10.304304   9.508184
    29  H    8.864412   6.252919   9.543352  11.119323  10.440725
    30  H    9.560678   7.344495   9.799273  11.385656  10.475392
                   21         22         23         24         25
    21  Mo   0.000000
    22  S    2.122551   0.000000
    23  S    2.207621   3.618293   0.000000
    24  Mo   8.240910  10.265007   8.282474   0.000000
    25  S    9.819514  11.759638  10.140035   2.144538   0.000000
    26  S    6.647718   8.708590   6.720338   2.323284   3.714816
    27  Mo   5.914441   7.736984   6.742240   3.461566   4.215272
    28  S    7.871927   9.471927   8.883015   3.806403   3.577898
    29  H    8.969634  10.585201   9.958437   4.096979   3.136590
    30  H    7.825064   9.198392   9.137305   5.115917   4.829271
                   26         27         28         29         30
    26  S    0.000000
    27  Mo   2.337543   0.000000
    28  S    4.247200   2.649548   0.000000
    29  H    4.652806   3.352956   1.349529   0.000000
    30  H    5.221807   3.196344   1.354707   1.978606   0.000000
 Symmetry turned off by external request.
 Stoichiometry    H2Mo9S19
 Framework group  C1[X(H2Mo9S19)]
 Deg. of freedom    84
 Full point group                 C1      NOp   1
 Rotational constants (GHZ):           0.0552162           0.0340008           0.0234913
 General basis read from cards:  (5D, 7F)
 ======================================================================================================
                                       Pseudopotential Parameters
 ======================================================================================================
  Center     Atomic      Valence      Angular      Power
  Number     Number     Electrons     Momentum     of R      Exponent        Coefficient   SO-Coeffient
 ======================================================================================================
    1         42           14
                                      F and up 
                                                     0      537.9667807       -0.04694920    0.00000000
                                                     1      147.8982938      -20.20800840    0.00000000
                                                     2       45.7358898     -106.21163020    0.00000000
                                                     2       13.2911467      -41.81073680    0.00000000
                                                     2        4.7059961       -4.20541030    0.00000000
                                      S - F
                                                     0      110.2991760        2.80637170    0.00000000
                                                     1       23.2014645       44.51620120    0.00000000
                                                     2        5.3530131       82.77852270    0.00000000
                                      P - F
                                                     0       63.2901397        4.94208760    0.00000000
                                                     1       23.3315302       25.86049760    0.00000000
                                                     2       24.6759423      132.47087420    0.00000000
                                                     2        4.6493040       57.31497940    0.00000000
                                      D - F
                                                     0      104.4839977        3.00545910    0.00000000
                                                     1       66.2307245       26.36378510    0.00000000
                                                     2       39.1283176      183.38491990    0.00000000
                                                     2       13.1164437       98.44530680    0.00000000
                                                     2        3.6280263       22.49013770    0.00000000
    2         16
                                   No pseudopotential on this center.
    3         16
                                   No pseudopotential on this center.
    4         16
                                   No pseudopotential on this center.
    5         16
                                   No pseudopotential on this center.
    6         42           14
                                      F and up 
                                                     0      537.9667807       -0.04694920    0.00000000
                                                     1      147.8982938      -20.20800840    0.00000000
                                                     2       45.7358898     -106.21163020    0.00000000
                                                     2       13.2911467      -41.81073680    0.00000000
                                                     2        4.7059961       -4.20541030    0.00000000
                                      S - F
                                                     0      110.2991760        2.80637170    0.00000000
                                                     1       23.2014645       44.51620120    0.00000000
                                                     2        5.3530131       82.77852270    0.00000000
                                      P - F
                                                     0       63.2901397        4.94208760    0.00000000
                                                     1       23.3315302       25.86049760    0.00000000
                                                     2       24.6759423      132.47087420    0.00000000
                                                     2        4.6493040       57.31497940    0.00000000
                                      D - F
                                                     0      104.4839977        3.00545910    0.00000000
                                                     1       66.2307245       26.36378510    0.00000000
                                                     2       39.1283176      183.38491990    0.00000000
                                                     2       13.1164437       98.44530680    0.00000000
                                                     2        3.6280263       22.49013770    0.00000000
    7         16
                                   No pseudopotential on this center.
    8         16
                                   No pseudopotential on this center.
    9         42           14
                                      F and up 
                                                     0      537.9667807       -0.04694920    0.00000000
                                                     1      147.8982938      -20.20800840    0.00000000
                                                     2       45.7358898     -106.21163020    0.00000000
                                                     2       13.2911467      -41.81073680    0.00000000
                                                     2        4.7059961       -4.20541030    0.00000000
                                      S - F
                                                     0      110.2991760        2.80637170    0.00000000
                                                     1       23.2014645       44.51620120    0.00000000
                                                     2        5.3530131       82.77852270    0.00000000
                                      P - F
                                                     0       63.2901397        4.94208760    0.00000000
                                                     1       23.3315302       25.86049760    0.00000000
                                                     2       24.6759423      132.47087420    0.00000000
                                                     2        4.6493040       57.31497940    0.00000000
                                      D - F
                                                     0      104.4839977        3.00545910    0.00000000
                                                     1       66.2307245       26.36378510    0.00000000
                                                     2       39.1283176      183.38491990    0.00000000
                                                     2       13.1164437       98.44530680    0.00000000
                                                     2        3.6280263       22.49013770    0.00000000
   10         16
                                   No pseudopotential on this center.
   11         16
                                   No pseudopotential on this center.
   12         42           14
                                      F and up 
                                                     0      537.9667807       -0.04694920    0.00000000
                                                     1      147.8982938      -20.20800840    0.00000000
                                                     2       45.7358898     -106.21163020    0.00000000
                                                     2       13.2911467      -41.81073680    0.00000000
                                                     2        4.7059961       -4.20541030    0.00000000
                                      S - F
                                                     0      110.2991760        2.80637170    0.00000000
                                                     1       23.2014645       44.51620120    0.00000000
                                                     2        5.3530131       82.77852270    0.00000000
                                      P - F
                                                     0       63.2901397        4.94208760    0.00000000
                                                     1       23.3315302       25.86049760    0.00000000
                                                     2       24.6759423      132.47087420    0.00000000
                                                     2        4.6493040       57.31497940    0.00000000
                                      D - F
                                                     0      104.4839977        3.00545910    0.00000000
                                                     1       66.2307245       26.36378510    0.00000000
                                                     2       39.1283176      183.38491990    0.00000000
                                                     2       13.1164437       98.44530680    0.00000000
                                                     2        3.6280263       22.49013770    0.00000000
   13         42           14
                                      F and up 
                                                     0      537.9667807       -0.04694920    0.00000000
                                                     1      147.8982938      -20.20800840    0.00000000
                                                     2       45.7358898     -106.21163020    0.00000000
                                                     2       13.2911467      -41.81073680    0.00000000
                                                     2        4.7059961       -4.20541030    0.00000000
                                      S - F
                                                     0      110.2991760        2.80637170    0.00000000
                                                     1       23.2014645       44.51620120    0.00000000
                                                     2        5.3530131       82.77852270    0.00000000
                                      P - F
                                                     0       63.2901397        4.94208760    0.00000000
                                                     1       23.3315302       25.86049760    0.00000000
                                                     2       24.6759423      132.47087420    0.00000000
                                                     2        4.6493040       57.31497940    0.00000000
                                      D - F
                                                     0      104.4839977        3.00545910    0.00000000
                                                     1       66.2307245       26.36378510    0.00000000
                                                     2       39.1283176      183.38491990    0.00000000
                                                     2       13.1164437       98.44530680    0.00000000
                                                     2        3.6280263       22.49013770    0.00000000
   14         16
                                   No pseudopotential on this center.
   15         16
                                   No pseudopotential on this center.
   16         16
                                   No pseudopotential on this center.
   17         16
                                   No pseudopotential on this center.
   18         42           14
                                      F and up 
                                                     0      537.9667807       -0.04694920    0.00000000
                                                     1      147.8982938      -20.20800840    0.00000000
                                                     2       45.7358898     -106.21163020    0.00000000
                                                     2       13.2911467      -41.81073680    0.00000000
                                                     2        4.7059961       -4.20541030    0.00000000
                                      S - F
                                                     0      110.2991760        2.80637170    0.00000000
                                                     1       23.2014645       44.51620120    0.00000000
                                                     2        5.3530131       82.77852270    0.00000000
                                      P - F
                                                     0       63.2901397        4.94208760    0.00000000
                                                     1       23.3315302       25.86049760    0.00000000
                                                     2       24.6759423      132.47087420    0.00000000
                                                     2        4.6493040       57.31497940    0.00000000
                                      D - F
                                                     0      104.4839977        3.00545910    0.00000000
                                                     1       66.2307245       26.36378510    0.00000000
                                                     2       39.1283176      183.38491990    0.00000000
                                                     2       13.1164437       98.44530680    0.00000000
                                                     2        3.6280263       22.49013770    0.00000000
   19         16
                                   No pseudopotential on this center.
   20         16
                                   No pseudopotential on this center.
   21         42           14
                                      F and up 
                                                     0      537.9667807       -0.04694920    0.00000000
                                                     1      147.8982938      -20.20800840    0.00000000
                                                     2       45.7358898     -106.21163020    0.00000000
                                                     2       13.2911467      -41.81073680    0.00000000
                                                     2        4.7059961       -4.20541030    0.00000000
                                      S - F
                                                     0      110.2991760        2.80637170    0.00000000
                                                     1       23.2014645       44.51620120    0.00000000
                                                     2        5.3530131       82.77852270    0.00000000
                                      P - F
                                                     0       63.2901397        4.94208760    0.00000000
                                                     1       23.3315302       25.86049760    0.00000000
                                                     2       24.6759423      132.47087420    0.00000000
                                                     2        4.6493040       57.31497940    0.00000000
                                      D - F
                                                     0      104.4839977        3.00545910    0.00000000
                                                     1       66.2307245       26.36378510    0.00000000
                                                     2       39.1283176      183.38491990    0.00000000
                                                     2       13.1164437       98.44530680    0.00000000
                                                     2        3.6280263       22.49013770    0.00000000
   22         16
                                   No pseudopotential on this center.
   23         16
                                   No pseudopotential on this center.
   24         42           14
                                      F and up 
                                                     0      537.9667807       -0.04694920    0.00000000
                                                     1      147.8982938      -20.20800840    0.00000000
                                                     2       45.7358898     -106.21163020    0.00000000
                                                     2       13.2911467      -41.81073680    0.00000000
                                                     2        4.7059961       -4.20541030    0.00000000
                                      S - F
                                                     0      110.2991760        2.80637170    0.00000000
                                                     1       23.2014645       44.51620120    0.00000000
                                                     2        5.3530131       82.77852270    0.00000000
                                      P - F
                                                     0       63.2901397        4.94208760    0.00000000
                                                     1       23.3315302       25.86049760    0.00000000
                                                     2       24.6759423      132.47087420    0.00000000
                                                     2        4.6493040       57.31497940    0.00000000
                                      D - F
                                                     0      104.4839977        3.00545910    0.00000000
                                                     1       66.2307245       26.36378510    0.00000000
                                                     2       39.1283176      183.38491990    0.00000000
                                                     2       13.1164437       98.44530680    0.00000000
                                                     2        3.6280263       22.49013770    0.00000000
   25         16
                                   No pseudopotential on this center.
   26         16
                                   No pseudopotential on this center.
   27         42           14
                                      F and up 
                                                     0      537.9667807       -0.04694920    0.00000000
                                                     1      147.8982938      -20.20800840    0.00000000
                                                     2       45.7358898     -106.21163020    0.00000000
                                                     2       13.2911467      -41.81073680    0.00000000
                                                     2        4.7059961       -4.20541030    0.00000000
                                      S - F
                                                     0      110.2991760        2.80637170    0.00000000
                                                     1       23.2014645       44.51620120    0.00000000
                                                     2        5.3530131       82.77852270    0.00000000
                                      P - F
                                                     0       63.2901397        4.94208760    0.00000000
                                                     1       23.3315302       25.86049760    0.00000000
                                                     2       24.6759423      132.47087420    0.00000000
                                                     2        4.6493040       57.31497940    0.00000000
                                      D - F
                                                     0      104.4839977        3.00545910    0.00000000
                                                     1       66.2307245       26.36378510    0.00000000
                                                     2       39.1283176      183.38491990    0.00000000
                                                     2       13.1164437       98.44530680    0.00000000
                                                     2        3.6280263       22.49013770    0.00000000
   28         16
                                   No pseudopotential on this center.
   29          1
                                   No pseudopotential on this center.
   30          1
                                   No pseudopotential on this center.
 ======================================================================================================
   550 basis functions,  1443 primitive gaussians,   587 cartesian basis functions
   216 alpha electrons      216 beta electrons
       nuclear repulsion energy     10159.4755719725 Hartrees.
 NAtoms=   30 NActive=   30 NUniq=   30 SFac= 1.00D+00 NAtFMM=   60 NAOKFM=F Big=F
 Integral buffers will be    131072 words long.
 Raffenetti 2 integral format.
 Two-electron integral symmetry is turned off.
 One-electron integrals computed using PRISM.
   1 Symmetry operations used in ECPInt.
 ECPInt:  NShTT=   15051 NPrTT=  119091 LenC2=   13027 LenP2D=   61286.
 LDataN:  DoStor=T MaxTD1= 5 Len=  102
 NBasis=   550 RedAO= T EigKep=  1.77D-04  NBF=   550
 NBsUse=   550 1.00D-06 EigRej= -1.00D+00 NBFU=   550
 Defaulting to unpruned grid for atomic number  42.
 Defaulting to unpruned grid for atomic number  42.
 Defaulting to unpruned grid for atomic number  42.
 Defaulting to unpruned grid for atomic number  42.
 Defaulting to unpruned grid for atomic number  42.
 Defaulting to unpruned grid for atomic number  42.
 Defaulting to unpruned grid for atomic number  42.
 Defaulting to unpruned grid for atomic number  42.
 Defaulting to unpruned grid for atomic number  42.
 ExpMin= 2.47D-02 ExpMax= 2.19D+04 ExpMxC= 3.30D+03 IAcc=3 IRadAn=         5 AccDes= 0.00D+00
 Harris functional with IExCor=  402 and IRadAn=       5 diagonalized for initial guess.
 HarFok:  IExCor=  402 AccDes= 0.00D+00 IRadAn=         5 IDoV= 1 UseB2=F ITyADJ=14
 ICtDFT=  3500011 ScaDFX=  1.000000  1.000000  1.000000  1.000000
 Defaulting to unpruned grid for atomic number  42.
 FoFCou: FMM=F IPFlag=           0 FMFlag=      100000 FMFlg1=           0
         NFxFlg=           0 DoJE=T BraDBF=F KetDBF=T FulRan=T
         wScrn=  0.000000 ICntrl=       500 IOpCl=  0 I1Cent=   200000004 NGrid=           0
         NMat0=    1 NMatS0=      1 NMatT0=    0 NMatD0=    1 NMtDS0=    0 NMtDT0=    0
 Symmetry not used in FoFCou.
 Requested convergence on RMS density matrix=1.00D-08 within 128 cycles.
 Requested convergence on MAX density matrix=1.00D-06.
 Requested convergence on             energy=1.00D-06.
 No special actions if energy rises.
 Defaulting to unpruned grid for atomic number  42.
 Defaulting to unpruned grid for atomic number  42.
 Defaulting to unpruned grid for atomic number  42.
 Defaulting to unpruned grid for atomic number  42.
 Defaulting to unpruned grid for atomic number  42.
 Defaulting to unpruned grid for atomic number  42.
 Defaulting to unpruned grid for atomic number  42.
 Defaulting to unpruned grid for atomic number  42.
 Defaulting to unpruned grid for atomic number  42.
 Defaulting to unpruned grid for atomic number  42.
 Defaulting to unpruned grid for atomic number  42.
 Defaulting to unpruned grid for atomic number  42.
 Defaulting to unpruned grid for atomic number  42.
[...]
 146396,-0.00252906,0.00243961,0.08211663,-0.07590921,-0.00699332,0.000
 06191,-0.00160070,-0.00224499,0.00044843,0.00024210,0.00082254,-0.0007
 7442,0.00026015,-0.00060024,-0.00069534,-0.00094533,-0.00072621,-0.000
 03024,0.00009712,-0.00011394,-0.00041813,0.00035189,0.00020927,-0.0223
 5787,0.24127522,0.00162372,-0.00115387,-0.00165950,-0.00218586,0.00095
 318,-0.00120730,0.00018229,0.00008575,0.00024538,-0.00153361,-0.000526
 98,-0.00036956,0.00021974,-0.00029547,0.00003276,-0.00006570,0.0002209
 1,-0.00258549,0.00167192,-0.00010289,0.00141789,0.00199446,0.00070146,
 -0.00340395,0.00563530,0.01377489,-0.00241061,0.00294136,0.00904728,-0
 .01273876,0.00082640,-0.00185545,-0.00145522,-0.00115463,-0.00117020,0
 .00032577,-0.00312681,0.00444155,-0.00575164,0.00006490,0.00013212,-0.
 00040214,0.00175593,0.00091818,0.00031846,0.00305671,0.00091778,-0.000
 36079,0.02444084,-0.01422715,-0.02011775,0.00175764,0.00000527,-0.0002
 6027,-0.00119883,-0.00055585,-0.00081747,0.00003414,-0.00013517,0.0003
 4386,-0.00073596,0.00083104,-0.00001025,0.00029762,-0.00047983,0.00030
 194,0.00050640,-0.00017513,0.00019856,-0.07091935,-0.02761424,0.338343
 37,0.00033856,-0.00042613,-0.00105516,0.00009039,0.00063075,-0.0004768
 8,0.00002364,-0.00004722,-0.00000094,-0.00030529,0.00011642,0.00010640
 ,-0.00007511,-0.00003963,0.00008727,0.00006347,0.00001372,-0.00011235,
 -0.00042721,-0.00025956,-0.00041842,0.00044391,0.00019035,-0.00085046,
 0.00030801,-0.00172356,0.00465810,-0.00083077,-0.00137317,0.00100028,0
 .00003158,-0.00014997,-0.00040847,0.00026203,-0.00076516,0.00046907,0.
 00335844,0.00135359,-0.00086700,0.00003415,0.00012028,0.00003048,0.000
 00975,0.00014636,-0.00006196,-0.00031026,-0.00003283,0.00014644,-0.003
 80154,-0.00069318,0.00514878,0.00015257,-0.00002281,0.00044485,-0.0002
 4754,-0.00008954,-0.00004787,-0.00011616,0.00007637,-0.00009032,-0.000
 12830,0.00026917,-0.00020026,0.00013593,-0.00021863,0.00011809,0.00012
 118,0.00002137,0.00007870,-0.05117785,-0.00968291,0.08131683,0.0463520
 2,-0.00004235,0.00016918,0.00064767,0.00029866,-0.00023127,0.00030915,
 -0.00001546,0.00002209,0.00002040,0.00034618,0.00000129,-0.00005789,0.
 00001327,0.00000042,-0.00005436,-0.00036004,0.00022871,0.00010058,0.00
 012984,0.00025906,-0.00015845,-0.00008258,-0.00037697,-0.00013671,-0.0
 0113337,0.00058427,-0.00208676,-0.00116371,0.00126420,0.00539524,-0.00
 004668,0.00009743,-0.00040105,-0.00040714,0.00020050,0.00003198,0.0004
 8870,-0.00002839,0.00091035,0.00001667,0.00004434,0.00016370,0.0004498
 4,-0.00008910,-0.00002739,0.00001915,0.00014258,-0.00000944,-0.0038471
 1,0.00442246,-0.00546068,-0.00006324,0.00008007,0.00003324,-0.00006531
 ,-0.00002694,-0.00004990,0.00011600,0.00000430,0.00004608,0.00015499,0
 .00007253,-0.00019887,0.00003182,-0.00004254,0.00002781,-0.00013412,0.
 00001374,-0.00002530,-0.01011065,-0.02450135,0.03522938,0.01209849,0.0
 1669866,-0.00030793,0.00017596,0.00037335,0.00043524,-0.00023194,0.000
 36289,-0.00007441,0.00005409,-0.00023925,0.00048713,0.00016494,-0.0000
 4471,-0.00006285,0.00005308,0.00001202,0.00028377,0.00015508,0.0011997
 5,-0.00083737,0.00055767,-0.00000880,-0.00016094,-0.00028281,0.0008270
 2,-0.00315677,0.00019292,-0.00285394,0.00103340,0.00476570,0.00048400,
 -0.00017043,0.00081216,0.00057177,0.00030172,0.00036701,-0.00008287,0.
 00858522,0.00208012,-0.00390262,-0.00012856,-0.00011048,0.00004208,-0.
 00071022,-0.00016684,0.00015306,-0.00068464,-0.00058676,0.00062382,0.0
 0772899,-0.00590796,0.00107672,-0.00174944,-0.00090506,0.00016068,0.00
 084170,0.00033163,0.00039518,-0.00012501,0.00007337,-0.00022024,0.0005
 3028,-0.00052818,0.00014285,-0.00027671,0.00043324,-0.00023412,-0.0001
 4402,0.00003251,-0.00005459,0.07842290,0.03234450,-0.22980299,-0.08806
 354,-0.03366270,0.23714278,0.00025767,-0.00147750,-0.00009454,0.001346
 96,0.00063177,-0.00198002,0.00035027,0.00000185,0.00026288,-0.00033808
 ,-0.00405628,0.00158344,-0.00021812,0.00021221,-0.00054975,-0.00051338
 ,0.00132102,0.00131223,-0.00023841,-0.00003871,-0.00035610,-0.00493417
 ,-0.00543331,0.00324946,-0.00867556,0.00916253,-0.00012947,0.00009823,
 -0.00208164,-0.00171995,0.00313484,0.00380510,0.00067256,-0.00018631,-
 0.00540760,0.00698409,0.00080476,0.00200790,-0.00052929,0.00030286,0.0
 0039381,-0.00046977,-0.00351119,-0.00075284,-0.00549380,-0.00004131,-0
 .00007405,0.00020645,-0.00613319,0.00124724,-0.00127225,-0.00005043,0.
 00000166,-0.00034289,0.00019627,0.00008488,0.00002422,0.00057464,-0.00
 050019,0.00025123,-0.00006256,0.00026451,-0.00070331,0.00010025,-0.000
 04700,-0.00007663,-0.00028966,0.00019943,0.00009755,-0.04703940,-0.021
 77019,-0.04228311,0.00315368,0.00370980,-0.00152402,0.11638714,-0.0014
 6894,-0.00003429,0.00046215,-0.00095851,-0.00098186,0.00183559,-0.0004
 0667,0.00025556,-0.00009419,-0.00174540,-0.00196290,0.00077236,-0.0000
 8251,0.00022904,-0.00075922,-0.00084356,-0.00172176,0.00096192,-0.0000
 9632,0.00015045,0.00000237,0.00137036,-0.00113377,0.00063542,-0.003903
 26,-0.01382689,0.00288791,-0.00346071,0.00128961,-0.00409668,0.0029787
 7,-0.00184831,-0.00122628,-0.00025816,-0.00240160,0.00475900,-0.001805
 40,-0.00061415,0.00159542,-0.00004675,0.00014338,-0.00068496,0.0017875
 5,0.00337878,0.00476546,0.00031284,0.00017421,0.00021446,-0.00005069,0
 .00205008,0.00234574,0.00013038,-0.00030125,-0.00015638,0.00006682,0.0
 0001207,-0.00001070,0.00007133,0.00021334,0.00013402,0.00012437,0.0007
 5430,-0.00066828,0.00009034,-0.00011900,0.00002695,-0.00034873,0.00009
 072,-0.00001718,-0.02264806,-0.02232475,-0.02183297,0.00209912,0.00111
 697,-0.00076786,-0.02845186,0.10542723,-0.00143834,0.00026353,0.000274
 79,0.00172018,0.00586344,-0.00388405,0.00033412,0.00000110,0.00011834,
 0.00337928,0.00356052,-0.00300849,0.00003990,0.00004909,-0.00004608,0.
 00137909,0.00083100,0.00164185,0.00010738,-0.00007158,-0.00001544,0.00
 125502,0.00258682,-0.00051122,-0.00598851,-0.00988929,-0.00453543,-0.0
 0083629,-0.00308605,0.00057427,0.00029692,0.00201086,0.00097083,-0.000
 51271,0.00017194,-0.00163621,0.00115030,0.00118214,-0.00101186,0.00011
 177,-0.00007129,0.00010767,-0.00307312,0.00273353,0.00135557,0.0003413
 5,0.00008446,-0.00006119,-0.00375768,0.00392372,0.00306918,0.00007368,
 -0.00003428,0.00015126,-0.00010588,-0.00004002,-0.00003928,0.00005480,
 0.00005198,-0.00004613,-0.00033084,-0.00003049,0.00066179,-0.00006844,
 0.00000385,0.00002935,0.00069841,0.00000578,-0.00008139,-0.04230733,-0
 .01751560,-0.06130395,-0.00245279,-0.00170893,-0.00486326,0.03560070,0
 .02132375,0.08243183,-0.00594991,-0.00171937,0.00209698,-0.00015466,0.
 00105777,0.00284673,-0.00027896,0.00015898,0.00031133,-0.00088532,0.00
 310657,-0.00026785,0.00158265,-0.00408558,0.00138988,-0.00096300,0.000
 49912,0.00310519,0.00061939,0.00017146,0.00003046,-0.00191674,0.002047
 82,0.00080148,-0.01671077,-0.02804539,-0.00062109,-0.00122361,-0.00195
 215,0.00244981,-0.02556722,-0.03831658,0.00196463,-0.00001520,0.028958
 87,-0.02143474,-0.00260355,-0.00090625,0.00101841,-0.00014684,-0.00390
 187,0.00088258,-0.08545884,-0.00833698,-0.07779891,0.00046155,0.000177
 51,-0.00036987,0.00026304,-0.00041431,0.00019166,0.00024056,-0.0009720
 2,-0.00037839,0.00023924,0.00012029,-0.00002479,0.00074248,-0.00004179
 ,0.00056053,0.00022914,-0.00024869,0.00281824,-0.00044403,0.00079587,0
 .00004961,0.00017909,0.00010167,-0.00026244,-0.01177069,0.00316654,-0.
 00517305,0.00333428,-0.00062593,-0.00023078,-0.05226935,0.05748560,0.0
 1365624,0.22774093,-0.00075422,-0.00649497,-0.00321613,0.00429365,0.00
 091058,-0.00208308,-0.00009987,0.00028064,0.00043744,-0.00309024,-0.00
 224967,0.00292193,-0.00110594,-0.00149955,0.00385644,0.00020821,0.0019
 1624,-0.00303766,-0.00022203,-0.00024129,0.00001713,-0.00122867,-0.007
 07781,-0.00251021,-0.01077139,0.01366492,0.00887418,0.00226198,-0.0041
 2862,-0.00032944,-0.03890472,-0.10230108,0.00181391,0.00847278,0.00059
 354,0.02075662,-0.00297402,0.00353203,0.00006331,-0.00186166,-0.002076
 85,0.00206131,-0.00437227,-0.01960662,-0.00376364,0.00068213,0.0000502
 2,-0.00016059,0.00002605,0.00078805,0.00030661,0.00043566,-0.00077709,
 -0.00032921,0.00010880,0.00013459,-0.00003299,0.00020284,-0.00028548,0
 .00071169,0.00175948,-0.00080607,0.00047808,-0.00119537,0.00113095,0.0
 0025315,0.00147702,-0.00047458,0.00010979,0.01134006,0.00742684,0.0018
 3926,-0.00185802,-0.00063191,0.00074477,0.04449117,-0.07203656,-0.0072
 3802,-0.00692791,0.19906907,-0.00232073,-0.00011311,0.00146226,0.00590
 361,-0.00130594,-0.00491958,-0.00117660,0.00066664,-0.00027010,-0.0016
 2315,-0.00031630,0.00103141,0.00212016,-0.00154156,0.00197223,-0.00365
 201,-0.00067355,-0.00056866,-0.00071315,-0.00000539,-0.00042826,0.0045
 3894,-0.00273039,0.00194778,0.00266609,0.01506465,-0.00313614,0.001307
 41,0.00003848,-0.00108452,0.00116316,0.00307859,-0.00396419,0.00313331
 ,0.03237608,-0.04152107,0.00095563,-0.00271912,-0.00107749,-0.00313005
 ,0.00044789,-0.00046281,-0.08690100,-0.00865550,-0.10885580,-0.0004720
 4,0.00039900,0.00098461,0.00027553,0.00008350,-0.00049381,0.00009975,-
 0.00113901,-0.00058244,0.00037288,0.00022938,0.00014701,0.00024961,0.0
 0032843,0.00046438,0.00112801,-0.00177336,-0.00237839,0.00025192,-0.00
 016064,0.00031003,-0.00103751,0.00062256,0.00021952,-0.00584112,-0.000
 62557,0.00269447,0.00062390,0.00081807,-0.00031645,0.00207017,-0.01243
 181,-0.01000835,0.05483649,-0.02794015,0.20553930,0.00080944,-0.000182
 10,0.00039750,0.00038535,-0.00065840,-0.00033120,-0.00016039,0.0000280
 8,-0.00017798,-0.00005235,-0.00044646,0.00011832,-0.00006659,0.0001651
 4,-0.00011836,-0.00039036,0.00037325,0.00046551,-0.00010159,0.00002710
 ,-0.00011548,0.00030237,-0.00040544,0.00030138,-0.00101274,0.00384305,
 -0.00079687,-0.00003610,0.00040228,-0.00060012,0.00046965,0.00033138,0
 .00046547,-0.00071442,-0.00469707,0.00553488,0.00120639,-0.00002332,-0
 .00067902,-0.00006141,0.00086067,-0.00056299,0.00201883,0.00080071,-0.
 00223155,-0.00022676,-0.00007891,0.00012480,0.00057501,-0.00011303,-0.
 00004387,-0.00030810,-0.00019679,0.00011922,0.00026265,0.00011646,0.00
 009761,0.00001226,-0.00002413,-0.00003268,0.00015148,-0.00020583,-0.00
 127456,0.00000774,0.00009954,-0.00006537,-0.00038906,0.00020346,0.0000
 3435,-0.00019870,-0.00049676,-0.00037047,-0.00092686,-0.00010985,0.000
 45834,-0.00361957,-0.00010327,0.00180305,-0.01901546,-0.00074660,0.016
 94642,0.29571330,-0.00050451,0.00107305,-0.00010737,-0.00118359,-0.000
 05004,0.00038421,-0.00003800,0.00009861,0.00010608,0.00039997,0.000395
 90,-0.00051090,0.00008465,0.00043532,0.00010313,0.00030844,-0.00110648
 ,0.00020787,-0.00003586,0.00003370,0.00012099,-0.00002072,0.00218813,0
 .00046904,0.00284091,-0.00549938,0.00001345,-0.00094202,0.00060638,0.0
 0012896,-0.00357200,-0.00020792,0.00269722,-0.00027615,-0.00266160,0.0
 0077708,-0.00003185,-0.00028726,0.00040874,0.00010797,0.00059234,-0.00
 019106,-0.00161652,0.00120832,-0.00260343,0.00009106,0.00002560,-0.000
 02549,-0.00055148,-0.00039285,0.00003270,-0.00012526,0.00014884,-0.000
 05678,-0.00000784,-0.00004460,0.00001664,-0.00000139,0.00006804,-0.000
 20912,-0.00043565,-0.00038144,0.00024051,0.00012229,-0.00009243,-0.000
 11197,-0.00012878,-0.00002218,-0.00009644,0.00076821,-0.00122278,0.001
 23838,0.00030040,0.00051404,-0.00022336,0.00178810,0.00430114,-0.00556
 885,0.00296925,-0.01573033,0.00503451,-0.00576509,0.29538187,-0.000971
 94,0.00012495,0.00018390,-0.00076534,0.00039334,0.00101085,0.00007907,
 0.00008610,0.00024708,0.00021227,0.00104983,-0.00091239,-0.00020302,0.
 00023542,-0.00037072,-0.00065446,0.00032447,0.00160162,0.00033434,0.00
 014353,-0.00003049,-0.00156379,0.00057782,0.00018601,0.00793569,-0.004
 80243,-0.00301068,-0.00035569,-0.00076641,0.00068687,-0.00135372,-0.00
 042537,-0.00064014,0.00168246,-0.00035596,0.00135044,-0.00026930,-0.00
 017346,0.00101869,-0.00010281,0.00009944,-0.00044598,0.00152611,0.0005
 6077,-0.00262695,0.00016952,-0.00002185,-0.00018879,-0.00083196,0.0000
 4874,0.00021439,0.00017424,0.00013311,-0.00003011,-0.00013047,-0.00007
 953,-0.00006879,0.00021199,-0.00009973,0.00006647,-0.00006670,0.000031
 46,0.00040715,0.00007868,-0.00013338,-0.00003149,0.00009665,-0.0001443
 8,-0.00023567,-0.00031468,-0.00022499,0.00130094,0.00174472,0.00039832
 ,-0.00188423,0.00794732,0.00070760,-0.00102524,-0.00043052,0.00568822,
 -0.03097687,0.01406647,-0.00038487,0.04446315,-0.00040567,0.00000404,-
 0.00059334,-0.00015190,0.00028091,-0.00000547,0.00002749,0.00002794,0.
 00012607,-0.00003004,0.00024419,-0.00007662,-0.00024768,0.00006140,-0.
 00012492,-0.00019884,0.00001512,0.00003573,0.00007283,-0.00000429,0.00
 001942,-0.00010361,0.00014316,0.00028537,0.00102313,-0.00118838,-0.000
 36058,-0.00018810,-0.00004312,0.00018070,-0.00044523,-0.00016534,0.000
 06178,0.00095685,-0.00142150,0.00181686,-0.00028554,-0.00033453,0.0002
 4229,0.00016065,0.00015697,-0.00028167,-0.00082167,0.00115427,-0.00046
 294,0.00009164,0.00004124,-0.00003015,-0.00025972,-0.00002808,0.000040
 41,0.00022995,0.00006465,-0.00004324,-0.00014536,-0.00006758,-0.000043
 14,0.00003810,-0.00000925,0.00004143,-0.00009634,0.00036898,0.00005821
 ,0.00014184,-0.00019035,0.00002906,0.00007550,-0.00011041,-0.00005439,
 0.00064770,0.00031475,0.00036926,0.00028600,0.00046342,-0.00056359,0.0
 0047624,0.00045167,-0.00172880,-0.00406734,-0.00279972,0.00558737,-0.1
 0804446,-0.11621444,-0.01315304,0.10098596,-0.00001636,-0.00006855,-0.
 00010469,-0.00006892,0.00002678,0.00002505,0.00000069,0.00000471,0.000
 01477,-0.00000684,-0.00000717,0.00003704,-0.00000956,0.00005491,0.0000
 7700,-0.00004257,0.00005606,0.00002323,0.00001591,0.00000067,-0.000002
 82,-0.00001270,-0.00004655,0.00004740,0.00030656,0.00018224,-0.0002914
 9,-0.00008423,0.00002070,0.00003798,0.00039978,-0.00048215,-0.00042212
 ,-0.00003113,-0.00034700,0.00015579,-0.00003529,-0.00008784,0.00001597
 ,0.00004575,0.00008573,-0.00005989,0.00006630,0.00029167,-0.00023122,0
 .00001868,-0.00000282,-0.00000452,0.00000703,-0.00001692,0.00000956,0.
 00003444,-0.00000073,0.00000116,-0.00001076,-0.00000326,-0.00000412,0.
 00000496,-0.00000610,0.00001436,-0.00001487,-0.00000087,-0.00001057,0.
 00001928,-0.00002199,0.00000322,0.00001526,-0.00001430,-0.00000837,0.0
 0002212,0.00008248,0.00005593,0.00007131,-0.00000911,-0.00006362,0.000
 52001,-0.00022307,0.00010738,-0.00405676,0.00302437,0.00484654,-0.0904
 8540,-0.16359127,-0.01519591,0.10277292,0.17790439,0.00018219,-0.00038
 704,-0.00009665,0.00044144,0.00003238,-0.00021945,0.00004750,-0.000051
 95,-0.00006972,-0.00017424,-0.00026973,0.00030146,-0.00002719,-0.00017
 006,0.00002337,-0.00000084,0.00040287,-0.00032676,-0.00002234,-0.00003
 808,-0.00002781,0.00007973,-0.00090448,-0.00025647,-0.00187402,0.00250
 383,0.00075758,0.00041229,-0.00013241,-0.00012953,0.00089415,0.0005774
 1,-0.00020645,0.00024755,0.00166400,-0.00113532,-0.00014027,0.00022500
 ,-0.00022225,-0.00007426,-0.00037191,0.00013452,-0.00055748,-0.0005364
 4,0.00087681,-0.00001073,-0.00001592,0.00000858,0.00028053,0.00009469,
 -0.00002799,0.00000635,-0.00008546,0.00000233,0.00004697,0.00003867,0.
 00000776,-0.00001784,-0.00001776,0.00007700,0.00021931,0.00010601,0.00
 009458,-0.00009618,0.00010548,0.00001580,0.00007486,-0.00000129,0.0000
 4946,0.00016614,0.00055161,-0.00057185,-0.00039444,-0.00004147,0.00044
 040,-0.00263110,-0.00149452,0.00126703,0.00843061,0.00447814,-0.003410
 00,-0.01337174,-0.02325589,-0.00568011,0.00778397,0.01406542,0.0095411
 6,0.00025293,-0.00009121,0.00018489,0.00015076,-0.00003617,-0.00003139
 ,-0.00002132,-0.00000284,-0.00001437,0.00009561,0.00001156,-0.00001152
 ,-0.00011130,-0.00008692,-0.00012571,0.00014920,-0.00001207,0.00006784
 ,0.00001715,-0.00000331,-0.00001782,-0.00011584,0.00004637,-0.00018557
 ,-0.00024200,0.00001809,-0.00040131,0.00014554,-0.00014851,0.00000491,
 0.00012653,-0.00067519,-0.00027942,0.00007438,0.00011399,-0.00001484,0
 .00013946,0.00021945,-0.00000786,-0.00006457,-0.00000905,0.00007838,0.
 00096633,-0.00077611,0.00007609,-0.00006598,-0.00001656,-0.00002037,0.
 00004130,0.00004583,0.00001619,0.00001510,0.00008448,0.00008571,-0.000
 05560,-0.00002269,-0.00001620,-0.00003859,-0.00000246,-0.00003053,0.00
 001267,0.00007940,-0.00023598,0.00002779,-0.00006428,0.00004833,-0.000
 03198,0.00003455,0.00004077,-0.00053635,-0.00001819,0.00005189,-0.0001
 5270,-0.00012929,-0.00013743,0.00093690,-0.00029034,0.00059853,-0.0061
 9087,0.00315283,0.00263700,-0.16658954,0.12166989,-0.01509209,0.010277
 63,-0.00944559,0.00007910,0.16078737,0.00004737,-0.00006083,-0.0000470
 3,0.00005844,-0.00003496,-0.00003183,-0.00003983,0.00000523,0.00001740
 ,-0.00003786,-0.00001943,0.00004644,-0.00007038,-0.00010280,-0.0000594
 5,-0.00006217,-0.00001073,0.00000873,0.00000280,-0.00000947,-0.0000087
 0,0.00007708,-0.00003392,0.00004718,0.00000203,0.00022942,-0.00027491,
 -0.00003185,0.00007471,-0.00002133,0.00027295,-0.00039660,-0.00059610,
 0.00009105,-0.00004407,0.00075774,-0.00002213,-0.00008355,-0.00001372,
 -0.00000143,0.00007782,-0.00008677,-0.00002535,-0.00015682,0.00061478,
 -0.00000072,0.00001601,0.00000291,-0.00000684,0.00003276,0.00000936,0.
 00006968,0.00001106,0.00001559,-0.00004355,-0.00001752,-0.00001082,-0.
 00000318,0.00000522,0.00000765,-0.00002974,0.00013528,-0.00016855,0.00
 006511,-0.00008369,0.00003456,-0.00002971,0.00000434,0.00000257,0.0000
 0814,-0.00013942,-0.00026718,-0.00012538,0.00000074,0.00009879,0.00024
 819,-0.00005675,0.00049950,-0.00026574,0.00389645,-0.00190292,0.097487
 32,-0.11578074,0.01220514,0.01601136,-0.01680501,0.00292889,-0.1136456
 5,0.12934726,0.00005561,0.00013717,-0.00013475,-0.00031477,-0.00007420
 ,0.00008702,-0.00002095,0.00000470,0.00000367,0.00008022,-0.00007791,0
 .00009240,0.00002554,0.00004961,0.00019981,0.00026878,-0.00027761,-0.0
 0024208,-0.00004101,-0.00003263,0.00003874,0.00013266,0.00042817,0.000
 00127,-0.00011413,-0.00049049,0.00024902,-0.00022298,0.00035833,-0.000
 02160,-0.00056913,-0.00029565,0.00057025,-0.00016287,0.00014063,-0.000
 87726,-0.00011450,0.00003445,-0.00006305,0.00002695,0.00000716,0.00011
 871,-0.00130001,0.00008012,-0.00106837,0.00000995,0.00000230,-0.000006
 68,-0.00001579,-0.00005600,-0.00001880,-0.00001539,0.00005947,0.000024
 73,-0.00001888,-0.00001190,0.00000140,-0.00005281,0.00002402,-0.000063
 60,-0.00001822,-0.00011475,0.00006374,0.00000536,0.00000043,-0.0000133
 0,-0.00003689,0.00000535,0.00002427,0.00010534,-0.00030836,-0.00029390
 ,-0.00047303,-0.00005209,0.00049969,-0.00010630,0.00081092,-0.00057620
 ,0.00955159,-0.00477088,-0.00231809,-0.02016105,0.02136602,-0.00457892
 ,0.00084394,-0.00313846,-0.00121750,0.01265278,-0.01380794,0.00951936\
 \-0.00000691,0.00001068,0.00001281,0.00000482,-0.00000433,0.00000932,0
 .00000117,-0.00000598,0.00000021,-0.00000519,-0.00000354,0.00000077,-0
 .00001378,0.00001052,-0.00001136,-0.00001264,0.00002157,-0.00002894,-0
 .00000261,-0.00000124,0.00001178,-0.00000633,0.00000931,0.00000882,-0.
 00001315,-0.00004921,0.00000693,-0.00000719,0.00000044,0.00001605,0.00
 000439,0.00000502,-0.00002109,0.00000347,0.00000446,0.00000735,0.00004
 661,-0.00000973,-0.00002236,0.00000319,0.00000140,-0.00000904,0.000008
 98,0.00000659,-0.00000352,-0.00000699,0.00000095,0.00000578,0.00000013
 ,0.00000423,0.00001049,-0.00000802,0.00000263,-0.00001365,-0.00000193,
 0.00000309,0.00000855,-0.00000178,-0.00000447,0.00000311,0.00000196,-0
 .00000923,-0.00000235,-0.00000267,-0.00000072,0.00000263,0.00000264,-0
 .00000341,-0.00000673,-0.00001163,0.00000643,-0.00000624,0.00000522,0.
 00000398,-0.00000003,0.00000673,-0.00000817,-0.00000085,0.00000954,0.0
 0001508,0.00002334,0.00000410,-0.00000733,-0.00000931,-0.00000099,0.00
 000100,0.00000358,-0.00000115,-0.00000001,0.00000397\\\@
 The archive entry for this job was punched.


 THE HURRIEDER I GO, THE BEHINDER I GET.
 Job cpu time:       0 days  8 hours 40 minutes  6.8 seconds.
 Elapsed time:       0 days  0 hours 11 minutes 21.8 seconds.
 File lengths (MBytes):  RWF=   1469 Int=      0 D2E=      0 Chk=     29 Scr=      2
 Normal termination of Gaussian 16 at Sat Dec 10 17:37:57 2022.
