 Entering Gaussian System, Link 0=/apps/GAU16/avx2/g16/g16
 Initial command:
 /apps/GAU16/avx2//g16/l1.exe "/localscratch/chegho/Gau-72786.inp" -scrdir="/localscratch/chegho/"
 Entering Link 1 = /apps/GAU16/avx2//g16/l1.exe PID=     72788.
  
 Copyright (c) 1988-2019, Gaussian, Inc.  All Rights Reserved.
  
 This is part of the Gaussian(R) 16 program.  It is based on
 the Gaussian(R) 09 system (copyright 2009, Gaussian, Inc.),
 the Gaussian(R) 03 system (copyright 2003, Gaussian, Inc.),
 the Gaussian(R) 98 system (copyright 1998, Gaussian, Inc.),
 the Gaussian(R) 94 system (copyright 1995, Gaussian, Inc.),
 the Gaussian 92(TM) system (copyright 1992, Gaussian, Inc.),
 the Gaussian 90(TM) system (copyright 1990, Gaussian, Inc.),
 the Gaussian 88(TM) system (copyright 1988, Gaussian, Inc.),
 the Gaussian 86(TM) system (copyright 1986, Carnegie Mellon
 University), and the Gaussian 82(TM) system (copyright 1983,
 Carnegie Mellon University). Gaussian is a federally registered
 trademark of Gaussian, Inc.
  
 This software contains proprietary and confidential information,
 including trade secrets, belonging to Gaussian, Inc.
  
 This software is provided under written license and may be
 used, copied, transmitted, or stored only in accord with that
 written license.
  
 The following legend is applicable only to US Government
 contracts under FAR:
  
                    RESTRICTED RIGHTS LEGEND
  
 Use, reproduction and disclosure by the US Government is
 subject to restrictions as set forth in subparagraphs (a)
 and (c) of the Commercial Computer Software - Restricted
 Rights clause in FAR 52.227-19.
  
 Gaussian, Inc.
 340 Quinnipiac St., Bldg. 40, Wallingford CT 06492
  
  
 ---------------------------------------------------------------
 Warning -- This program may not be used in any manner that
 competes with the business of Gaussian, Inc. or will provide
 assistance to any competitor of Gaussian, Inc.  The licensee
 of this program is prohibited from giving any competitor of
 Gaussian, Inc. access to this program.  By using this program,
 the user acknowledges that Gaussian, Inc. is engaged in the
 business of creating and licensing software in the field of
 computational chemistry and represents and warrants to the
 licensee that it is not a competitor of Gaussian, Inc. and that
 it will not use this program in any manner prohibited above.
 ---------------------------------------------------------------
  

 Cite this work as:
 Gaussian 16, Revision C.01,
 M. J. Frisch, G. W. Trucks, H. B. Schlegel, G. E. Scuseria, 
 M. A. Robb, J. R. Cheeseman, G. Scalmani, V. Barone, 
 G. A. Petersson, H. Nakatsuji, X. Li, M. Caricato, A. V. Marenich, 
 J. Bloino, B. G. Janesko, R. Gomperts, B. Mennucci, H. P. Hratchian, 
 J. V. Ortiz, A. F. Izmaylov, J. L. Sonnenberg, D. Williams-Young, 
 F. Ding, F. Lipparini, F. Egidi, J. Goings, B. Peng, A. Petrone, 
 T. Henderson, D. Ranasinghe, V. G. Zakrzewski, J. Gao, N. Rega, 
 G. Zheng, W. Liang, M. Hada, M. Ehara, K. Toyota, R. Fukuda, 
 J. Hasegawa, M. Ishida, T. Nakajima, Y. Honda, O. Kitao, H. Nakai, 
 T. Vreven, K. Throssell, J. A. Montgomery, Jr., J. E. Peralta, 
 F. Ogliaro, M. J. Bearpark, J. J. Heyd, E. N. Brothers, K. N. Kudin, 
 V. N. Staroverov, T. A. Keith, R. Kobayashi, J. Normand, 
 K. Raghavachari, A. P. Rendell, J. C. Burant, S. S. Iyengar, 
 J. Tomasi, M. Cossi, J. M. Millam, M. Klene, C. Adamo, R. Cammi, 
 J. W. Ochterski, R. L. Martin, K. Morokuma, O. Farkas, 
 J. B. Foresman, and D. J. Fox, Gaussian, Inc., Wallingford CT, 2019.
 
 ******************************************
 Gaussian 16:  ES64L-G16RevC.01  3-Jul-2019
                12-Dec-2022 
 ******************************************
 %nprocshared=46
 Will use up to   46 processors via shared memory.
 %mem=100GB
 ---------------------------------------
 # opt freq b3lyp/gen nosymm pseudo=read
 ---------------------------------------
 1/18=20,19=15,26=3,38=1/1,3;
 2/9=110,12=2,15=1,17=6,18=5,40=1/2;
 3/5=7,11=2,16=1,17=8,25=1,30=1,71=1,74=-5/1,2,3;
 4//1;
 5/5=2,38=5/2;
 6/7=2,8=2,9=2,10=2,28=1/1;
 7/30=1/1,2,3,16;
 1/18=20,19=15,26=3/3(2);
 2/9=110,15=1/2;
 99//99;
 2/9=110,15=1/2;
 3/5=7,6=1,11=2,16=1,17=8,25=1,30=1,71=1,74=-5,82=7/1,2,3;
 4/5=5,16=3,69=1/1;
 5/5=2,38=5/2;
 7/30=1/1,2,3,16;
 1/18=20,19=15,26=3/3(-5);
 2/9=110,15=1/2;
 6/7=2,8=2,9=2,10=2,19=2,28=1/1;
 99/9=1/99;
 -------------------
 Title Card Required
 -------------------
 Symbolic Z-matrix:
 Charge =  0 Multiplicity = 1
 42                    0.33684   2.09898   12.28458 
 16                    1.20766   4.18377   11.7197 
 16                   -1.6394    2.76157   13.29902 
 16                   -0.40892   0.97485   10.28214 
 16                    2.36107   0.50338   11.55902 
 42                   -2.08625   2.57286   10.98545 
 16                   -3.18157   1.52932   8.96966 
 16                   -1.41666   4.72236   10.28522 
 42                    0.45326   3.07486   9.60507 
 16                   -0.55761   2.62178   7.33261 
 16                    2.41065   2.01397   8.60809 
 42                    2.86621   2.81438   10.82378 
 42                   -2.35417   3.80342   8.41398 
 16                    4.26416   3.14213   12.98217 
 16                    4.38394   4.46384   10.09406 
 16                   -4.57334   4.81356   8.49146 
 16                   -2.04278   5.67033   6.86603 
 42                   -4.86623   2.91387   9.68781 
 16                   -6.78517   2.07607   9.34 
 16                   -4.40407   3.31879   11.82035 
 42                    3.05625   1.3758    13.56108 
 16                    4.18504  -0.00171   14.70842 
 16                    1.18254   2.04497   14.61995 
 42                    0.11201   4.91142   6.98741 
 16                    0.46745   6.4347    5.11622 
 16                    1.37406   6.08716   8.61145 
 42                    2.92822   4.33987   8.24882 
 16                    2.14048   3.88468   5.96204 
 16                    4.57891   5.70074   7.15192 
 42                    2.45018   6.3166    6.33359 
 16                    3.5123    6.71979   4.15395 
 1                     4.81701   6.49627   4.43292 
 16                    2.66308   8.75295   6.69989 
 1                     3.83605   8.76888   7.36998 
 

 GradGradGradGradGradGradGradGradGradGradGradGradGradGradGradGradGradGrad
 Berny optimization.
 Initialization pass.
                           ----------------------------
                           !    Initial Parameters    !
                           ! (Angstroms and Degrees)  !
 --------------------------                            --------------------------
 ! Name  Definition              Value          Derivative Info.                !
 --------------------------------------------------------------------------------
 ! R1    R(1,2)                  2.3289         estimate D2E/DX2                !
 ! R2    R(1,3)                  2.3181         estimate D2E/DX2                !
 ! R3    R(1,4)                  2.4145         estimate D2E/DX2                !
 ! R4    R(1,5)                  2.6777         estimate D2E/DX2                !
 ! R5    R(1,6)                  2.7899         estimate D2E/DX2                !
 ! R6    R(1,9)                  2.8541         estimate D2E/DX2                !
 ! R7    R(1,12)                 3.0072         estimate D2E/DX2                !
 ! R8    R(1,21)                 3.0899         estimate D2E/DX2                !
 ! R9    R(1,23)                 2.4844         estimate D2E/DX2                !
 ! R10   R(2,9)                  2.5041         estimate D2E/DX2                !
 ! R11   R(2,12)                 2.33           estimate D2E/DX2                !
 ! R12   R(3,6)                  2.3639         estimate D2E/DX2                !
 ! R13   R(4,6)                  2.4211         estimate D2E/DX2                !
 ! R14   R(4,9)                  2.3689         estimate D2E/DX2                !
 ! R15   R(5,12)                 2.4772         estimate D2E/DX2                !
 ! R16   R(5,21)                 2.2919         estimate D2E/DX2                !
 ! R17   R(6,7)                  2.5203         estimate D2E/DX2                !
 ! R18   R(6,8)                  2.3578         estimate D2E/DX2                !
 ! R19   R(6,9)                  2.9337         estimate D2E/DX2                !
 ! R20   R(6,13)                 2.8633         estimate D2E/DX2                !
 ! R21   R(6,18)                 3.0868         estimate D2E/DX2                !
 ! R22   R(6,20)                 2.5741         estimate D2E/DX2                !
 ! R23   R(7,13)                 2.4829         estimate D2E/DX2                !
 ! R24   R(7,18)                 2.2958         estimate D2E/DX2                !
 ! R25   R(8,9)                  2.5833         estimate D2E/DX2                !
 ! R26   R(8,13)                 2.2858         estimate D2E/DX2                !
 ! R27   R(9,10)                 2.5281         estimate D2E/DX2                !
 ! R28   R(9,11)                 2.4394         estimate D2E/DX2                !
 ! R29   R(9,12)                 2.7158         estimate D2E/DX2                !
 ! R30   R(9,27)                 3.0927         estimate D2E/DX2                !
 ! R31   R(10,13)                2.4069         estimate D2E/DX2                !
 ! R32   R(10,24)                2.4104         estimate D2E/DX2                !
 ! R33   R(11,12)                2.3995         estimate D2E/DX2                !
 ! R34   R(11,27)                2.4097         estimate D2E/DX2                !
 ! R35   R(12,14)                2.5924         estimate D2E/DX2                !
 ! R36   R(12,15)                2.3573         estimate D2E/DX2                !
 ! R37   R(12,21)                3.0981         estimate D2E/DX2                !
 ! R38   R(12,27)                2.9936         estimate D2E/DX2                !
 ! R39   R(13,16)                2.4395         estimate D2E/DX2                !
 ! R40   R(13,17)                2.4451         estimate D2E/DX2                !
 ! R41   R(13,18)                2.9537         estimate D2E/DX2                !
 ! R42   R(13,24)                3.0569         estimate D2E/DX2                !
 ! R43   R(14,21)                2.2168         estimate D2E/DX2                !
 ! R44   R(15,27)                2.3536         estimate D2E/DX2                !
 ! R45   R(16,18)                2.264          estimate D2E/DX2                !
 ! R46   R(17,24)                2.2878         estimate D2E/DX2                !
 ! R47   R(18,19)                2.1225         estimate D2E/DX2                !
 ! R48   R(18,20)                2.2193         estimate D2E/DX2                !
 ! R49   R(21,22)                2.1185         estimate D2E/DX2                !
 ! R50   R(21,23)                2.2538         estimate D2E/DX2                !
 ! R51   R(24,25)                2.4389         estimate D2E/DX2                !
 ! R52   R(24,26)                2.3691         estimate D2E/DX2                !
 ! R53   R(24,28)                2.494          estimate D2E/DX2                !
 ! R54   R(24,30)                2.8052         estimate D2E/DX2                !
 ! R55   R(25,30)                2.3296         estimate D2E/DX2                !
 ! R56   R(26,27)                2.3664         estimate D2E/DX2                !
 ! R57   R(26,30)                2.5297         estimate D2E/DX2                !
 ! R58   R(27,28)                2.4611         estimate D2E/DX2                !
 ! R59   R(27,29)                2.4042         estimate D2E/DX2                !
 ! R60   R(27,30)                2.7936         estimate D2E/DX2                !
 ! R61   R(28,30)                2.4796         estimate D2E/DX2                !
 ! R62   R(29,30)                2.3623         estimate D2E/DX2                !
 ! R63   R(30,31)                2.4579         estimate D2E/DX2                !
 ! R64   R(30,33)                2.4729         estimate D2E/DX2                !
 ! R65   R(31,32)                1.3528         estimate D2E/DX2                !
 ! R66   R(33,34)                1.351          estimate D2E/DX2                !
 ! A1    A(2,1,3)               99.7323         estimate D2E/DX2                !
 ! A2    A(2,1,4)              109.3365         estimate D2E/DX2                !
 ! A3    A(2,1,5)              100.6635         estimate D2E/DX2                !
 ! A4    A(2,1,6)               93.426          estimate D2E/DX2                !
 ! A5    A(2,1,21)              88.8903         estimate D2E/DX2                !
 ! A6    A(2,1,23)              96.9024         estimate D2E/DX2                !
 ! A7    A(3,1,4)              103.456          estimate D2E/DX2                !
 ! A8    A(3,1,5)              158.9686         estimate D2E/DX2                !
 ! A9    A(3,1,9)              110.3586         estimate D2E/DX2                !
 ! A10   A(3,1,12)             149.5001         estimate D2E/DX2                !
 ! A11   A(3,1,21)             129.5241         estimate D2E/DX2                !
 ! A12   A(3,1,23)              83.3992         estimate D2E/DX2                !
 ! A13   A(4,1,5)               74.4151         estimate D2E/DX2                !
 ! A14   A(4,1,12)              88.1481         estimate D2E/DX2                !
 ! A15   A(4,1,21)             120.364          estimate D2E/DX2                !
 ! A16   A(4,1,23)             151.0021         estimate D2E/DX2                !
 ! A17   A(5,1,6)              129.1692         estimate D2E/DX2                !
 ! A18   A(5,1,9)               85.3264         estimate D2E/DX2                !
 ! A19   A(5,1,23)              89.1074         estimate D2E/DX2                !
 ! A20   A(6,1,12)             117.6393         estimate D2E/DX2                !
 ! A21   A(6,1,23)             137.4821         estimate D2E/DX2                !
 ! A22   A(9,1,21)             115.5932         estimate D2E/DX2                !
 ! A23   A(9,1,23)             151.1731         estimate D2E/DX2                !
 ! A24   A(12,1,23)            100.1066         estimate D2E/DX2                !
 ! A25   A(1,6,7)              132.8087         estimate D2E/DX2                !
 ! A26   A(1,6,8)               92.6649         estimate D2E/DX2                !
 ! A27   A(1,6,13)             124.9216         estimate D2E/DX2                !
 ! A28   A(1,6,20)             132.8631         estimate D2E/DX2                !
 ! A29   A(3,6,4)              101.8906         estimate D2E/DX2                !
 ! A30   A(3,6,7)              153.8959         estimate D2E/DX2                !
 ! A31   A(3,6,8)               99.4512         estimate D2E/DX2                !
 ! A32   A(3,6,9)              106.4525         estimate D2E/DX2                !
 ! A33   A(3,6,13)             149.5811         estimate D2E/DX2                !
 ! A34   A(3,6,18)             124.95           estimate D2E/DX2                !
 ! A35   A(3,6,20)              80.1909         estimate D2E/DX2                !
 ! A36   A(4,6,7)               78.1972         estimate D2E/DX2                !
 ! A37   A(4,6,8)              108.5851         estimate D2E/DX2                !
 ! A38   A(4,6,13)              95.0255         estimate D2E/DX2                !
 ! A39   A(4,6,18)             125.0804         estimate D2E/DX2                !
 ! A40   A(4,6,20)             155.4121         estimate D2E/DX2                !
 ! A41   A(7,6,8)              105.2695         estimate D2E/DX2                !
 ! A42   A(7,6,9)               94.0551         estimate D2E/DX2                !
 ! A43   A(7,6,20)              89.3167         estimate D2E/DX2                !
 ! A44   A(8,6,18)              91.7305         estimate D2E/DX2                !
 ! A45   A(8,6,20)              95.0405         estimate D2E/DX2                !
 ! A46   A(9,6,13)              65.4736         estimate D2E/DX2                !
 ! A47   A(9,6,18)             124.2554         estimate D2E/DX2                !
 ! A48   A(9,6,20)             151.9446         estimate D2E/DX2                !
 ! A49   A(13,6,20)             94.732          estimate D2E/DX2                !
 ! A50   A(9,8,13)              79.9188         estimate D2E/DX2                !
 ! A51   A(1,9,8)               86.6378         estimate D2E/DX2                !
 ! A52   A(1,9,10)             140.0244         estimate D2E/DX2                !
 ! A53   A(1,9,11)             105.5291         estimate D2E/DX2                !
 ! A54   A(1,9,27)             125.747          estimate D2E/DX2                !
 ! A55   A(2,9,4)              105.121          estimate D2E/DX2                !
 ! A56   A(2,9,6)               86.5152         estimate D2E/DX2                !
 ! A57   A(2,9,8)               73.3402         estimate D2E/DX2                !
 ! A58   A(2,9,10)             163.5184         estimate D2E/DX2                !
 ! A59   A(2,9,11)             107.2167         estimate D2E/DX2                !
 ! A60   A(2,9,27)              87.0252         estimate D2E/DX2                !
 ! A61   A(4,9,8)              103.1001         estimate D2E/DX2                !
 ! A62   A(4,9,10)              87.2778         estimate D2E/DX2                !
 ! A63   A(4,9,11)              91.3362         estimate D2E/DX2                !
 ! A64   A(4,9,12)              96.3204         estimate D2E/DX2                !
 ! A65   A(4,9,27)             141.1857         estimate D2E/DX2                !
 ! A66   A(6,9,10)              92.6453         estimate D2E/DX2                !
 ! A67   A(6,9,11)             144.3374         estimate D2E/DX2                !
 ! A68   A(6,9,12)             122.7892         estimate D2E/DX2                !
 ! A69   A(8,9,10)              93.5273         estimate D2E/DX2                !
 ! A70   A(8,9,11)             164.9653         estimate D2E/DX2                !
 ! A71   A(8,9,12)             125.8845         estimate D2E/DX2                !
 ! A72   A(8,9,27)             115.7129         estimate D2E/DX2                !
 ! A73   A(10,9,11)             82.85           estimate D2E/DX2                !
 ! A74   A(10,9,12)            137.8559         estimate D2E/DX2                !
 ! A75   A(10,9,27)             89.9487         estimate D2E/DX2                !
 ! A76   A(9,10,13)             78.8504         estimate D2E/DX2                !
 ! A77   A(9,10,24)             81.2229         estimate D2E/DX2                !
 ! A78   A(1,12,11)            102.0933         estimate D2E/DX2                !
 ! A79   A(1,12,14)             94.5427         estimate D2E/DX2                !
 ! A80   A(1,12,15)            149.135          estimate D2E/DX2                !
 ! A81   A(1,12,27)            123.8131         estimate D2E/DX2                !
 ! A82   A(2,12,5)             106.7991         estimate D2E/DX2                !
 ! A83   A(2,12,11)            114.5806         estimate D2E/DX2                !
 ! A84   A(2,12,14)             89.3931         estimate D2E/DX2                !
 ! A85   A(2,12,15)             99.5611         estimate D2E/DX2                !
 ! A86   A(2,12,21)             88.6725         estimate D2E/DX2                !
 ! A87   A(2,12,27)             92.6363         estimate D2E/DX2                !
 ! A88   A(5,12,9)              92.3778         estimate D2E/DX2                !
 ! A89   A(5,12,11)             85.6501         estimate D2E/DX2                !
 ! A90   A(5,12,14)             88.8995         estimate D2E/DX2                !
 ! A91   A(5,12,15)            151.1589         estimate D2E/DX2                !
 ! A92   A(5,12,27)            137.3011         estimate D2E/DX2                !
 ! A93   A(9,12,14)            147.2067         estimate D2E/DX2                !
 ! A94   A(9,12,15)            111.4709         estimate D2E/DX2                !
 ! A95   A(9,12,21)            119.7041         estimate D2E/DX2                !
 ! A96   A(11,12,14)           155.9771         estimate D2E/DX2                !
 ! A97   A(11,12,15)            94.0028         estimate D2E/DX2                !
 ! A98   A(11,12,21)           132.2688         estimate D2E/DX2                !
 ! A99   A(14,12,15)            79.751          estimate D2E/DX2                !
 ! A100  A(14,12,27)           129.8349         estimate D2E/DX2                !
 ! A101  A(15,12,21)           123.9817         estimate D2E/DX2                !
 ! A102  A(6,13,10)             97.0453         estimate D2E/DX2                !
 ! A103  A(6,13,16)            103.5653         estimate D2E/DX2                !
 ! A104  A(6,13,17)            152.2251         estimate D2E/DX2                !
 ! A105  A(6,13,24)            119.9594         estimate D2E/DX2                !
 ! A106  A(7,13,8)             108.764          estimate D2E/DX2                !
 ! A107  A(7,13,10)             84.2399         estimate D2E/DX2                !
 ! A108  A(7,13,16)             93.9568         estimate D2E/DX2                !
 ! A109  A(7,13,17)            152.0605         estimate D2E/DX2                !
 ! A110  A(7,13,24)            134.8499         estimate D2E/DX2                !
 ! A111  A(8,13,10)            105.012          estimate D2E/DX2                !
 ! A112  A(8,13,16)            100.4066         estimate D2E/DX2                !
 ! A113  A(8,13,17)             99.1533         estimate D2E/DX2                !
 ! A114  A(8,13,18)             96.7097         estimate D2E/DX2                !
 ! A115  A(8,13,24)             84.5736         estimate D2E/DX2                !
 ! A116  A(10,13,16)           153.7093         estimate D2E/DX2                !
 ! A117  A(10,13,17)            89.7342         estimate D2E/DX2                !
 ! A118  A(10,13,18)           132.8995         estimate D2E/DX2                !
 ! A119  A(16,13,17)            79.6182         estimate D2E/DX2                !
 ! A120  A(16,13,24)           126.7716         estimate D2E/DX2                !
 ! A121  A(17,13,18)           127.6825         estimate D2E/DX2                !
 ! A122  A(6,18,16)            101.4391         estimate D2E/DX2                !
 ! A123  A(6,18,19)            147.086          estimate D2E/DX2                !
 ! A124  A(7,18,16)            104.2293         estimate D2E/DX2                !
 ! A125  A(7,18,19)            111.969          estimate D2E/DX2                !
 ! A126  A(7,18,20)            104.9399         estimate D2E/DX2                !
 ! A127  A(13,18,19)           144.7953         estimate D2E/DX2                !
 ! A128  A(13,18,20)           100.5068         estimate D2E/DX2                !
 ! A129  A(16,18,19)           111.1959         estimate D2E/DX2                !
 ! A130  A(16,18,20)           109.1309         estimate D2E/DX2                !
 ! A131  A(19,18,20)           114.6923         estimate D2E/DX2                !
 ! A132  A(1,21,14)            100.6719         estimate D2E/DX2                !
 ! A133  A(1,21,22)            147.6559         estimate D2E/DX2                !
 ! A134  A(5,21,14)            103.9139         estimate D2E/DX2                !
 ! A135  A(5,21,22)            112.7804         estimate D2E/DX2                !
 ! A136  A(5,21,23)            105.7388         estimate D2E/DX2                !
 ! A137  A(12,21,22)           144.4006         estimate D2E/DX2                !
 ! A138  A(12,21,23)           103.0753         estimate D2E/DX2                !
 ! A139  A(14,21,22)           111.6661         estimate D2E/DX2                !
 ! A140  A(14,21,23)           109.8227         estimate D2E/DX2                !
 ! A141  A(22,21,23)           112.4315         estimate D2E/DX2                !
 ! A142  A(10,24,17)            93.4999         estimate D2E/DX2                !
 ! A143  A(10,24,25)           138.0442         estimate D2E/DX2                !
 ! A144  A(10,24,26)           121.4153         estimate D2E/DX2                !
 ! A145  A(10,24,28)            83.9023         estimate D2E/DX2                !
 ! A146  A(10,24,30)           137.7965         estimate D2E/DX2                !
 ! A147  A(13,24,25)           134.588          estimate D2E/DX2                !
 ! A148  A(13,24,26)           106.8426         estimate D2E/DX2                !
 ! A149  A(13,24,28)           134.3306         estimate D2E/DX2                !
 ! A150  A(13,24,30)           164.3171         estimate D2E/DX2                !
 ! A151  A(17,24,25)            83.6483         estimate D2E/DX2                !
 ! A152  A(17,24,26)           111.9313         estimate D2E/DX2                !
 ! A153  A(17,24,28)           151.7399         estimate D2E/DX2                !
 ! A154  A(17,24,30)           127.3396         estimate D2E/DX2                !
 ! A155  A(25,24,26)            97.9517         estimate D2E/DX2                !
 ! A156  A(25,24,28)            79.8143         estimate D2E/DX2                !
 ! A157  A(26,24,28)            93.0305         estimate D2E/DX2                !
 ! A158  A(24,26,27)            83.0143         estimate D2E/DX2                !
 ! A159  A(9,27,15)             99.9446         estimate D2E/DX2                !
 ! A160  A(9,27,26)             73.0968         estimate D2E/DX2                !
 ! A161  A(9,27,28)             94.34           estimate D2E/DX2                !
 ! A162  A(9,27,30)            116.9448         estimate D2E/DX2                !
 ! A163  A(11,27,15)            93.8301         estimate D2E/DX2                !
 ! A164  A(11,27,26)           123.2831         estimate D2E/DX2                !
 ! A165  A(11,27,28)            83.7576         estimate D2E/DX2                !
 ! A166  A(11,27,29)           139.628          estimate D2E/DX2                !
 ! A167  A(11,27,30)           138.4558         estimate D2E/DX2                !
 ! A168  A(12,27,26)           103.3472         estimate D2E/DX2                !
 ! A169  A(12,27,28)           134.2954         estimate D2E/DX2                !
 ! A170  A(12,27,29)           134.0375         estimate D2E/DX2                !
 ! A171  A(12,27,30)           161.219          estimate D2E/DX2                !
 ! A172  A(15,27,26)           104.3108         estimate D2E/DX2                !
 ! A173  A(15,27,28)           159.4202         estimate D2E/DX2                !
 ! A174  A(15,27,29)            84.4463         estimate D2E/DX2                !
 ! A175  A(15,27,30)           127.306          estimate D2E/DX2                !
 ! A176  A(26,27,28)            93.9413         estimate D2E/DX2                !
 ! A177  A(26,27,29)            95.9057         estimate D2E/DX2                !
 ! A178  A(28,27,29)            84.2908         estimate D2E/DX2                !
 ! A179  A(24,28,27)            78.5905         estimate D2E/DX2                !
 ! A180  A(24,30,27)            68.1849         estimate D2E/DX2                !
 ! A181  A(24,30,29)           122.6682         estimate D2E/DX2                !
 ! A182  A(24,30,31)           130.4685         estimate D2E/DX2                !
 ! A183  A(24,30,33)           122.0564         estimate D2E/DX2                !
 ! A184  A(25,30,26)            96.4931         estimate D2E/DX2                !
 ! A185  A(25,30,27)           122.6679         estimate D2E/DX2                !
 ! A186  A(25,30,28)            82.248          estimate D2E/DX2                !
 ! A187  A(25,30,29)           163.9834         estimate D2E/DX2                !
 ! A188  A(25,30,31)            84.034          estimate D2E/DX2                !
 ! A189  A(25,30,33)            95.7812         estimate D2E/DX2                !
 ! A190  A(26,30,28)            89.5897         estimate D2E/DX2                !
 ! A191  A(26,30,29)            92.7379         estimate D2E/DX2                !
 ! A192  A(26,30,33)            89.5764         estimate D2E/DX2                !
 ! A193  A(27,30,31)           130.5479         estimate D2E/DX2                !
 ! A194  A(27,30,33)           125.5107         estimate D2E/DX2                !
 ! A195  A(28,30,29)            84.7653         estimate D2E/DX2                !
 ! A196  A(28,30,31)            94.7021         estimate D2E/DX2                !
 ! A197  A(29,30,31)            87.7398         estimate D2E/DX2                !
 ! A198  A(29,30,33)            97.3517         estimate D2E/DX2                !
 ! A199  A(31,30,33)            86.1318         estimate D2E/DX2                !
 ! A200  A(30,31,32)           101.9339         estimate D2E/DX2                !
 ! A201  A(30,33,34)            99.1976         estimate D2E/DX2                !
 ! A202  L(6,1,21,2,-1)        182.3162         estimate D2E/DX2                !
 ! A203  L(1,6,18,8,-1)        184.3953         estimate D2E/DX2                !
 ! A204  L(6,9,27,2,-1)        173.5404         estimate D2E/DX2                !
 ! A205  L(21,12,27,2,-1)      181.3088         estimate D2E/DX2                !
 ! A206  L(18,13,24,8,-1)      181.2834         estimate D2E/DX2                !
 ! A207  L(9,27,29,15,-1)      184.3909         estimate D2E/DX2                !
 ! A208  L(26,30,31,25,-1)     180.5271         estimate D2E/DX2                !
 ! A209  L(28,30,33,25,-1)     178.0292         estimate D2E/DX2                !
 ! A210  L(6,1,21,2,-2)        184.2074         estimate D2E/DX2                !
 ! A211  L(1,6,18,8,-2)        181.5413         estimate D2E/DX2                !
 ! A212  L(6,9,27,2,-2)        192.7559         estimate D2E/DX2                !
 ! A213  L(21,12,27,2,-2)      174.6183         estimate D2E/DX2                !
 ! A214  L(18,13,24,8,-2)      184.6183         estimate D2E/DX2                !
 ! A215  L(9,27,29,15,-2)      190.3683         estimate D2E/DX2                !
 ! A216  L(26,30,31,25,-2)     175.7147         estimate D2E/DX2                !
 ! A217  L(28,30,33,25,-2)     178.9271         estimate D2E/DX2                !
 ! D1    D(2,1,6,7)            114.0588         estimate D2E/DX2                !
 ! D2    D(2,1,6,8)              0.3252         estimate D2E/DX2                !
 ! D3    D(2,1,6,13)            42.6725         estimate D2E/DX2                !
 ! D4    D(2,1,6,20)           -99.067          estimate D2E/DX2                !
 ! D5    D(5,1,6,7)              7.3281         estimate D2E/DX2                !
 ! D6    D(5,1,6,8)           -106.4054         estimate D2E/DX2                !
 ! D7    D(5,1,6,13)           -64.0581         estimate D2E/DX2                !
 ! D8    D(5,1,6,20)           154.2024         estimate D2E/DX2                !
 ! D9    D(12,1,6,7)            68.3543         estimate D2E/DX2                !
 ! D10   D(12,1,6,8)           -45.3793         estimate D2E/DX2                !
 ! D11   D(12,1,6,13)           -3.0319         estimate D2E/DX2                !
 ! D12   D(12,1,6,20)         -144.7715         estimate D2E/DX2                !
 ! D13   D(23,1,6,7)          -141.8518         estimate D2E/DX2                !
 ! D14   D(23,1,6,8)           104.4146         estimate D2E/DX2                !
 ! D15   D(23,1,6,13)          146.7619         estimate D2E/DX2                !
 ! D16   D(23,1,6,20)            5.0224         estimate D2E/DX2                !
 ! D17   D(3,1,9,8)             17.1717         estimate D2E/DX2                !
 ! D18   D(3,1,9,10)           -74.3097         estimate D2E/DX2                !
 ! D19   D(3,1,9,11)          -171.8005         estimate D2E/DX2                !
 ! D20   D(3,1,9,27)           136.7231         estimate D2E/DX2                !
 ! D21   D(5,1,9,8)           -177.2338         estimate D2E/DX2                !
 ! D22   D(5,1,9,10)            91.2848         estimate D2E/DX2                !
 ! D23   D(5,1,9,11)            -6.206          estimate D2E/DX2                !
 ! D24   D(5,1,9,27)           -57.6823         estimate D2E/DX2                !
 ! D25   D(21,1,9,8)          -141.3236         estimate D2E/DX2                !
 ! D26   D(21,1,9,10)          127.195          estimate D2E/DX2                !
 ! D27   D(21,1,9,11)           29.7043         estimate D2E/DX2                !
 ! D28   D(21,1,9,27)          -21.7721         estimate D2E/DX2                !
 ! D29   D(23,1,9,8)           -97.6593         estimate D2E/DX2                !
 ! D30   D(23,1,9,10)          170.8593         estimate D2E/DX2                !
 ! D31   D(23,1,9,11)           73.3686         estimate D2E/DX2                !
 ! D32   D(23,1,9,27)           21.8922         estimate D2E/DX2                !
 ! D33   D(3,1,12,11)         -108.4513         estimate D2E/DX2                !
 ! D34   D(3,1,12,14)           88.9795         estimate D2E/DX2                !
 ! D35   D(3,1,12,15)           11.3938         estimate D2E/DX2                !
 ! D36   D(3,1,12,27)          -56.7743         estimate D2E/DX2                !
 ! D37   D(4,1,12,11)            5.3669         estimate D2E/DX2                !
 ! D38   D(4,1,12,14)         -157.2023         estimate D2E/DX2                !
 ! D39   D(4,1,12,15)          125.2119         estimate D2E/DX2                !
 ! D40   D(4,1,12,27)           57.0439         estimate D2E/DX2                !
 ! D41   D(6,1,12,11)          -42.8161         estimate D2E/DX2                !
 ! D42   D(6,1,12,14)          154.6147         estimate D2E/DX2                !
 ! D43   D(6,1,12,15)           77.0289         estimate D2E/DX2                !
 ! D44   D(6,1,12,27)            8.8609         estimate D2E/DX2                !
 ! D45   D(23,1,12,11)         157.3884         estimate D2E/DX2                !
 ! D46   D(23,1,12,14)          -5.1808         estimate D2E/DX2                !
 ! D47   D(23,1,12,15)         -82.7665         estimate D2E/DX2                !
 ! D48   D(23,1,12,27)        -150.9346         estimate D2E/DX2                !
 ! D49   D(2,1,21,14)           -6.1936         estimate D2E/DX2                !
 ! D50   D(2,1,21,22)          172.6935         estimate D2E/DX2                !
 ! D51   D(3,1,21,14)         -107.9185         estimate D2E/DX2                !
 ! D52   D(3,1,21,22)           70.9687         estimate D2E/DX2                !
 ! D53   D(4,1,21,14)          105.6749         estimate D2E/DX2                !
 ! D54   D(4,1,21,22)          -75.438          estimate D2E/DX2                !
 ! D55   D(9,1,21,14)           45.6228         estimate D2E/DX2                !
 ! D56   D(9,1,21,22)         -135.49           estimate D2E/DX2                !
 ! D57   D(1,2,9,12)           -86.5037         estimate D2E/DX2                !
 ! D58   D(1,4,6,9)             77.0461         estimate D2E/DX2                !
 ! D59   D(1,5,12,21)           78.6799         estimate D2E/DX2                !
 ! D60   D(3,6,9,2)            -19.6405         estimate D2E/DX2                !
 ! D61   D(3,6,9,10)           176.8436         estimate D2E/DX2                !
 ! D62   D(3,6,9,11)            95.4319         estimate D2E/DX2                !
 ! D63   D(3,6,9,12)            20.9639         estimate D2E/DX2                !
 ! D64   D(7,6,9,2)            176.6973         estimate D2E/DX2                !
 ! D65   D(7,6,9,10)            13.1815         estimate D2E/DX2                !
 ! D66   D(7,6,9,11)           -68.2302         estimate D2E/DX2                !
 ! D67   D(7,6,9,12)          -142.6983         estimate D2E/DX2                !
 ! D68   D(13,6,9,2)           128.9644         estimate D2E/DX2                !
 ! D69   D(13,6,9,10)          -34.5515         estimate D2E/DX2                !
 ! D70   D(13,6,9,11)         -115.9632         estimate D2E/DX2                !
 ! D71   D(13,6,9,12)          169.5688         estimate D2E/DX2                !
 ! D72   D(18,6,9,2)           137.8457         estimate D2E/DX2                !
 ! D73   D(18,6,9,10)          -25.6702         estimate D2E/DX2                !
 ! D74   D(18,6,9,11)         -107.0819         estimate D2E/DX2                !
 ! D75   D(18,6,9,12)          178.45           estimate D2E/DX2                !
 ! D76   D(20,6,9,2)            80.5204         estimate D2E/DX2                !
 ! D77   D(20,6,9,10)          -82.9954         estimate D2E/DX2                !
 ! D78   D(20,6,9,11)         -164.4071         estimate D2E/DX2                !
 ! D79   D(20,6,9,12)          121.1248         estimate D2E/DX2                !
 ! D80   D(1,6,13,10)           43.2539         estimate D2E/DX2                !
 ! D81   D(1,6,13,16)         -153.1846         estimate D2E/DX2                !
 ! D82   D(1,6,13,17)          -59.7268         estimate D2E/DX2                !
 ! D83   D(1,6,13,24)           -4.9882         estimate D2E/DX2                !
 ! D84   D(3,6,13,10)          117.5014         estimate D2E/DX2                !
 ! D85   D(3,6,13,16)          -78.9371         estimate D2E/DX2                !
 ! D86   D(3,6,13,17)           14.5208         estimate D2E/DX2                !
 ! D87   D(3,6,13,24)           69.2594         estimate D2E/DX2                !
 ! D88   D(4,6,13,10)           -6.4359         estimate D2E/DX2                !
 ! D89   D(4,6,13,16)          157.1256         estimate D2E/DX2                !
 ! D90   D(4,6,13,17)         -109.4166         estimate D2E/DX2                !
 ! D91   D(4,6,13,24)          -54.678          estimate D2E/DX2                !
 ! D92   D(9,6,13,10)           36.8407         estimate D2E/DX2                !
 ! D93   D(9,6,13,16)         -159.5978         estimate D2E/DX2                !
 ! D94   D(9,6,13,17)          -66.14           estimate D2E/DX2                !
 ! D95   D(9,6,13,24)          -11.4014         estimate D2E/DX2                !
 ! D96   D(20,6,13,10)        -163.8395         estimate D2E/DX2                !
 ! D97   D(20,6,13,16)          -0.278          estimate D2E/DX2                !
 ! D98   D(20,6,13,17)          93.1798         estimate D2E/DX2                !
 ! D99   D(20,6,13,24)         147.9184         estimate D2E/DX2                !
 ! D100  D(3,6,18,16)          112.862          estimate D2E/DX2                !
 ! D101  D(3,6,18,19)          -74.6204         estimate D2E/DX2                !
 ! D102  D(4,6,18,16)         -104.1963         estimate D2E/DX2                !
 ! D103  D(4,6,18,19)           68.3213         estimate D2E/DX2                !
 ! D104  D(8,6,18,16)           10.0623         estimate D2E/DX2                !
 ! D105  D(8,6,18,19)         -177.4201         estimate D2E/DX2                !
 ! D106  D(9,6,18,16)          -40.5206         estimate D2E/DX2                !
 ! D107  D(9,6,18,19)          131.997          estimate D2E/DX2                !
 ! D108  D(6,7,13,18)          -83.7703         estimate D2E/DX2                !
 ! D109  D(13,8,9,1)          -127.9258         estimate D2E/DX2                !
 ! D110  D(13,8,9,2)          -178.1168         estimate D2E/DX2                !
 ! D111  D(13,8,9,4)           -75.9988         estimate D2E/DX2                !
 ! D112  D(13,8,9,10)           12.0235         estimate D2E/DX2                !
 ! D113  D(13,8,9,11)           87.4726         estimate D2E/DX2                !
 ! D114  D(13,8,9,12)          176.0705         estimate D2E/DX2                !
 ! D115  D(13,8,9,27)          103.6674         estimate D2E/DX2                !
 ! D116  D(9,8,13,7)            75.8644         estimate D2E/DX2                !
 ! D117  D(9,8,13,10)          -13.0677         estimate D2E/DX2                !
 ! D118  D(9,8,13,16)          173.7091         estimate D2E/DX2                !
 ! D119  D(9,8,13,17)         -105.2653         estimate D2E/DX2                !
 ! D120  D(9,8,13,18)          124.764          estimate D2E/DX2                !
 ! D121  D(9,8,13,24)          -59.8543         estimate D2E/DX2                !
 ! D122  D(1,9,10,13)           77.5216         estimate D2E/DX2                !
 ! D123  D(1,9,10,24)          157.7161         estimate D2E/DX2                !
 ! D124  D(2,9,10,13)          -47.9289         estimate D2E/DX2                !
 ! D125  D(2,9,10,24)           32.2657         estimate D2E/DX2                !
 ! D126  D(4,9,10,13)           91.5174         estimate D2E/DX2                !
 ! D127  D(4,9,10,24)          171.712          estimate D2E/DX2                !
 ! D128  D(6,9,10,13)           38.7277         estimate D2E/DX2                !
 ! D129  D(6,9,10,24)          118.9223         estimate D2E/DX2                !
 ! D130  D(8,9,10,13)          -11.4507         estimate D2E/DX2                !
 ! D131  D(8,9,10,24)           68.7438         estimate D2E/DX2                !
 ! D132  D(11,9,10,13)        -176.7926         estimate D2E/DX2                !
 ! D133  D(11,9,10,24)         -96.598          estimate D2E/DX2                !
 ! D134  D(12,9,10,13)        -172.0685         estimate D2E/DX2                !
 ! D135  D(12,9,10,24)         -91.8739         estimate D2E/DX2                !
 ! D136  D(27,9,10,13)        -127.2124         estimate D2E/DX2                !
 ! D137  D(27,9,10,24)         -47.0179         estimate D2E/DX2                !
 ! D138  D(4,9,12,5)             4.0194         estimate D2E/DX2                !
 ! D139  D(4,9,12,14)          -87.64           estimate D2E/DX2                !
 ! D140  D(4,9,12,15)          167.4403         estimate D2E/DX2                !
 ! D141  D(4,9,12,21)          -36.232          estimate D2E/DX2                !
 ! D142  D(6,9,12,5)            53.6137         estimate D2E/DX2                !
 ! D143  D(6,9,12,14)          -38.0457         estimate D2E/DX2                !
 ! D144  D(6,9,12,15)         -142.9654         estimate D2E/DX2                !
 ! D145  D(6,9,12,21)           13.3623         estimate D2E/DX2                !
 ! D146  D(8,9,12,5)           115.2175         estimate D2E/DX2                !
 ! D147  D(8,9,12,14)           23.5581         estimate D2E/DX2                !
 ! D148  D(8,9,12,15)          -81.3617         estimate D2E/DX2                !
 ! D149  D(8,9,12,21)           74.966          estimate D2E/DX2                !
 ! D150  D(10,9,12,5)          -88.9143         estimate D2E/DX2                !
 ! D151  D(10,9,12,14)         179.4263         estimate D2E/DX2                !
 ! D152  D(10,9,12,15)          74.5065         estimate D2E/DX2                !
 ! D153  D(10,9,12,21)        -129.1658         estimate D2E/DX2                !
 ! D154  D(1,9,27,15)           -6.8469         estimate D2E/DX2                !
 ! D155  D(1,9,27,26)         -108.9108         estimate D2E/DX2                !
 ! D156  D(1,9,27,28)          158.2816         estimate D2E/DX2                !
 ! D157  D(1,9,27,30)         -148.0499         estimate D2E/DX2                !
 ! D158  D(2,9,27,15)           28.7039         estimate D2E/DX2                !
 ! D159  D(2,9,27,26)          -73.3601         estimate D2E/DX2                !
 ! D160  D(2,9,27,28)         -166.1677         estimate D2E/DX2                !
 ! D161  D(2,9,27,30)         -112.4992         estimate D2E/DX2                !
 ! D162  D(4,9,27,15)          -81.9143         estimate D2E/DX2                !
 ! D163  D(4,9,27,26)          176.0218         estimate D2E/DX2                !
 ! D164  D(4,9,27,28)           83.2142         estimate D2E/DX2                !
 ! D165  D(4,9,27,30)          136.8827         estimate D2E/DX2                !
 ! D166  D(8,9,27,15)           98.6045         estimate D2E/DX2                !
 ! D167  D(8,9,27,26)           -3.4595         estimate D2E/DX2                !
 ! D168  D(8,9,27,28)          -96.2671         estimate D2E/DX2                !
 ! D169  D(8,9,27,30)          -42.5986         estimate D2E/DX2                !
 ! D170  D(10,9,27,15)        -167.5048         estimate D2E/DX2                !
 ! D171  D(10,9,27,26)          90.4313         estimate D2E/DX2                !
 ! D172  D(10,9,27,28)          -2.3763         estimate D2E/DX2                !
 ! D173  D(10,9,27,30)          51.2922         estimate D2E/DX2                !
 ! D174  D(9,10,13,6)          -40.1797         estimate D2E/DX2                !
 ! D175  D(9,10,13,7)          -94.5132         estimate D2E/DX2                !
 ! D176  D(9,10,13,8)           13.406          estimate D2E/DX2                !
 ! D177  D(9,10,13,16)         178.2153         estimate D2E/DX2                !
 ! D178  D(9,10,13,17)         112.8135         estimate D2E/DX2                !
 ! D179  D(9,10,13,18)        -101.0712         estimate D2E/DX2                !
 ! D180  D(9,10,24,17)        -112.2914         estimate D2E/DX2                !
 ! D181  D(9,10,24,25)         163.3186         estimate D2E/DX2                !
 ! D182  D(9,10,24,26)           6.1215         estimate D2E/DX2                !
 ! D183  D(9,10,24,28)          95.9526         estimate D2E/DX2                !
 ! D184  D(9,10,24,30)          81.2913         estimate D2E/DX2                !
 ! D185  D(9,11,12,27)         -83.4542         estimate D2E/DX2                !
 ! D186  D(2,12,21,22)        -169.4031         estimate D2E/DX2                !
 ! D187  D(2,12,21,23)          14.7569         estimate D2E/DX2                !
 ! D188  D(9,12,21,22)         138.0251         estimate D2E/DX2                !
 ! D189  D(9,12,21,23)         -37.8149         estimate D2E/DX2                !
 ! D190  D(11,12,21,22)         67.8305         estimate D2E/DX2                !
 ! D191  D(11,12,21,23)       -108.0095         estimate D2E/DX2                !
 ! D192  D(15,12,21,22)        -68.7569         estimate D2E/DX2                !
 ! D193  D(15,12,21,23)        115.403          estimate D2E/DX2                !
 ! D194  D(1,12,27,26)          44.1916         estimate D2E/DX2                !
 ! D195  D(1,12,27,28)         -65.0889         estimate D2E/DX2                !
 ! D196  D(1,12,27,29)         156.3099         estimate D2E/DX2                !
 ! D197  D(1,12,27,30)          50.7012         estimate D2E/DX2                !
 ! D198  D(2,12,27,26)           2.5335         estimate D2E/DX2                !
 ! D199  D(2,12,27,28)        -106.747          estimate D2E/DX2                !
 ! D200  D(2,12,27,29)         114.6517         estimate D2E/DX2                !
 ! D201  D(2,12,27,30)           9.043          estimate D2E/DX2                !
 ! D202  D(5,12,27,26)         120.993          estimate D2E/DX2                !
 ! D203  D(5,12,27,28)          11.7125         estimate D2E/DX2                !
 ! D204  D(5,12,27,29)        -126.8888         estimate D2E/DX2                !
 ! D205  D(5,12,27,30)         127.5025         estimate D2E/DX2                !
 ! D206  D(14,12,27,26)        -88.8762         estimate D2E/DX2                !
 ! D207  D(14,12,27,28)        161.8433         estimate D2E/DX2                !
 ! D208  D(14,12,27,29)         23.2421         estimate D2E/DX2                !
 ! D209  D(14,12,27,30)        -82.3666         estimate D2E/DX2                !
 ! D210  D(8,13,18,19)         172.897          estimate D2E/DX2                !
 ! D211  D(8,13,18,20)          -8.1239         estimate D2E/DX2                !
 ! D212  D(10,13,18,19)        -69.3702         estimate D2E/DX2                !
 ! D213  D(10,13,18,20)        109.6089         estimate D2E/DX2                !
 ! D214  D(17,13,18,19)         65.8438         estimate D2E/DX2                !
 ! D215  D(17,13,18,20)       -115.1772         estimate D2E/DX2                !
 ! D216  D(6,13,24,25)        -164.0497         estimate D2E/DX2                !
 ! D217  D(6,13,24,26)         -43.9595         estimate D2E/DX2                !
 ! D218  D(6,13,24,28)          67.9387         estimate D2E/DX2                !
 ! D219  D(6,13,24,30)         -55.0415         estimate D2E/DX2                !
 ! D220  D(7,13,24,25)         126.0657         estimate D2E/DX2                !
 ! D221  D(7,13,24,26)        -113.8442         estimate D2E/DX2                !
 ! D222  D(7,13,24,28)          -1.946          estimate D2E/DX2                !
 ! D223  D(7,13,24,30)        -124.9262         estimate D2E/DX2                !
 ! D224  D(8,13,24,25)        -122.7561         estimate D2E/DX2                !
 ! D225  D(8,13,24,26)          -2.6659         estimate D2E/DX2                !
 ! D226  D(8,13,24,28)         109.2323         estimate D2E/DX2                !
 ! D227  D(8,13,24,30)         -13.7479         estimate D2E/DX2                !
 ! D228  D(16,13,24,25)        -23.8088         estimate D2E/DX2                !
 ! D229  D(16,13,24,26)         96.2814         estimate D2E/DX2                !
 ! D230  D(16,13,24,28)       -151.8205         estimate D2E/DX2                !
 ! D231  D(16,13,24,30)         85.1994         estimate D2E/DX2                !
 ! D232  D(10,24,26,27)         59.212          estimate D2E/DX2                !
 ! D233  D(13,24,26,27)        112.8539         estimate D2E/DX2                !
 ! D234  D(17,24,26,27)        168.0581         estimate D2E/DX2                !
 ! D235  D(25,24,26,27)       -105.6216         estimate D2E/DX2                !
 ! D236  D(28,24,26,27)        -25.4915         estimate D2E/DX2                !
 ! D237  D(10,24,28,27)        -96.5109         estimate D2E/DX2                !
 ! D238  D(13,24,28,27)        -92.4426         estimate D2E/DX2                !
 ! D239  D(17,24,28,27)        177.4495         estimate D2E/DX2                !
 ! D240  D(25,24,28,27)        122.3143         estimate D2E/DX2                !
 ! D241  D(26,24,28,27)         24.7731         estimate D2E/DX2                !
 ! D242  D(10,24,30,27)        -44.146          estimate D2E/DX2                !
 ! D243  D(10,24,30,29)        -37.8119         estimate D2E/DX2                !
 ! D244  D(10,24,30,31)         81.2301         estimate D2E/DX2                !
 ! D245  D(10,24,30,33)       -163.3256         estimate D2E/DX2                !
 ! D246  D(13,24,30,27)         71.2706         estimate D2E/DX2                !
 ! D247  D(13,24,30,29)         77.6047         estimate D2E/DX2                !
 ! D248  D(13,24,30,31)       -163.3533         estimate D2E/DX2                !
 ! D249  D(13,24,30,33)        -47.9091         estimate D2E/DX2                !
 ! D250  D(17,24,30,27)        153.0016         estimate D2E/DX2                !
 ! D251  D(17,24,30,29)        159.3357         estimate D2E/DX2                !
 ! D252  D(17,24,30,31)        -81.6223         estimate D2E/DX2                !
 ! D253  D(17,24,30,33)         33.822          estimate D2E/DX2                !
 ! D254  D(24,26,27,9)         -67.4602         estimate D2E/DX2                !
 ! D255  D(24,26,27,11)        -59.2308         estimate D2E/DX2                !
 ! D256  D(24,26,27,12)       -111.4898         estimate D2E/DX2                !
 ! D257  D(24,26,27,15)       -163.7037         estimate D2E/DX2                !
 ! D258  D(24,26,27,28)         25.8845         estimate D2E/DX2                !
 ! D259  D(24,26,27,29)        110.5414         estimate D2E/DX2                !
 ! D260  D(9,27,28,24)          48.4896         estimate D2E/DX2                !
 ! D261  D(11,27,28,24)         98.2521         estimate D2E/DX2                !
 ! D262  D(12,27,28,24)         88.1581         estimate D2E/DX2                !
 ! D263  D(15,27,28,24)       -177.4962         estimate D2E/DX2                !
 ! D264  D(26,27,28,24)        -24.8287         estimate D2E/DX2                !
 ! D265  D(29,27,28,24)       -120.3815         estimate D2E/DX2                !
 ! D266  D(9,27,30,24)         -13.203          estimate D2E/DX2                !
 ! D267  D(9,27,30,25)         -25.7729         estimate D2E/DX2                !
 ! D268  D(9,27,30,31)        -138.4833         estimate D2E/DX2                !
 ! D269  D(9,27,30,33)         101.4229         estimate D2E/DX2                !
 ! D270  D(11,27,30,24)         47.0973         estimate D2E/DX2                !
 ! D271  D(11,27,30,25)         34.5274         estimate D2E/DX2                !
 ! D272  D(11,27,30,31)        -78.183          estimate D2E/DX2                !
 ! D273  D(11,27,30,33)        161.7233         estimate D2E/DX2                !
 ! D274  D(12,27,30,24)        -66.0807         estimate D2E/DX2                !
 ! D275  D(12,27,30,25)        -78.6506         estimate D2E/DX2                !
 ! D276  D(12,27,30,31)        168.639          estimate D2E/DX2                !
 ! D277  D(12,27,30,33)         48.5452         estimate D2E/DX2                !
 ! D278  D(15,27,30,24)       -142.3175         estimate D2E/DX2                !
 ! D279  D(15,27,30,25)       -154.8874         estimate D2E/DX2                !
 ! D280  D(15,27,30,31)         92.4022         estimate D2E/DX2                !
 ! D281  D(15,27,30,33)        -27.6916         estimate D2E/DX2                !
 ! D282  D(24,30,31,32)       -136.3815         estimate D2E/DX2                !
 ! D283  D(25,30,31,32)       -170.0571         estimate D2E/DX2                !
 ! D284  D(27,30,31,32)        -41.3887         estimate D2E/DX2                !
 ! D285  D(28,30,31,32)        -88.3755         estimate D2E/DX2                !
 ! D286  D(29,30,31,32)         -3.8188         estimate D2E/DX2                !
 ! D287  D(33,30,31,32)         93.7097         estimate D2E/DX2                !
 ! D288  D(24,30,33,34)        129.234          estimate D2E/DX2                !
 ! D289  D(25,30,33,34)       -177.8758         estimate D2E/DX2                !
 ! D290  D(26,30,33,34)         85.6407         estimate D2E/DX2                !
 ! D291  D(27,30,33,34)         44.5003         estimate D2E/DX2                !
 ! D292  D(29,30,33,34)         -7.0652         estimate D2E/DX2                !
 ! D293  D(31,30,33,34)        -94.2807         estimate D2E/DX2                !
 --------------------------------------------------------------------------------
 Trust Radius=3.00D-01 FncErr=1.00D-07 GrdErr=1.00D-06 EigMax=2.50D+02 EigMin=1.00D-04
 Number of steps in this run=    204 maximum allowed number of steps=    204.
 GradGradGradGradGradGradGradGradGradGradGradGradGradGradGradGradGradGrad

                          Input orientation:                          
 ---------------------------------------------------------------------
 Center     Atomic      Atomic             Coordinates (Angstroms)
 Number     Number       Type             X           Y           Z
 ---------------------------------------------------------------------
      1         42           0        0.336838    2.098977   12.284575
      2         16           0        1.207657    4.183772   11.719698
      3         16           0       -1.639395    2.761567   13.299016
      4         16           0       -0.408921    0.974848   10.282136
      5         16           0        2.361066    0.503379   11.559021
      6         42           0       -2.086246    2.572859   10.985455
      7         16           0       -3.181568    1.529319    8.969657
      8         16           0       -1.416661    4.722359   10.285223
      9         42           0        0.453263    3.074861    9.605071
     10         16           0       -0.557613    2.621783    7.332611
     11         16           0        2.410645    2.013966    8.608089
     12         42           0        2.866213    2.814384   10.823781
     13         42           0       -2.354167    3.803418    8.413976
     14         16           0        4.264162    3.142133   12.982175
     15         16           0        4.383943    4.463835   10.094057
     16         16           0       -4.573339    4.813559    8.491455
     17         16           0       -2.042783    5.670330    6.866030
     18         42           0       -4.866225    2.913869    9.687809
     19         16           0       -6.785165    2.076073    9.339999
     20         16           0       -4.404069    3.318791   11.820351
     21         42           0        3.056248    1.375800   13.561084
     22         16           0        4.185042   -0.001705   14.708418
     23         16           0        1.182543    2.044970   14.619948
     24         42           0        0.112009    4.911418    6.987413
     25         16           0        0.467448    6.434701    5.116224
     26         16           0        1.374058    6.087157    8.611446
     27         42           0        2.928219    4.339869    8.248821
     28         16           0        2.140481    3.884683    5.962042
     29         16           0        4.578911    5.700738    7.151921
     30         42           0        2.450181    6.316601    6.333595
     31         16           0        3.512296    6.719791    4.153951
     32          1           0        4.817013    6.496268    4.432924
     33         16           0        2.663079    8.752947    6.699886
     34          1           0        3.836046    8.768884    7.369979
 ---------------------------------------------------------------------
                    Distance matrix (angstroms):
                    1          2          3          4          5
     1  Mo   0.000000
     2  S    2.328901   0.000000
     3  S    2.318105   3.552832   0.000000
     4  S    2.414453   3.870026   3.715911   0.000000
     5  S    2.677660   3.860241   4.912299   3.086348   0.000000
     6  Mo   2.789913   3.739512   2.363864   2.421098   4.938655
     7  S    4.867481   5.820150   4.758160   3.117308   6.203076
     8  S    3.735546   3.038888   3.602397   3.880643   5.804617
     9  Mo   2.854058   2.504085   4.257065   2.368931   3.751020
    10  S    5.059181   4.980213   6.065293   3.381450   5.555976
    11  S    4.221901   3.979617   6.242317   3.439790   3.315468
    12  Mo   3.007235   2.329957   5.141019   3.795231   2.477195
    13  Mo   5.012800   4.874326   5.045787   3.908300   6.558581
    14  S    4.122947   3.467143   5.924289   5.815930   3.551079
    15  S    5.173972   3.579097   7.032075   5.931269   4.682239
    16  S    6.772485   6.651173   5.994276   5.940086   8.722017
    17  S    6.912148   6.027712   7.071558   6.032150   8.253207
    18  Mo   5.871891   6.529416   4.845250   4.896998   7.845102
    19  S    7.706749   8.601777   6.528604   6.538869   9.542063
    20  S    4.917281   5.678890   3.184395   4.880715   7.332250
    21  Mo   3.089927   3.833106   4.902866   4.787448   2.291867
    22  S    5.009646   5.942683   6.598951   6.453691   3.674330
    23  S    2.484371   3.603686   3.197140   4.742840   3.624182
    24  Mo   6.001691   4.911663   6.893882   5.159763   6.737111
    25  S    8.378593   7.015729   9.213511   7.567342   8.959688
    26  S    5.520261   3.648533   6.489512   5.666209   6.390693
    27  Mo   5.293785   3.877072   6.989893   5.156960   5.098798
    28  S    6.812951   5.840395   8.329468   5.799121   6.542786
    29  S    7.570469   5.876319   9.224578   7.550546   7.166164
    30  Mo   7.593993   5.924773   8.824964   7.231858   7.817069
    31  S    9.876361   8.305617  11.217828   9.270111   9.736743
    32  H   10.052689   8.454121  11.586232   9.592171   9.629520
    33  S    8.993079   6.942199   9.897294   9.097721   9.579028
    34  H    8.993629   6.844833  10.060904   9.340632   9.383081
                    6          7          8          9         10
     6  Mo   0.000000
     7  S    2.520347   0.000000
     8  S    2.357757   3.878288   0.000000
     9  Mo   2.933696   4.000556   2.583306   0.000000
    10  S    3.960099   3.280021   3.724017   2.528087   0.000000
    11  S    5.117251   5.624808   4.979603   2.439429   3.287376
    12  Mo   4.960980   6.454829   4.719473   2.715774   4.893664
    13  Mo   2.863313   2.482922   2.285812   3.135469   2.406910
    14  S    6.681216   8.610480   6.484012   5.092377   7.445660
    15  S    6.799539   8.192229   5.809508   4.197452   5.952959
    16  S    4.174494   3.598880   3.631878   5.434146   4.719413
    17  S    5.154210   4.782264   3.602993   4.524273   3.423020
    18  Mo   3.086820   2.295820   3.940435   5.322567   4.918985
    19  S    5.003415   3.663605   6.059465   7.311818   6.565806
    20  S    2.574057   3.580946   3.640224   5.344216   5.951542
    21  Mo   5.874697   7.746943   6.475928   5.031141   7.307964
    22  S    7.734202   9.462788   8.559235   7.031044   9.153032
    23  S    4.916624   7.158013   5.719625   5.171220   7.514395
    24  Mo   5.126941   5.120111   3.639798   3.215825   2.410391
    25  S    7.475497   7.226828   5.761990   5.607002   4.527854
    26  S    5.473565   6.454141   3.528784   3.302890   4.168404
    27  Mo   5.979661   6.763748   4.813649   3.092744   3.992779
    28  S    6.694832   6.551160   5.660817   4.095629   3.279190
    29  S    8.300839   8.996107   6.835327   5.471211   5.991368
    30  Mo   7.498972   7.847515   5.754080   5.019872   4.867909
    31  S    9.757570   9.743708   8.116455   7.235876   6.592549
    32  H   10.294843  10.451307   8.732402   7.582839   7.232318
    33  S    8.894699   9.565174   6.763472   6.750115   6.954450
    34  H    9.302469  10.208681   7.243200   6.990047   7.555957
                   11         12         13         14         15
    11  S    0.000000
    12  Mo   2.399480   0.000000
    13  Mo   5.093452   5.834185   0.000000
    14  S    4.882716   2.592363   8.068954   0.000000
    15  S    3.479061   2.357263   6.975740   3.178438   0.000000
    16  S    7.525115   8.048812   2.439490  10.052943   9.106236
    17  S    6.019700   6.922316   2.445088   9.142022   7.292366
    18  Mo   7.411374   7.816069   2.953707   9.709218   9.387920
    19  S    9.225100   9.792641   4.845099  11.682875  11.446352
    20  S    7.646013   7.355581   4.005041   8.747529   9.028863
    21  Mo   5.035496   3.098139   7.852302   2.216782   4.828976
    22  S    6.665240   4.975949   9.841759   3.587463   6.424402
    23  S    6.136094   4.223461   7.356259   3.658202   6.048434
    24  Mo   4.038013   5.167292   3.056922   7.503860   5.301036
    25  S    5.959197   7.171958   5.075463   9.334304   6.633405
    26  S    4.203024   4.222795   4.376542   6.010752   3.727294
    27  Mo   2.409726   2.993554   5.312124   5.062011   2.353592
    28  S    3.251790   5.030779   5.120590   7.371816   4.737308
    29  S    4.518195   4.974629   7.297957   6.374746   3.197516
    30  Mo   4.866986   5.709674   5.807395   7.587581   4.616628
    31  S    6.572501   7.756047   7.814629   9.555233   6.413577
    32  H    6.581310   7.629216   8.632847   9.200302   6.030486
    33  S    7.008482   7.232863   7.253185   8.573906   5.733956
    34  H    7.013815   6.951647   8.004031   7.958665   5.123889
                   16         17         18         19         20
    16  S    0.000000
    17  S    3.127263   0.000000
    18  Mo   2.264038   4.851014   0.000000
    19  S    3.620225   6.444330   2.122547   0.000000
    20  S    3.653017   5.970821   2.219298   3.655969   0.000000
    21  Mo   9.784167   9.448114   8.951731  10.731326   7.903271
    22  S   11.770583  11.509163  10.753256  12.388806   9.650878
    23  S    8.851762   9.147087   7.852934   9.558410   6.377350
    24  Mo   4.921809   2.287752   6.005427   7.819517   6.803581
    25  S    6.279317   3.153941   7.857717   9.457183   8.853581
    26  S    6.083419   3.859407   7.083039   9.120993   7.165729
    27  Mo   7.520414   5.328517   8.053417  10.033208   8.219542
    28  S    7.234371   4.637394   7.994858   9.713332   8.801770
    29  S    9.292207   6.627933  10.168970  12.127164  10.400088
    30  Mo   7.499689   4.570326   8.738371  10.597743   9.277505
    31  S    9.371508   6.270219  10.738167  12.429679  11.532967
    32  H   10.367347   7.325229  11.585012  13.350208  12.235146
    33  S    8.431740   5.628079   9.985636  11.866767  10.280749
    34  H    9.360559   6.664505  10.741651  12.707668  10.835535
                   21         22         23         24         25
    21  Mo   0.000000
    22  S    2.118507   0.000000
    23  S    2.253830   3.634791   0.000000
    24  Mo   8.023857  10.017100   8.223026   0.000000
    25  S   10.178901  12.134991  10.492944   2.438868   0.000000
    26  S    7.037440   9.063605   7.244174   2.369095   3.627576
    27  Mo   6.084590   7.883861   6.993226   3.138289   4.500764
    28  S    8.054723   9.786896   8.902894   2.494047   3.164971
    29  S    7.880416   9.474895   8.981725   4.539086   4.646170
    30  Mo   8.775843  10.633362   9.408368   2.805185   2.329629
    31  S   10.828683  12.531076  11.696957   4.781283   3.205986
    32  H   10.613331  12.174104  11.696106   5.583388   4.403340
    33  S   10.082307  11.962311  10.484099   4.620387   3.564133
    34  H    9.674480  11.441054  10.237878   5.375393   4.677101
                   26         27         28         29         30
    26  S    0.000000
    27  Mo   2.366417   0.000000
    28  S    3.529538   2.461114   0.000000
    29  S    3.542685   2.404150   3.264936   0.000000
    30  Mo   2.529682   2.793578   2.479555   2.362295   0.000000
    31  S    4.984130   4.772121   3.631653   3.341251   2.457946
    32  H    5.429674   4.772700   4.040099   2.842975   3.040843
    33  S    3.524496   4.684523   4.951517   3.631904   2.472909
    34  H    3.846334   4.605723   5.358418   3.164319   3.001401
                   31         32         33         34
    31  S    0.000000
    32  H    1.352803   0.000000
    33  S    3.366998   3.856313   0.000000
    34  H    3.827066   3.841012   1.350974   0.000000
 Symmetry turned off by external request.
 Stoichiometry    H2Mo10S22
 Framework group  C1[X(H2Mo10S22)]
 Deg. of freedom    96
 Full point group                 C1      NOp   1
 Rotational constants (GHZ):           0.0342189           0.0317119           0.0181961
 General basis read from cards:  (5D, 7F)
 ======================================================================================================
                                       Pseudopotential Parameters
 ======================================================================================================
  Center     Atomic      Valence      Angular      Power
  Number     Number     Electrons     Momentum     of R      Exponent        Coefficient   SO-Coeffient
 ======================================================================================================
    1         42           14
                                      F and up 
                                                     0      537.9667807       -0.04694920    0.00000000
                                                     1      147.8982938      -20.20800840    0.00000000
                                                     2       45.7358898     -106.21163020    0.00000000
                                                     2       13.2911467      -41.81073680    0.00000000
                                                     2        4.7059961       -4.20541030    0.00000000
                                      S - F
                                                     0      110.2991760        2.80637170    0.00000000
                                                     1       23.2014645       44.51620120    0.00000000
                                                     2        5.3530131       82.77852270    0.00000000
                                      P - F
                                                     0       63.2901397        4.94208760    0.00000000
                                                     1       23.3315302       25.86049760    0.00000000
                                                     2       24.6759423      132.47087420    0.00000000
                                                     2        4.6493040       57.31497940    0.00000000
                                      D - F
                                                     0      104.4839977        3.00545910    0.00000000
                                                     1       66.2307245       26.36378510    0.00000000
                                                     2       39.1283176      183.38491990    0.00000000
                                                     2       13.1164437       98.44530680    0.00000000
                                                     2        3.6280263       22.49013770    0.00000000
    2         16
                                   No pseudopotential on this center.
    3         16
                                   No pseudopotential on this center.
    4         16
                                   No pseudopotential on this center.
    5         16
                                   No pseudopotential on this center.
    6         42           14
                                      F and up 
                                                     0      537.9667807       -0.04694920    0.00000000
                                                     1      147.8982938      -20.20800840    0.00000000
                                                     2       45.7358898     -106.21163020    0.00000000
                                                     2       13.2911467      -41.81073680    0.00000000
                                                     2        4.7059961       -4.20541030    0.00000000
                                      S - F
                                                     0      110.2991760        2.80637170    0.00000000
                                                     1       23.2014645       44.51620120    0.00000000
                                                     2        5.3530131       82.77852270    0.00000000
                                      P - F
                                                     0       63.2901397        4.94208760    0.00000000
                                                     1       23.3315302       25.86049760    0.00000000
                                                     2       24.6759423      132.47087420    0.00000000
                                                     2        4.6493040       57.31497940    0.00000000
                                      D - F
                                                     0      104.4839977        3.00545910    0.00000000
                                                     1       66.2307245       26.36378510    0.00000000
                                                     2       39.1283176      183.38491990    0.00000000
                                                     2       13.1164437       98.44530680    0.00000000
                                                     2        3.6280263       22.49013770    0.00000000
    7         16
                                   No pseudopotential on this center.
    8         16
                                   No pseudopotential on this center.
    9         42           14
                                      F and up 
                                                     0      537.9667807       -0.04694920    0.00000000
                                                     1      147.8982938      -20.20800840    0.00000000
                                                     2       45.7358898     -106.21163020    0.00000000
                                                     2       13.2911467      -41.81073680    0.00000000
                                                     2        4.7059961       -4.20541030    0.00000000
                                      S - F
                                                     0      110.2991760        2.80637170    0.00000000
                                                     1       23.2014645       44.51620120    0.00000000
                                                     2        5.3530131       82.77852270    0.00000000
                                      P - F
                                                     0       63.2901397        4.94208760    0.00000000
                                                     1       23.3315302       25.86049760    0.00000000
                                                     2       24.6759423      132.47087420    0.00000000
                                                     2        4.6493040       57.31497940    0.00000000
                                      D - F
                                                     0      104.4839977        3.00545910    0.00000000
                                                     1       66.2307245       26.36378510    0.00000000
                                                     2       39.1283176      183.38491990    0.00000000
                                                     2       13.1164437       98.44530680    0.00000000
                                                     2        3.6280263       22.49013770    0.00000000
   10         16
                                   No pseudopotential on this center.
   11         16
                                   No pseudopotential on this center.
   12         42           14
                                      F and up 
                                                     0      537.9667807       -0.04694920    0.00000000
                                                     1      147.8982938      -20.20800840    0.00000000
                                                     2       45.7358898     -106.21163020    0.00000000
                                                     2       13.2911467      -41.81073680    0.00000000
                                                     2        4.7059961       -4.20541030    0.00000000
                                      S - F
                                                     0      110.2991760        2.80637170    0.00000000
                                                     1       23.2014645       44.51620120    0.00000000
                                                     2        5.3530131       82.77852270    0.00000000
                                      P - F
                                                     0       63.2901397        4.94208760    0.00000000
                                                     1       23.3315302       25.86049760    0.00000000
                                                     2       24.6759423      132.47087420    0.00000000
                                                     2        4.6493040       57.31497940    0.00000000
                                      D - F
                                                     0      104.4839977        3.00545910    0.00000000
                                                     1       66.2307245       26.36378510    0.00000000
                                                     2       39.1283176      183.38491990    0.00000000
                                                     2       13.1164437       98.44530680    0.00000000
                                                     2        3.6280263       22.49013770    0.00000000
   13         42           14
                                      F and up 
                                                     0      537.9667807       -0.04694920    0.00000000
                                                     1      147.8982938      -20.20800840    0.00000000
                                                     2       45.7358898     -106.21163020    0.00000000
                                                     2       13.2911467      -41.81073680    0.00000000
                                                     2        4.7059961       -4.20541030    0.00000000
                                      S - F
                                                     0      110.2991760        2.80637170    0.00000000
                                                     1       23.2014645       44.51620120    0.00000000
                                                     2        5.3530131       82.77852270    0.00000000
                                      P - F
                                                     0       63.2901397        4.94208760    0.00000000
                                                     1       23.3315302       25.86049760    0.00000000
                                                     2       24.6759423      132.47087420    0.00000000
                                                     2        4.6493040       57.31497940    0.00000000
                                      D - F
                                                     0      104.4839977        3.00545910    0.00000000
                                                     1       66.2307245       26.36378510    0.00000000
                                                     2       39.1283176      183.38491990    0.00000000
                                                     2       13.1164437       98.44530680    0.00000000
                                                     2        3.6280263       22.49013770    0.00000000
   14         16
                                   No pseudopotential on this center.
   15         16
                                   No pseudopotential on this center.
   16         16
                                   No pseudopotential on this center.
   17         16
                                   No pseudopotential on this center.
   18         42           14
                                      F and up 
                                                     0      537.9667807       -0.04694920    0.00000000
                                                     1      147.8982938      -20.20800840    0.00000000
                                                     2       45.7358898     -106.21163020    0.00000000
                                                     2       13.2911467      -41.81073680    0.00000000
                                                     2        4.7059961       -4.20541030    0.00000000
                                      S - F
                                                     0      110.2991760        2.80637170    0.00000000
                                                     1       23.2014645       44.51620120    0.00000000
                                                     2        5.3530131       82.77852270    0.00000000
                                      P - F
                                                     0       63.2901397        4.94208760    0.00000000
                                                     1       23.3315302       25.86049760    0.00000000
                                                     2       24.6759423      132.47087420    0.00000000
                                                     2        4.6493040       57.31497940    0.00000000
                                      D - F
                                                     0      104.4839977        3.00545910    0.00000000
                                                     1       66.2307245       26.36378510    0.00000000
                                                     2       39.1283176      183.38491990    0.00000000
                                                     2       13.1164437       98.44530680    0.00000000
                                                     2        3.6280263       22.49013770    0.00000000
   19         16
                                   No pseudopotential on this center.
   20         16
                                   No pseudopotential on this center.
   21         42           14
                                      F and up 
                                                     0      537.9667807       -0.04694920    0.00000000
                                                     1      147.8982938      -20.20800840    0.00000000
[...]
 49,0.00006739,-0.00219642,-0.00084452,-0.00089364,0.00032688,0.0000215
 9,-0.00022023,-0.00015619,-0.00007094,-0.00005342,0.00013159,-0.000018
 21,0.00020192,-0.00022705,0.00015461,0.00003912,0.00004735,-0.00011573
 ,0.00005749,0.00000515,-0.00003018,-0.00005433,0.00398759,0.00028418,0
 .00388183,0.00911647,-0.00064468,0.00549506,-0.00241220,0.00258084,-0.
 00063575,-0.01254673,-0.01641333,0.02155139,-0.01609578,-0.00110042,-0
 .00784454,0.01048922,0.03671977,-0.00094527,-0.00084480,-0.00058250,0.
 00089168,0.00008432,0.00016276,0.00018446,0.00004789,-0.00040748,-0.00
 068883,0.00130013,0.00051095,-0.00075182,0.00072865,-0.00027423,-0.001
 30848,-0.00048987,0.00028638,-0.00005435,-0.00007468,0.00000460,0.0001
 7260,-0.00053542,0.00031595,-0.00142585,-0.00139986,-0.00043131,-0.000
 03975,-0.00019789,0.00052788,-0.00074163,0.00713434,0.00052505,0.00175
 530,-0.00161073,0.00293069,0.00009414,-0.00065393,-0.00054513,0.000019
 47,0.00033984,-0.00094586,0.00312127,0.00446867,-0.01507436,-0.0000326
 5,-0.00002573,-0.00000344,0.00180090,-0.00083698,0.00112643,-0.0000939
 8,-0.00010884,0.00020817,0.00006109,0.00002664,0.00000726,-0.00008142,
 0.00001903,-0.00000928,0.00012120,0.00045737,0.00003357,0.00000617,-0.
 00000523,-0.00001577,0.00028108,-0.00010080,-0.00004603,-0.00371571,0.
 00008291,-0.00627687,-0.00925793,-0.00303585,0.00139893,0.00482791,0.0
 0102721,-0.00054074,0.03162484,0.00857193,-0.03691797,-0.00647654,-0.0
 0080939,0.00213317,-0.02786763,-0.02335986,0.06229317,-0.00000898,0.00
 141893,0.00039428,-0.00034962,0.00029787,0.00012047,0.00013651,-0.0000
 3656,0.00079781,-0.00107353,0.00003113,-0.00147112,0.00086466,-0.00045
 972,-0.00015963,0.00045385,0.00068885,-0.00053940,0.00058871,-0.000320
 32,0.00024190,-0.00081184,-0.00104921,-0.00016329,0.01032514,-0.000555
 54,0.00372674,-0.00104840,0.00135851,0.00090054,0.00028916,-0.00533559
 ,-0.00234038,-0.00102372,0.00074031,-0.00250886,-0.00305116,0.00065710
 ,0.00402021,-0.00006431,-0.00041666,0.00040569,-0.00330925,-0.00226085
 ,0.00390706,0.00007461,0.00016889,-0.00024492,-0.00213563,-0.00102606,
 -0.00069390,0.00062702,0.00032411,-0.00125509,-0.00007829,-0.00003040,
 -0.00007758,0.00038742,-0.00013094,0.00063614,-0.00055754,-0.00033718,
 0.00082710,-0.00008212,0.00011764,-0.00007810,0.00015685,-0.00004995,-
 0.00004842,-0.03473580,-0.02080172,0.00320545,-0.05797295,0.01014574,-
 0.04548324,0.00315861,0.00060510,0.00213443,0.01461428,0.02338298,-0.0
 1123527,-0.00894747,-0.00514856,-0.00651256,-0.05561017,0.00449413,0.0
 1245646,0.19568798,-0.00125622,0.00113006,0.00157340,-0.00081224,0.000
 23862,0.00022872,0.00035468,-0.00030468,-0.00023661,0.00014370,0.00073
 210,-0.00031313,0.00051669,0.00023367,0.00002007,0.00042528,0.00039986
 ,0.00048073,-0.00016515,0.00013441,0.00024308,-0.00025209,0.00029377,0
 .00039483,0.00398458,-0.00203635,-0.00217450,-0.00006878,-0.00073124,-
 0.00054427,0.00075690,0.00070876,0.00144911,-0.00097523,-0.00213589,-0
 .00093204,-0.00114911,0.00109162,0.00004824,0.00007933,-0.00003658,0.0
 0003960,-0.00096879,-0.00057826,-0.00220765,0.00013654,0.00018206,-0.0
 0003954,0.00021830,-0.00129854,0.00050581,-0.00039360,0.00004884,-0.00
 052626,0.00030624,0.00013661,0.00005170,0.00015908,-0.00014440,-0.0000
 6260,0.00002678,-0.00044228,0.00046588,-0.00016213,0.00024733,-0.00018
 400,-0.00003517,0.00001047,-0.00008314,-0.01657651,-0.00699606,-0.0030
 5472,-0.00178775,-0.00697855,0.00267681,0.00489207,0.00698780,-0.00908
 193,0.00557303,-0.02055803,0.01747966,-0.00938518,-0.07841119,0.003688
 09,0.02386344,-0.01421898,0.00505048,0.00509007,0.21262771,0.00006866,
 -0.00059634,-0.00041732,0.00043138,0.00060887,-0.00073053,-0.00002394,
 0.00010082,0.00043305,-0.00071395,-0.00115295,-0.00007537,0.00024297,0
 .00006485,0.00030314,-0.00021018,0.00013051,0.00008289,-0.00002030,-0.
 00003852,-0.00019379,-0.00031999,-0.00016973,-0.00038092,0.00420306,0.
 00245645,-0.00068838,0.00037523,0.00247200,0.00104895,-0.00107446,-0.0
 0124664,-0.00016062,0.00117943,0.00028846,-0.00194187,0.00090309,0.000
 51680,-0.00061767,-0.00020860,-0.00011132,0.00014318,-0.00118429,0.000
 35575,0.00042315,0.00011073,-0.00013323,0.00017216,-0.00132772,0.00226
 166,-0.00044152,0.00010192,-0.00017798,0.00018404,-0.00009020,-0.00004
 074,-0.00000691,0.00006137,0.00005360,0.00004127,-0.00033717,-0.000213
 47,0.00051836,-0.00001881,-0.00001352,0.00003637,0.00034028,0.00002463
 ,0.00000671,0.00720380,-0.00438788,0.01231666,-0.04172813,0.00669758,-
 0.05824652,-0.00118682,-0.00808089,-0.00066624,-0.00829233,0.02619586,
 -0.01719453,0.00234830,0.00437563,-0.01221623,-0.00193063,-0.00568435,
 -0.00411864,0.01561494,-0.01345421,0.21075815,0.00000651,0.00033012,0.
 00033679,-0.00002906,-0.00009686,-0.00009209,0.00000260,0.00002204,0.0
 0014769,-0.00013829,-0.00033433,-0.00030919,0.00010125,-0.00000777,-0.
 00008159,0.00015703,-0.00005060,0.00001412,0.00010014,-0.00003886,0.00
 010637,-0.00003550,-0.00001840,0.00000354,0.00230291,0.00049351,0.0000
 3925,-0.00011826,-0.00015109,-0.00037969,-0.00055512,0.00040362,-0.000
 06478,-0.00009251,-0.00010362,-0.00031910,-0.00057280,0.00019791,0.000
 52871,-0.00001710,-0.00003673,0.00013466,-0.00037030,0.00020911,0.0001
 2136,0.00003254,0.00003678,0.00002373,-0.00031480,-0.00049436,-0.00069
 693,0.00019630,0.00015329,-0.00019314,-0.00011178,-0.00006046,-0.00002
 612,0.00002737,-0.00001329,0.00003649,-0.00012741,-0.00000761,-0.00007
 160,0.00005295,-0.00006293,0.00005201,-0.00006059,0.00003136,0.0000299
 6,0.00450673,0.00322079,0.00022940,-0.01416248,-0.00262630,0.00574542,
 0.00016256,-0.00072530,0.00114912,0.00019607,-0.00368641,0.00292898,0.
 00078839,-0.00176846,0.00028848,0.00200982,0.00000066,-0.00207265,-0.0
 4010705,-0.01038638,0.02664002,0.28339545,0.00020817,-0.00029102,-0.00
 032723,0.00021438,-0.00005448,-0.00001837,-0.00004679,-0.00001294,-0.0
 0008611,0.00004255,0.00001865,0.00018921,-0.00012009,-0.00000590,0.000
 08494,-0.00022891,0.00002363,-0.00004036,-0.00004827,0.00001574,-0.000
 00691,0.00005157,-0.00018242,0.00015424,-0.00135270,0.00030509,-0.0001
 7757,0.00003338,0.00037343,0.00010698,0.00028546,-0.00031807,-0.000039
 73,-0.00003403,0.00037267,0.00058594,-0.00003137,-0.00009800,-0.000069
 36,0.00002620,0.00006238,-0.00007962,0.00028021,-0.00006832,0.00018889
 ,0.00007064,0.00000176,0.00002877,-0.00028079,-0.00008009,0.00004632,0
 .00007422,-0.00000815,0.00008229,-0.00006918,-0.00003753,-0.00001423,-
 0.00001956,0.00000028,-0.00001561,0.00004007,0.00014648,-0.00012694,0.
 00004352,-0.00007216,0.00004806,0.00002701,-0.00002825,-0.00000598,0.0
 0155985,-0.00050965,-0.00135855,-0.00311885,-0.00033498,-0.00206086,0.
 00030604,0.00024407,0.00073111,-0.00045262,0.00047848,-0.00030328,-0.0
 0156402,-0.00209451,0.00188874,-0.00085577,0.00028399,0.00402226,-0.00
 450240,-0.01930074,0.02865611,-0.00697912,0.02599952,-0.00015915,0.000
 48834,0.00040210,-0.00015188,-0.00006472,0.00004607,0.00008100,-0.0000
 0881,0.00007002,-0.00033971,0.00006915,-0.00031122,0.00026271,0.000022
 61,-0.00007611,0.00018391,-0.00011770,-0.00003705,0.00008544,-0.000001
 92,0.00011201,-0.00016356,0.00015334,0.00004853,0.00327286,-0.00042644
 ,0.00111710,-0.00036159,-0.00045527,-0.00032313,-0.00062084,-0.0002276
 0,-0.00000611,-0.00028921,0.00011318,-0.00103029,-0.00057825,0.0001236
 4,0.00048212,-0.00006431,-0.00014213,0.00016796,-0.00027310,-0.0000375
 3,0.00070895,0.00003134,0.00002944,-0.00006936,-0.00016642,-0.00018058
 ,-0.00030198,-0.00014641,0.00000228,-0.00019461,0.00016578,0.00007895,
 0.00002999,0.00004596,-0.00001706,0.00000960,-0.00003711,-0.00030294,0
 .00032303,-0.00011214,0.00015427,-0.00010965,-0.00003665,0.00002960,-0
 .00001597,0.00359486,0.00443430,-0.00002617,0.00809131,0.00036023,0.00
 321434,0.00045864,-0.00076987,-0.00011152,0.00109806,-0.00095501,0.000
 46809,0.00157851,0.00394019,-0.00046095,0.00082386,0.00247756,-0.00380
 728,0.00859021,0.02332677,-0.08894215,0.03564292,-0.03430501,0.1272758
 8,0.00000443,0.00007176,0.00008986,-0.00004123,-0.00001602,0.00000837,
 0.00001059,-0.00000250,0.00001278,-0.00001927,0.00003363,-0.00002434,0
 .00003398,-0.00000039,-0.00002858,0.00006427,-0.00007852,-0.00004180,0
 .00000062,-0.00000216,0.00003246,-0.00002905,0.00004919,-0.00001984,0.
 00027626,-0.00014852,0.00019731,-0.00004933,-0.00013289,-0.00002517,-0
 .00008475,0.00004320,0.00005791,-0.00001649,-0.00004637,-0.00019109,-0
 .00010320,0.00002396,0.00008222,-0.00000352,-0.00002186,0.00003230,-0.
 00006407,0.00005355,0.00008519,0.00000495,0.00001788,-0.00002509,0.000
 03785,-0.00000655,-0.00002757,0.00000886,0.00002998,-0.00002622,-0.000
 00613,-0.00000395,-0.00000131,-0.00000320,-0.00000251,-0.00001217,-0.0
 0002843,-0.00000952,0.00002267,0.00000119,-0.00000067,0.00000188,-0.00
 000792,0.00000611,0.00000534,0.00015277,0.00050405,0.00034476,0.000668
 88,-0.00045309,0.00160546,-0.00013119,-0.00005243,-0.00026536,0.000018
 75,-0.00005302,-0.00038971,0.00007248,0.00041306,-0.00003004,0.0017692
 7,0.00006834,-0.00001894,-0.00834123,-0.00121627,0.00153718,-0.2386730
 9,0.01468009,-0.06241266,0.24433802,-0.00003114,0.00005481,0.00003786,
 -0.00004023,0.00003495,-0.00001377,-0.00000541,0.00001441,0.00002382,0
 .00001086,-0.00003872,-0.00007821,0.00002180,-0.00000023,-0.00001957,0
 .00004477,0.00004918,0.00003727,0.00002597,-0.00000490,-0.00004613,0.0
 0001968,0.00003766,-0.00007763,0.00023596,0.00006400,0.00000255,-0.000
 04169,-0.00032531,-0.00008566,-0.00014576,0.00008618,-0.00005057,-0.00
 002168,-0.00005363,-0.00016017,0.00024132,-0.00005442,-0.00007758,-0.0
 0001355,-0.00002542,0.00002289,-0.00009557,-0.00003828,-0.00012838,-0.
 00005970,-0.00001353,-0.00000471,0.00022295,0.00017223,0.00005150,-0.0
 0001871,-0.00002290,0.00000654,0.00001693,0.00001461,0.00000297,0.0000
 0314,0.00000824,0.00001742,-0.00000485,-0.00003928,0.00003812,-0.00001
 313,0.00002152,-0.00001348,0.00000102,0.00000717,0.00000091,-0.0016641
 9,-0.00025848,0.00093386,-0.00003572,0.00109583,0.00177927,-0.00011084
 ,0.00012775,-0.00018758,0.00021423,0.00014968,-0.00007210,-0.00022503,
 0.00059879,0.00064578,0.00004258,-0.00111311,0.00041704,-0.00449872,-0
 .00098636,-0.00315157,0.01936116,-0.00776438,0.00811427,-0.01355353,0.
 00814618,0.00006569,-0.00013452,-0.00012181,0.00003047,0.00001840,0.00
 000559,-0.00003227,0.00000753,-0.00004430,0.00012806,0.00007288,0.0001
 2122,-0.00004764,-0.00000266,0.00001019,0.00002098,-0.00000252,0.00001
 264,-0.00005199,0.00000829,-0.00005366,0.00005600,0.00004364,-0.000017
 12,-0.00126824,-0.00013386,-0.00018746,0.00011962,-0.00003475,0.000082
 13,0.00024858,-0.00007202,0.00002731,0.00002224,-0.00012490,0.00026185
 ,0.00042150,0.00003206,-0.00027870,0.00001015,0.00003176,-0.00003719,0
 .00015467,0.00002271,-0.00016912,-0.00002726,-0.00002871,0.00000713,0.
 00008244,0.00006509,0.00019847,-0.00005488,-0.00004309,0.00010550,0.00
 000898,0.00000765,0.00000460,-0.00002468,0.00001124,-0.00002595,0.0000
 3473,0.00003618,-0.00006067,0.00000478,-0.00000583,0.00000428,0.000001
 18,-0.00000110,0.00000182,-0.00225554,-0.00119088,0.00009526,-0.001086
 54,-0.00019502,0.00043199,-0.00036057,0.00049889,-0.00036346,-0.000093
 06,0.00156977,-0.00148153,-0.00032190,-0.00029291,0.00005019,-0.000397
 64,0.00126378,-0.00250132,0.01686938,0.00075896,0.00088622,-0.07183983
 ,0.00680744,-0.03198852,0.05964730,-0.00880894,0.03484373,-0.00020234,
 -0.00040525,-0.00033898,0.00030700,0.00023904,-0.00016323,-0.00003331,
 0.00000144,-0.00021355,-0.00007384,0.00020005,0.00023763,-0.00018600,0
 .00005426,0.00008984,-0.00028970,0.00006312,0.00019477,-0.00004758,0.0
 0002516,-0.00016981,0.00043060,0.00010890,0.00018330,-0.00156762,-0.00
 066372,-0.00108801,0.00028129,0.00003917,0.00032496,0.00006279,0.00073
 136,0.00012259,0.00024428,0.00018875,0.00076496,0.00114059,-0.00051591
 ,-0.00104936,0.00005047,0.00010282,-0.00013832,0.00037685,0.00030746,-
 0.00060674,-0.00016267,-0.00011178,0.00006586,0.00051165,0.00073681,0.
 00053177,-0.00016247,-0.00009421,0.00032453,0.00003404,0.00001472,0.00
 001334,-0.00008155,0.00003034,-0.00007147,0.00014653,0.00013660,-0.000
 02608,0.00000383,-0.00002520,0.00000965,0.00012051,-0.00003886,-0.0000
 3220,-0.00150498,-0.00206472,-0.00097969,0.00189490,-0.00119257,0.0015
 1840,-0.00039313,-0.00384752,0.00138804,-0.00404016,-0.00199092,0.0018
 4610,0.00059540,-0.00386088,0.00159806,-0.00187274,0.00651287,-0.00310
 286,-0.00744131,0.00063870,-0.00270112,0.00205396,0.00106140,-0.000047
 84,-0.00001118,0.00009458,-0.00005849,0.08098717,0.00018116,-0.0001855
 2,-0.00022784,0.00008292,0.00002905,-0.00020925,-0.00010623,0.00013531
 ,0.00027349,-0.00029036,-0.00026230,0.00018723,0.00005081,-0.00005799,
 -0.00007762,0.00014536,-0.00027740,-0.00022796,0.00010857,-0.00004070,
 0.00008985,-0.00006217,0.00006717,-0.00017560,0.00162203,0.00070389,-0
 .00001743,-0.00007495,-0.00003262,0.00012451,-0.00053933,-0.00057482,0
 .00009552,-0.00048619,0.00018711,0.00002455,-0.00069639,0.00018629,0.0
 0082304,0.00005308,-0.00004637,0.00013083,0.00046702,0.00002829,0.0011
 1488,0.00000696,0.00007590,-0.00008976,-0.00021343,0.00011492,-0.00063
 689,0.00025231,0.00018829,-0.00010195,-0.00017173,-0.00008726,-0.00004
 361,-0.00001332,0.00000096,0.00004238,-0.00015808,0.00016495,-0.000004
 00,0.00007453,-0.00012617,0.00008509,0.00002828,-0.00001342,0.00002533
 ,0.00151255,-0.00064639,0.00224372,-0.00150088,0.00055765,-0.00227565,
 -0.00493105,-0.01049422,0.00502496,0.00013224,0.00150125,-0.00208244,-
 0.00161444,-0.00134606,-0.00194791,0.00304407,-0.00414366,0.00114321,0
 .00119740,-0.07272625,-0.02783184,0.00337525,0.00281743,-0.00701736,-0
 .00026755,-0.00009439,-0.00018615,-0.03896294,0.11694966,0.00024751,0.
 00019771,-0.00003335,-0.00021285,-0.00031752,0.00021957,-0.00000638,-0
 .00002045,0.00007766,0.00000889,-0.00042854,-0.00006738,-0.00005909,0.
 00000456,-0.00006980,0.00004982,0.00003401,-0.00034937,0.00009988,-0.0
 0004293,0.00003767,-0.00012461,-0.00020419,0.00002243,-0.00017263,0.00
 229501,0.00151150,-0.00024163,0.00039051,-0.00010876,0.00017776,0.0002
 8315,-0.00011738,0.00015114,-0.00028338,0.00002099,-0.00077780,-0.0003
 7083,0.00060158,0.00008274,0.00002406,0.00003884,0.00020271,0.00059706
 ,-0.00000686,-0.00007208,0.00007257,-0.00007379,0.00009996,0.00016660,
 -0.00010024,0.00020421,0.00013358,-0.00015892,-0.00009913,-0.00004775,
 -0.00003606,0.00003182,-0.00001441,0.00010321,0.00000953,0.00009285,-0
 .00021493,0.00005728,-0.00005535,0.00004129,-0.00012859,0.00000885,0.0
 0004779,0.00081325,-0.00082258,-0.00202126,-0.00174013,-0.00287547,-0.
 00320807,-0.00027211,0.00072557,0.00064006,0.00129246,-0.00113609,-0.0
 0094597,-0.00317802,-0.00623861,0.00307717,0.00220353,-0.00208719,0.00
 100552,-0.00049840,-0.02612541,-0.03286909,0.00208383,-0.00378713,-0.0
 0649194,-0.00021464,0.00082853,0.00018601,0.10980085,-0.02487109,0.209
 26764,0.00011183,0.00008732,0.00010984,-0.00005091,-0.00006656,0.00010
 182,0.00000025,-0.00002252,0.00000622,0.00006869,0.00004373,-0.0000114
 2,0.00003868,-0.00002258,-0.00000155,0.00000752,-0.00002805,-0.0000250
 0,-0.00000351,0.00000068,0.00002662,-0.00007946,0.00002512,-0.00005449
 ,0.00020168,0.00001917,0.00031542,0.00003223,-0.00018446,-0.00002559,0
 .00013216,-0.00024244,-0.00007706,-0.00012272,-0.00021027,-0.00016710,
 -0.00018009,0.00002765,0.00009667,-0.00001424,0.00000828,-0.00000140,-
 0.00017483,0.00006620,-0.00005430,0.00005295,0.00003610,-0.00001471,0.
 00020285,-0.00012522,-0.00011633,0.00004046,0.00001273,-0.00007128,-0.
 00000560,-0.00000264,-0.00000331,0.00001732,-0.00000292,0.00001504,-0.
 00001708,-0.00003781,-0.00004981,0.00000277,0.00000784,-0.00000219,-0.
 00005231,0.00001586,0.00001198,-0.00025580,0.00042624,-0.00022201,-0.0
 0167241,-0.00097102,-0.00176697,-0.00098125,0.00050355,-0.00097710,0.0
 0146122,0.00028393,-0.00017913,-0.00028477,0.00194162,0.00022957,0.000
 71621,-0.00064795,0.00125775,-0.00061442,-0.00157479,0.00000627,-0.000
 60644,0.00069969,0.00195347,0.00015010,0.00002248,-0.00000625,-0.07117
 127,0.03775448,-0.10981907,0.07305020,0.00003446,0.00002924,-0.0000282
 9,-0.00002398,-0.00002904,0.00007894,-0.00001314,0.00000378,-0.0000114
 7,0.00007891,-0.00001222,0.00007247,-0.00001767,-0.00001793,-0.0000302
 6,0.00006260,-0.00003892,-0.00000234,-0.00000768,0.00000256,-0.0000210
 7,0.00000610,0.00002478,-0.00000637,-0.00045394,0.00018015,-0.00006021
 ,0.00007368,-0.00000980,0.00001373,0.00000549,0.00006232,0.00006214,-0
 .00000919,-0.00008602,0.00006499,0.00012162,-0.00000365,-0.00011026,0.
 00001508,-0.00000256,-0.00000776,0.00018196,0.00040304,0.00014462,-0.0
 0002813,-0.00000859,-0.00000542,-0.00003427,0.00007580,-0.00000854,-0.
 00002874,0.00000424,0.00004357,0.00000854,0.00000289,0.00000247,-0.000
 01052,0.00000230,-0.00002159,0.00004558,0.00000076,-0.00004292,-0.0000
 0772,0.00001494,-0.00000840,-0.00002327,0.00000577,0.00000424,-0.00000
 215,-0.00043474,-0.00003726,0.00029585,-0.00034743,-0.00009340,-0.0014
 4748,-0.00095428,-0.00048435,-0.00009313,-0.00064800,-0.00033531,-0.00
 052409,-0.00146893,0.00137104,0.00102333,-0.00140955,-0.00083205,-0.00
 375839,0.00268068,-0.00877440,-0.00018669,0.00011797,0.00111182,0.0000
 7350,0.00015015,0.00000157,0.04248695,-0.03255260,0.06387429,-0.037843
 45,0.03426291,-0.00001355,-0.00007542,0.00000331,0.00001090,0.00000606
 ,0.00000267,0.00000604,-0.00000459,-0.00005320,-0.00000164,-0.00002950
 ,0.00005430,-0.00006568,0.00003197,0.00002623,-0.00006653,0.00002657,0
 .00004554,-0.00001158,0.00000650,-0.00001975,0.00003970,-0.00001934,0.
 00004854,-0.00041042,0.00016384,-0.00027665,0.00001173,0.00010749,0.00
 002176,0.00002843,0.00037854,0.00002660,0.00022626,0.00001772,0.000116
 74,0.00019380,0.00000185,-0.00021351,-0.00000406,0.00001053,-0.0000355
 2,-0.00020900,-0.00011034,-0.00047250,-0.00003610,-0.00002913,0.000024
 60,-0.00007990,0.00005084,0.00013304,-0.00004423,-0.00001667,0.0000572
 6,0.00001530,0.00000505,0.00000682,-0.00000696,-0.00000060,-0.00001779
 ,0.00003461,0.00002037,-0.00001071,-0.00000130,0.00000151,-0.00000166,
 0.00001036,-0.00000671,-0.00000888,0.00002752,-0.00017555,-0.00043097,
 0.00114712,0.00001471,0.00111998,0.00075353,0.00036045,0.00070024,-0.0
 0090860,-0.00103514,0.00131976,0.00017729,-0.00175057,0.00074751,-0.00
 042830,0.00162291,-0.00097228,-0.00153866,0.00053808,-0.00744602,-0.00
 013616,-0.00079848,-0.00017177,-0.00000845,0.00001549,-0.00000534,-0.1
 0822688,0.05659576,-0.17002575,0.10951540,-0.05592420,0.17570742\\-0.0
 0001925,0.00002702,0.00002795,0.00004153,0.00000663,-0.00002234,-0.000
 01857,0.00003322,-0.00000314,0.00002589,0.00000467,-0.00000630,0.00000
 329,0.00001003,-0.00000956,0.00003378,-0.00007572,-0.00004235,-0.00002
 183,-0.00000487,0.00001477,-0.00000997,0.00000305,0.00002411,-0.000169
 69,-0.00005417,-0.00005521,0.00001719,0.00001825,0.00006390,0.00000919
 ,-0.00000464,-0.00000279,0.00005913,-0.00001442,0.00007364,0.00002782,
 0.00000392,-0.00010717,0.00000113,0.00000066,-0.00000781,0.00003097,0.
 00000210,-0.00003438,-0.00001957,-0.00000899,0.00002618,0.00001274,0.0
 0002157,0.00004062,-0.00001542,0.00000745,0.00004277,0.00000498,0.0000
 0739,-0.00001018,0.00000271,0.00002248,0.00000988,-0.00001680,0.000004
 72,0.00001560,0.00000710,-0.00000413,-0.00001859,0.00000328,-0.0000120
 0,-0.00000268,0.00001345,-0.00007919,-0.00006314,-0.00003687,0.0000376
 8,0.00001553,-0.00004048,0.00001007,0.00000658,-0.00005746,0.00002879,
 0.00003135,0.00002589,-0.00000251,-0.00000294,0.00002149,0.00003230,-0
 .00004503,0.00004506,-0.00007051,0.00008926,0.00003403,0.00001809,-0.0
 0002358,0.00000079,-0.00001150,-0.00000344,0.00000074,0.00002553,-0.00
 000250,0.00000371,0.00001703,-0.00001900\\\@
 The archive entry for this job was punched.


 HONESTY IN A LAWYER IS LIKE A HEN'S HIND LEGS.
  -- MAGNUS OLESON, LAKE WOBEGON PATRIARCH, C.1875
 Job cpu time:       0 days 13 hours 56 minutes 23.1 seconds.
 Elapsed time:       0 days  0 hours 18 minutes 14.3 seconds.
 File lengths (MBytes):  RWF=   2170 Int=      0 D2E=      0 Chk=     37 Scr=      2
 Normal termination of Gaussian 16 at Mon Dec 12 11:45:58 2022.
