 Entering Gaussian System, Link 0=/apps/GAU16/avx2/g16/g16
 Initial command:
 /apps/GAU16/avx2//g16/l1.exe "/localscratch/chegho/Gau-3522.inp" -scrdir="/localscratch/chegho/"
 Entering Link 1 = /apps/GAU16/avx2//g16/l1.exe PID=      3523.
  
 Copyright (c) 1988-2019, Gaussian, Inc.  All Rights Reserved.
  
 This is part of the Gaussian(R) 16 program.  It is based on
 the Gaussian(R) 09 system (copyright 2009, Gaussian, Inc.),
 the Gaussian(R) 03 system (copyright 2003, Gaussian, Inc.),
 the Gaussian(R) 98 system (copyright 1998, Gaussian, Inc.),
 the Gaussian(R) 94 system (copyright 1995, Gaussian, Inc.),
 the Gaussian 92(TM) system (copyright 1992, Gaussian, Inc.),
 the Gaussian 90(TM) system (copyright 1990, Gaussian, Inc.),
 the Gaussian 88(TM) system (copyright 1988, Gaussian, Inc.),
 the Gaussian 86(TM) system (copyright 1986, Carnegie Mellon
 University), and the Gaussian 82(TM) system (copyright 1983,
 Carnegie Mellon University). Gaussian is a federally registered
 trademark of Gaussian, Inc.
  
 This software contains proprietary and confidential information,
 including trade secrets, belonging to Gaussian, Inc.
  
 This software is provided under written license and may be
 used, copied, transmitted, or stored only in accord with that
 written license.
  
 The following legend is applicable only to US Government
 contracts under FAR:
  
                    RESTRICTED RIGHTS LEGEND
  
 Use, reproduction and disclosure by the US Government is
 subject to restrictions as set forth in subparagraphs (a)
 and (c) of the Commercial Computer Software - Restricted
 Rights clause in FAR 52.227-19.
  
 Gaussian, Inc.
 340 Quinnipiac St., Bldg. 40, Wallingford CT 06492
  
  
 ---------------------------------------------------------------
 Warning -- This program may not be used in any manner that
 competes with the business of Gaussian, Inc. or will provide
 assistance to any competitor of Gaussian, Inc.  The licensee
 of this program is prohibited from giving any competitor of
 Gaussian, Inc. access to this program.  By using this program,
 the user acknowledges that Gaussian, Inc. is engaged in the
 business of creating and licensing software in the field of
 computational chemistry and represents and warrants to the
 licensee that it is not a competitor of Gaussian, Inc. and that
 it will not use this program in any manner prohibited above.
 ---------------------------------------------------------------
  

 Cite this work as:
 Gaussian 16, Revision C.01,
 M. J. Frisch, G. W. Trucks, H. B. Schlegel, G. E. Scuseria, 
 M. A. Robb, J. R. Cheeseman, G. Scalmani, V. Barone, 
 G. A. Petersson, H. Nakatsuji, X. Li, M. Caricato, A. V. Marenich, 
 J. Bloino, B. G. Janesko, R. Gomperts, B. Mennucci, H. P. Hratchian, 
 J. V. Ortiz, A. F. Izmaylov, J. L. Sonnenberg, D. Williams-Young, 
 F. Ding, F. Lipparini, F. Egidi, J. Goings, B. Peng, A. Petrone, 
 T. Henderson, D. Ranasinghe, V. G. Zakrzewski, J. Gao, N. Rega, 
 G. Zheng, W. Liang, M. Hada, M. Ehara, K. Toyota, R. Fukuda, 
 J. Hasegawa, M. Ishida, T. Nakajima, Y. Honda, O. Kitao, H. Nakai, 
 T. Vreven, K. Throssell, J. A. Montgomery, Jr., J. E. Peralta, 
 F. Ogliaro, M. J. Bearpark, J. J. Heyd, E. N. Brothers, K. N. Kudin, 
 V. N. Staroverov, T. A. Keith, R. Kobayashi, J. Normand, 
 K. Raghavachari, A. P. Rendell, J. C. Burant, S. S. Iyengar, 
 J. Tomasi, M. Cossi, J. M. Millam, M. Klene, C. Adamo, R. Cammi, 
 J. W. Ochterski, R. L. Martin, K. Morokuma, O. Farkas, 
 J. B. Foresman, and D. J. Fox, Gaussian, Inc., Wallingford CT, 2019.
 
 ******************************************
 Gaussian 16:  ES64L-G16RevC.01  3-Jul-2019
                13-Dec-2022 
 ******************************************
 %nprocshared=46
 Will use up to   46 processors via shared memory.
 %mem=100GB
 -----------------------------------------------------------
 # opt=(calcfc,ts,noeigen) freq b3lyp/gen nosymm pseudo=read
 -----------------------------------------------------------
 1/5=1,10=4,11=1,18=20,26=3,38=1/1,3;
 2/9=110,12=2,15=1,17=6,18=5,40=1/2;
 3/5=7,11=2,16=1,17=8,25=1,30=1,71=2,74=-5,140=1/1,2,3;
 4//1;
 5/5=2,38=5/2;
 8/6=4,10=90,11=11/1;
 11/6=1,8=1,9=11,15=111,16=1,31=1/1,2,10;
 10/6=1,13=1,31=1/2;
 6/7=2,8=2,9=2,10=2,28=1/1;
 7/10=1,25=1,30=1/1,2,3,16;
 1/5=1,10=4,11=1,18=20,26=3/3(2);
 2/9=110,15=1/2;
 99//99;
 2/9=110,15=1/2;
 3/5=7,6=1,11=2,16=1,17=8,25=1,30=1,71=1,74=-5,82=7/1,2,3;
 4/5=5,16=3,69=1/1;
 5/5=2,38=5/2;
 7/30=1/1,2,3,16;
 1/5=1,11=1,18=20,26=3/3(-5);
 2/9=110,15=1/2;
 6/7=2,8=2,9=2,10=2,19=2,28=1/1;
 99/9=1/99;
 -------------------
 Title Card Required
 -------------------
 Symbolic Z-matrix:
 Charge =  0 Multiplicity = 1
 42                    0.41537   2.13449   12.20756 
 16                    1.37306   4.16673   11.56499 
 16                   -1.55628   2.87767   13.24406 
 16                   -0.51305   1.04046   10.29279 
 16                    2.17412   0.37203   11.75186 
 42                   -2.09001   2.71643   10.95323 
 16                   -3.2781    1.66267   8.97799 
 16                   -1.35042   4.79967   10.22572 
 42                    0.37149   3.13471   9.48186 
 16                   -0.5672    2.44702   7.28334 
 16                    2.35745   1.76727   8.81736 
 42                    2.97924   2.62519   10.95853 
 42                   -2.2254    3.85197   8.30218 
 16                    4.45974   2.8395    12.95212 
 16                    4.60126   4.21838   10.10936 
 16                   -4.4718    4.97585   8.4566 
 16                   -1.73023   5.89989   7.07982 
 42                   -4.86655   3.15035   9.6924 
 16                   -6.84728   2.43313   9.46205 
 16                   -4.33057   3.56954   11.81454 
 42                    2.99801   1.29633   13.68275 
 16                    3.93364  -0.12786   14.94308 
 16                    1.25533   2.29741   14.62986 
 42                    0.13356   4.64736   6.83669 
 16                    0.77118   5.4847    4.81299 
 16                    1.42488   5.61389   8.53131 
 42                    3.10247   3.98657   8.40818 
 16                    2.53436   3.52835   6.13403 
 16                    4.72169   5.29283   7.14882 
 42                    2.8101    6.13375   6.11594 
 16                    3.67128   7.241     4.43051 
 1                     3.46572   8.70385   5.17039 
 16                    2.43318   8.16978   7.07673 
 1                     3.11098   8.95529   5.85819 
 
 Add virtual bond connecting atoms H32        and S31        Dist= 3.12D+00.
 Add virtual bond connecting atoms H34        and S33        Dist= 3.02D+00.

 GradGradGradGradGradGradGradGradGradGradGradGradGradGradGradGradGradGrad
 Berny optimization.
 Initialization pass.
                           ----------------------------
                           !    Initial Parameters    !
                           ! (Angstroms and Degrees)  !
 --------------------------                            --------------------------
 ! Name  Definition              Value          Derivative Info.                !
 --------------------------------------------------------------------------------
 ! R1    R(1,2)                  2.3367         calculate D2E/DX2 analytically  !
 ! R2    R(1,3)                  2.3482         calculate D2E/DX2 analytically  !
 ! R3    R(1,4)                  2.3927         calculate D2E/DX2 analytically  !
 ! R4    R(1,5)                  2.5312         calculate D2E/DX2 analytically  !
 ! R5    R(1,6)                  2.8616         calculate D2E/DX2 analytically  !
 ! R6    R(1,9)                  2.9038         calculate D2E/DX2 analytically  !
 ! R7    R(1,12)                 2.8938         calculate D2E/DX2 analytically  !
 ! R8    R(1,21)                 3.0901         calculate D2E/DX2 analytically  !
 ! R9    R(1,23)                 2.569          calculate D2E/DX2 analytically  !
 ! R10   R(2,9)                  2.5313         calculate D2E/DX2 analytically  !
 ! R11   R(2,12)                 2.3074         calculate D2E/DX2 analytically  !
 ! R12   R(3,6)                  2.3577         calculate D2E/DX2 analytically  !
 ! R13   R(4,6)                  2.3941         calculate D2E/DX2 analytically  !
 ! R14   R(4,9)                  2.4137         calculate D2E/DX2 analytically  !
 ! R15   R(5,12)                 2.5208         calculate D2E/DX2 analytically  !
 ! R16   R(5,21)                 2.2938         calculate D2E/DX2 analytically  !
 ! R17   R(6,7)                  2.5345         calculate D2E/DX2 analytically  !
 ! R18   R(6,8)                  2.3273         calculate D2E/DX2 analytically  !
 ! R19   R(6,9)                  2.8981         calculate D2E/DX2 analytically  !
 ! R20   R(6,13)                 2.8872         calculate D2E/DX2 analytically  !
 ! R21   R(6,18)                 3.0801         calculate D2E/DX2 analytically  !
 ! R22   R(6,20)                 2.5475         calculate D2E/DX2 analytically  !
 ! R23   R(7,13)                 2.5215         calculate D2E/DX2 analytically  !
 ! R24   R(7,18)                 2.2906         calculate D2E/DX2 analytically  !
 ! R25   R(8,9)                  2.5081         calculate D2E/DX2 analytically  !
 ! R26   R(8,13)                 2.316          calculate D2E/DX2 analytically  !
 ! R27   R(9,10)                 2.4875         calculate D2E/DX2 analytically  !
 ! R28   R(9,11)                 2.5011         calculate D2E/DX2 analytically  !
 ! R29   R(9,12)                 3.0398         calculate D2E/DX2 analytically  !
 ! R30   R(9,13)                 2.9411         calculate D2E/DX2 analytically  !
 ! R31   R(9,24)                 3.0564         calculate D2E/DX2 analytically  !
 ! R32   R(9,27)                 3.0556         calculate D2E/DX2 analytically  !
 ! R33   R(10,13)                2.4003         calculate D2E/DX2 analytically  !
 ! R34   R(10,24)                2.352          calculate D2E/DX2 analytically  !
 ! R35   R(11,12)                2.389          calculate D2E/DX2 analytically  !
 ! R36   R(11,27)                2.3765         calculate D2E/DX2 analytically  !
 ! R37   R(12,14)                2.4924         calculate D2E/DX2 analytically  !
 ! R38   R(12,15)                2.427          calculate D2E/DX2 analytically  !
 ! R39   R(12,21)                3.0311         calculate D2E/DX2 analytically  !
 ! R40   R(12,27)                2.8936         calculate D2E/DX2 analytically  !
 ! R41   R(13,16)                2.5166         calculate D2E/DX2 analytically  !
 ! R42   R(13,17)                2.4358         calculate D2E/DX2 analytically  !
 ! R43   R(13,18)                3.0661         calculate D2E/DX2 analytically  !
 ! R44   R(13,24)                2.8888         calculate D2E/DX2 analytically  !
 ! R45   R(14,21)                2.2476         calculate D2E/DX2 analytically  !
 ! R46   R(15,27)                2.2791         calculate D2E/DX2 analytically  !
 ! R47   R(16,18)                2.2395         calculate D2E/DX2 analytically  !
 ! R48   R(17,24)                2.2587         calculate D2E/DX2 analytically  !
 ! R49   R(18,19)                2.1191         calculate D2E/DX2 analytically  !
 ! R50   R(18,20)                2.2285         calculate D2E/DX2 analytically  !
 ! R51   R(21,22)                2.1195         calculate D2E/DX2 analytically  !
 ! R52   R(21,23)                2.2217         calculate D2E/DX2 analytically  !
 ! R53   R(24,25)                2.281          calculate D2E/DX2 analytically  !
 ! R54   R(24,26)                2.3395         calculate D2E/DX2 analytically  !
 ! R55   R(24,28)                2.7404         calculate D2E/DX2 analytically  !
 ! R56   R(25,30)                2.5052         calculate D2E/DX2 analytically  !
 ! R57   R(26,27)                2.3404         calculate D2E/DX2 analytically  !
 ! R58   R(27,28)                2.3884         calculate D2E/DX2 analytically  !
 ! R59   R(27,29)                2.4319         calculate D2E/DX2 analytically  !
 ! R60   R(28,30)                2.62           calculate D2E/DX2 analytically  !
 ! R61   R(29,30)                2.3298         calculate D2E/DX2 analytically  !
 ! R62   R(30,31)                2.1928         calculate D2E/DX2 analytically  !
 ! R63   R(30,33)                2.2827         calculate D2E/DX2 analytically  !
 ! R64   R(31,32)                1.6521         calculate D2E/DX2 analytically  !
 ! R65   R(32,34)                0.8137         calculate D2E/DX2 analytically  !
 ! R66   R(33,34)                1.6004         calculate D2E/DX2 analytically  !
 ! A1    A(2,1,3)              100.9676         calculate D2E/DX2 analytically  !
 ! A2    A(2,1,4)              109.6713         calculate D2E/DX2 analytically  !
 ! A3    A(2,1,5)              105.7409         calculate D2E/DX2 analytically  !
 ! A4    A(2,1,6)               93.5217         calculate D2E/DX2 analytically  !
 ! A5    A(2,1,21)              91.4116         calculate D2E/DX2 analytically  !
 ! A6    A(2,1,23)              94.0213         calculate D2E/DX2 analytically  !
 ! A7    A(3,1,4)               99.9126         calculate D2E/DX2 analytically  !
 ! A8    A(3,1,5)              152.035          calculate D2E/DX2 analytically  !
 ! A9    A(3,1,9)              107.0154         calculate D2E/DX2 analytically  !
 ! A10   A(3,1,12)             151.7331         calculate D2E/DX2 analytically  !
 ! A11   A(3,1,21)             125.2312         calculate D2E/DX2 analytically  !
 ! A12   A(3,1,23)              80.6921         calculate D2E/DX2 analytically  !
 ! A13   A(4,1,5)               78.8821         calculate D2E/DX2 analytically  !
 ! A14   A(4,1,12)              94.3532         calculate D2E/DX2 analytically  !
 ! A15   A(4,1,21)             125.6129         calculate D2E/DX2 analytically  !
 ! A16   A(4,1,23)             155.5633         calculate D2E/DX2 analytically  !
 ! A17   A(5,1,6)              132.1447         calculate D2E/DX2 analytically  !
 ! A18   A(5,1,9)               94.6661         calculate D2E/DX2 analytically  !
 ! A19   A(5,1,23)              89.2397         calculate D2E/DX2 analytically  !
 ! A20   A(6,1,12)             123.5048         calculate D2E/DX2 analytically  !
 ! A21   A(6,1,23)             133.3666         calculate D2E/DX2 analytically  !
 ! A22   A(9,1,21)             123.6543         calculate D2E/DX2 analytically  !
 ! A23   A(9,1,23)             150.2482         calculate D2E/DX2 analytically  !
 ! A24   A(12,1,23)             96.1157         calculate D2E/DX2 analytically  !
 ! A25   A(1,6,7)              131.8721         calculate D2E/DX2 analytically  !
 ! A26   A(1,6,8)               92.3399         calculate D2E/DX2 analytically  !
 ! A27   A(1,6,13)             121.5682         calculate D2E/DX2 analytically  !
 ! A28   A(1,6,20)             133.6241         calculate D2E/DX2 analytically  !
 ! A29   A(3,6,4)               99.6017         calculate D2E/DX2 analytically  !
 ! A30   A(3,6,7)              153.1001         calculate D2E/DX2 analytically  !
 ! A31   A(3,6,8)               99.8213         calculate D2E/DX2 analytically  !
 ! A32   A(3,6,9)              106.9273         calculate D2E/DX2 analytically  !
 ! A33   A(3,6,13)             151.15           calculate D2E/DX2 analytically  !
 ! A34   A(3,6,18)             126.3108         calculate D2E/DX2 analytically  !
 ! A35   A(3,6,20)              81.2393         calculate D2E/DX2 analytically  !
 ! A36   A(4,6,7)               78.6223         calculate D2E/DX2 analytically  !
 ! A37   A(4,6,8)              109.3338         calculate D2E/DX2 analytically  !
 ! A38   A(4,6,13)              93.0331         calculate D2E/DX2 analytically  !
 ! A39   A(4,6,18)             125.4123         calculate D2E/DX2 analytically  !
 ! A40   A(4,6,20)             155.0955         calculate D2E/DX2 analytically  !
 ! A41   A(7,6,8)              106.1124         calculate D2E/DX2 analytically  !
 ! A42   A(7,6,9)               93.5822         calculate D2E/DX2 analytically  !
 ! A43   A(7,6,20)              89.4523         calculate D2E/DX2 analytically  !
 ! A44   A(8,6,18)              91.857          calculate D2E/DX2 analytically  !
 ! A45   A(8,6,20)              94.9007         calculate D2E/DX2 analytically  !
 ! A46   A(9,6,18)             122.5124         calculate D2E/DX2 analytically  !
 ! A47   A(9,6,20)             150.4984         calculate D2E/DX2 analytically  !
 ! A48   A(13,6,20)             97.9031         calculate D2E/DX2 analytically  !
 ! A49   A(1,9,8)               87.7441         calculate D2E/DX2 analytically  !
 ! A50   A(1,9,10)             137.7411         calculate D2E/DX2 analytically  !
 ! A51   A(1,9,11)              92.8123         calculate D2E/DX2 analytically  !
 ! A52   A(1,9,13)             118.2851         calculate D2E/DX2 analytically  !
 ! A53   A(1,9,27)             114.3531         calculate D2E/DX2 analytically  !
 ! A54   A(2,9,4)              102.8417         calculate D2E/DX2 analytically  !
 ! A55   A(2,9,6)               88.6876         calculate D2E/DX2 analytically  !
 ! A56   A(2,9,8)               75.9319         calculate D2E/DX2 analytically  !
 ! A57   A(2,9,11)              97.3175         calculate D2E/DX2 analytically  !
 ! A58   A(2,9,13)             125.4521         calculate D2E/DX2 analytically  !
 ! A59   A(2,9,24)             122.7679         calculate D2E/DX2 analytically  !
 ! A60   A(2,9,27)              79.739          calculate D2E/DX2 analytically  !
 ! A61   A(4,9,8)              102.9877         calculate D2E/DX2 analytically  !
 ! A62   A(4,9,10)              85.3412         calculate D2E/DX2 analytically  !
 ! A63   A(4,9,11)              84.5988         calculate D2E/DX2 analytically  !
 ! A64   A(4,9,12)              90.329          calculate D2E/DX2 analytically  !
 ! A65   A(4,9,13)              91.3054         calculate D2E/DX2 analytically  !
 ! A66   A(4,9,24)             133.7609         calculate D2E/DX2 analytically  !
 ! A67   A(4,9,27)             133.431          calculate D2E/DX2 analytically  !
 ! A68   A(6,9,10)              95.0664         calculate D2E/DX2 analytically  !
 ! A69   A(6,9,11)             136.9198         calculate D2E/DX2 analytically  !
 ! A70   A(6,9,12)             117.2458         calculate D2E/DX2 analytically  !
 ! A71   A(6,9,24)             116.4044         calculate D2E/DX2 analytically  !
 ! A72   A(8,9,10)             100.7534         calculate D2E/DX2 analytically  !
 ! A73   A(8,9,12)             123.7904         calculate D2E/DX2 analytically  !
 ! A74   A(8,9,24)              82.8016         calculate D2E/DX2 analytically  !
 ! A75   A(8,9,27)             122.1917         calculate D2E/DX2 analytically  !
 ! A76   A(10,9,11)             85.0476         calculate D2E/DX2 analytically  !
 ! A77   A(10,9,12)            134.9699         calculate D2E/DX2 analytically  !
 ! A78   A(10,9,27)             95.9572         calculate D2E/DX2 analytically  !
 ! A79   A(11,9,13)            136.709          calculate D2E/DX2 analytically  !
 ! A80   A(11,9,24)             95.8811         calculate D2E/DX2 analytically  !
 ! A81   A(12,9,24)            124.7606         calculate D2E/DX2 analytically  !
 ! A82   A(13,9,27)            125.4669         calculate D2E/DX2 analytically  !
 ! A83   A(24,9,27)             68.13           calculate D2E/DX2 analytically  !
 ! A84   A(1,12,11)             95.4714         calculate D2E/DX2 analytically  !
 ! A85   A(1,12,14)            101.2807         calculate D2E/DX2 analytically  !
 ! A86   A(1,12,15)            148.6989         calculate D2E/DX2 analytically  !
 ! A87   A(1,12,27)            119.8629         calculate D2E/DX2 analytically  !
 ! A88   A(2,12,5)             106.9845         calculate D2E/DX2 analytically  !
 ! A89   A(2,12,11)            107.1163         calculate D2E/DX2 analytically  !
 ! A90   A(2,12,14)             98.3842         calculate D2E/DX2 analytically  !
 ! A91   A(2,12,15)             96.8125         calculate D2E/DX2 analytically  !
 ! A92   A(2,12,21)             93.4962         calculate D2E/DX2 analytically  !
 ! A93   A(2,12,27)             86.9605         calculate D2E/DX2 analytically  !
 ! A94   A(5,12,9)              91.6447         calculate D2E/DX2 analytically  !
 ! A95   A(5,12,11)             82.9895         calculate D2E/DX2 analytically  !
 ! A96   A(5,12,14)             90.8508         calculate D2E/DX2 analytically  !
 ! A97   A(5,12,15)            155.551          calculate D2E/DX2 analytically  !
 ! A98   A(5,12,27)            135.3586         calculate D2E/DX2 analytically  !
 ! A99   A(9,12,14)            152.0929         calculate D2E/DX2 analytically  !
 ! A100  A(9,12,15)            107.0577         calculate D2E/DX2 analytically  !
 ! A101  A(9,12,21)            121.0232         calculate D2E/DX2 analytically  !
 ! A102  A(11,12,14)           154.4711         calculate D2E/DX2 analytically  !
 ! A103  A(11,12,15)            95.5145         calculate D2E/DX2 analytically  !
 ! A104  A(11,12,21)           130.5185         calculate D2E/DX2 analytically  !
 ! A105  A(14,12,15)            80.0048         calculate D2E/DX2 analytically  !
 ! A106  A(14,12,27)           129.7345         calculate D2E/DX2 analytically  !
 ! A107  A(15,12,21)           126.7352         calculate D2E/DX2 analytically  !
 ! A108  A(6,13,10)             97.3045         calculate D2E/DX2 analytically  !
 ! A109  A(6,13,16)             99.2739         calculate D2E/DX2 analytically  !
 ! A110  A(6,13,17)            141.4359         calculate D2E/DX2 analytically  !
 ! A111  A(6,13,24)            122.3992         calculate D2E/DX2 analytically  !
 ! A112  A(7,13,8)             106.8825         calculate D2E/DX2 analytically  !
 ! A113  A(7,13,9)              92.8304         calculate D2E/DX2 analytically  !
 ! A114  A(7,13,10)             83.9136         calculate D2E/DX2 analytically  !
 ! A115  A(7,13,16)             89.9219         calculate D2E/DX2 analytically  !
 ! A116  A(7,13,17)            161.686          calculate D2E/DX2 analytically  !
 ! A117  A(7,13,24)            135.7216         calculate D2E/DX2 analytically  !
 ! A118  A(8,13,10)            109.3329         calculate D2E/DX2 analytically  !
 ! A119  A(8,13,16)             95.9423         calculate D2E/DX2 analytically  !
 ! A120  A(8,13,17)             89.7683         calculate D2E/DX2 analytically  !
 ! A121  A(8,13,18)             92.4349         calculate D2E/DX2 analytically  !
 ! A122  A(8,13,24)             90.0096         calculate D2E/DX2 analytically  !
 ! A123  A(9,13,16)            150.7468         calculate D2E/DX2 analytically  !
 ! A124  A(9,13,17)            103.1104         calculate D2E/DX2 analytically  !
 ! A125  A(9,13,18)            121.5288         calculate D2E/DX2 analytically  !
 ! A126  A(10,13,16)           154.7016         calculate D2E/DX2 analytically  !
 ! A127  A(10,13,17)            97.9708         calculate D2E/DX2 analytically  !
 ! A128  A(10,13,18)           130.8141         calculate D2E/DX2 analytically  !
 ! A129  A(16,13,17)            80.6065         calculate D2E/DX2 analytically  !
 ! A130  A(16,13,24)           129.5751         calculate D2E/DX2 analytically  !
 ! A131  A(17,13,18)           126.5156         calculate D2E/DX2 analytically  !
 ! A132  A(6,18,16)            100.4761         calculate D2E/DX2 analytically  !
 ! A133  A(6,18,19)            147.0744         calculate D2E/DX2 analytically  !
 ! A134  A(7,18,16)            103.5958         calculate D2E/DX2 analytically  !
 ! A135  A(7,18,19)            113.2323         calculate D2E/DX2 analytically  !
 ! A136  A(7,18,20)            104.6184         calculate D2E/DX2 analytically  !
 ! A137  A(13,18,19)           146.4409         calculate D2E/DX2 analytically  !
 ! A138  A(13,18,20)           100.4604         calculate D2E/DX2 analytically  !
 ! A139  A(16,18,19)           112.3738         calculate D2E/DX2 analytically  !
 ! A140  A(16,18,20)           109.2534         calculate D2E/DX2 analytically  !
 ! A141  A(19,18,20)           113.0769         calculate D2E/DX2 analytically  !
 ! A142  A(1,21,14)            101.6616         calculate D2E/DX2 analytically  !
 ! A143  A(1,21,22)            146.6255         calculate D2E/DX2 analytically  !
 ! A144  A(5,21,14)            103.6868         calculate D2E/DX2 analytically  !
 ! A145  A(5,21,22)            112.8524         calculate D2E/DX2 analytically  !
 ! A146  A(5,21,23)            104.9918         calculate D2E/DX2 analytically  !
 ! A147  A(12,21,22)           146.2801         calculate D2E/DX2 analytically  !
 ! A148  A(12,21,23)           100.4125         calculate D2E/DX2 analytically  !
 ! A149  A(14,21,22)           111.5648         calculate D2E/DX2 analytically  !
 ! A150  A(14,21,23)           109.8356         calculate D2E/DX2 analytically  !
 ! A151  A(22,21,23)           113.3            calculate D2E/DX2 analytically  !
 ! A152  A(9,24,17)            104.2128         calculate D2E/DX2 analytically  !
 ! A153  A(9,24,25)            158.0844         calculate D2E/DX2 analytically  !
 ! A154  A(9,24,26)             62.2649         calculate D2E/DX2 analytically  !
 ! A155  A(9,24,28)             87.2268         calculate D2E/DX2 analytically  !
 ! A156  A(10,24,17)           104.6247         calculate D2E/DX2 analytically  !
 ! A157  A(10,24,25)           126.525          calculate D2E/DX2 analytically  !
 ! A158  A(10,24,26)           114.4174         calculate D2E/DX2 analytically  !
 ! A159  A(10,24,28)            85.8542         calculate D2E/DX2 analytically  !
 ! A160  A(13,24,25)           141.2071         calculate D2E/DX2 analytically  !
 ! A161  A(13,24,26)           101.3625         calculate D2E/DX2 analytically  !
 ! A162  A(13,24,28)           137.1426         calculate D2E/DX2 analytically  !
 ! A163  A(17,24,25)            97.0419         calculate D2E/DX2 analytically  !
 ! A164  A(17,24,26)            98.5336         calculate D2E/DX2 analytically  !
 ! A165  A(25,24,26)           109.6749         calculate D2E/DX2 analytically  !
 ! A166  A(25,24,28)            71.1871         calculate D2E/DX2 analytically  !
 ! A167  A(26,24,28)            82.5803         calculate D2E/DX2 analytically  !
 ! A168  A(24,25,30)            82.0207         calculate D2E/DX2 analytically  !
 ! A169  A(24,26,27)            94.0299         calculate D2E/DX2 analytically  !
 ! A170  A(9,27,15)            110.7223         calculate D2E/DX2 analytically  !
 ! A171  A(9,27,26)             62.2718         calculate D2E/DX2 analytically  !
 ! A172  A(9,27,28)             93.9276         calculate D2E/DX2 analytically  !
 ! A173  A(9,27,29)            157.9407         calculate D2E/DX2 analytically  !
 ! A174  A(11,27,15)            99.9405         calculate D2E/DX2 analytically  !
 ! A175  A(11,27,26)           114.5536         calculate D2E/DX2 analytically  !
 ! A176  A(11,27,28)            84.8486         calculate D2E/DX2 analytically  !
 ! A177  A(11,27,29)           143.082          calculate D2E/DX2 analytically  !
 ! A178  A(12,27,26)           104.4914         calculate D2E/DX2 analytically  !
 ! A179  A(12,27,28)           137.6315         calculate D2E/DX2 analytically  !
 ! A180  A(12,27,29)           137.5178         calculate D2E/DX2 analytically  !
 ! A181  A(15,27,26)           111.1857         calculate D2E/DX2 analytically  !
 ! A182  A(15,27,28)           152.4579         calculate D2E/DX2 analytically  !
 ! A183  A(15,27,29)            83.9176         calculate D2E/DX2 analytically  !
 ! A184  A(26,27,28)            90.7446         calculate D2E/DX2 analytically  !
 ! A185  A(26,27,29)            97.5289         calculate D2E/DX2 analytically  !
 ! A186  A(28,27,29)            76.6056         calculate D2E/DX2 analytically  !
 ! A187  A(24,28,27)            83.4483         calculate D2E/DX2 analytically  !
 ! A188  A(24,28,30)            71.8148         calculate D2E/DX2 analytically  !
 ! A189  A(27,28,30)            77.9221         calculate D2E/DX2 analytically  !
 ! A190  A(27,29,30)            82.9433         calculate D2E/DX2 analytically  !
 ! A191  A(25,30,28)            70.1417         calculate D2E/DX2 analytically  !
 ! A192  A(25,30,29)           143.5933         calculate D2E/DX2 analytically  !
 ! A193  A(25,30,31)            92.9061         calculate D2E/DX2 analytically  !
 ! A194  A(25,30,33)           108.3975         calculate D2E/DX2 analytically  !
 ! A195  A(28,30,29)            74.0003         calculate D2E/DX2 analytically  !
 ! A196  A(28,30,31)           123.2832         calculate D2E/DX2 analytically  !
 ! A197  A(28,30,33)           150.0763         calculate D2E/DX2 analytically  !
 ! A198  A(29,30,31)           101.5823         calculate D2E/DX2 analytically  !
 ! A199  A(29,30,33)           105.7128         calculate D2E/DX2 analytically  !
 ! A200  A(31,30,33)            86.4438         calculate D2E/DX2 analytically  !
 ! A201  A(30,31,32)            93.097          calculate D2E/DX2 analytically  !
 ! A202  A(31,32,34)           134.9401         calculate D2E/DX2 analytically  !
 ! A203  A(30,33,34)            92.7159         calculate D2E/DX2 analytically  !
 ! A204  A(32,34,33)           132.5742         calculate D2E/DX2 analytically  !
 ! A205  L(6,1,21,2,-1)        184.9333         calculate D2E/DX2 analytically  !
 ! A206  L(1,6,18,8,-1)        184.1969         calculate D2E/DX2 analytically  !
 ! A207  L(1,9,24,8,-1)        170.5457         calculate D2E/DX2 analytically  !
 ! A208  L(2,9,10,4,-1)        188.183          calculate D2E/DX2 analytically  !
 ! A209  L(6,9,27,2,-1)        168.4267         calculate D2E/DX2 analytically  !
 ! A210  L(8,9,11,1,-1)        180.5564         calculate D2E/DX2 analytically  !
 ! A211  L(12,9,13,4,-1)       181.6344         calculate D2E/DX2 analytically  !
 ! A212  L(21,12,27,2,-1)      180.4567         calculate D2E/DX2 analytically  !
 ! A213  L(18,13,24,8,-1)      182.4445         calculate D2E/DX2 analytically  !
 ! A214  L(17,24,28,9,-1)      191.4396         calculate D2E/DX2 analytically  !
 ! A215  L(6,1,21,2,-2)        179.0014         calculate D2E/DX2 analytically  !
 ! A216  L(1,6,18,8,-2)        180.4193         calculate D2E/DX2 analytically  !
 ! A217  L(1,9,24,8,-2)        176.0252         calculate D2E/DX2 analytically  !
 ! A218  L(2,9,10,4,-2)        178.2522         calculate D2E/DX2 analytically  !
 ! A219  L(6,9,27,2,-2)        183.574          calculate D2E/DX2 analytically  !
 ! A220  L(8,9,11,1,-2)        189.2807         calculate D2E/DX2 analytically  !
 ! A221  L(12,9,13,4,-2)       173.5128         calculate D2E/DX2 analytically  !
 ! A222  L(21,12,27,2,-2)      176.5342         calculate D2E/DX2 analytically  !
 ! A223  L(18,13,24,8,-2)      184.1561         calculate D2E/DX2 analytically  !
 ! A224  L(17,24,28,9,-2)      184.6473         calculate D2E/DX2 analytically  !
 ! D1    D(2,1,6,7)            113.6726         calculate D2E/DX2 analytically  !
 ! D2    D(2,1,6,8)             -0.5093         calculate D2E/DX2 analytically  !
 ! D3    D(2,1,6,13)            44.409          calculate D2E/DX2 analytically  !
 ! D4    D(2,1,6,20)           -99.5456         calculate D2E/DX2 analytically  !
 ! D5    D(5,1,6,7)             -1.3056         calculate D2E/DX2 analytically  !
 ! D6    D(5,1,6,8)           -115.4876         calculate D2E/DX2 analytically  !
 ! D7    D(5,1,6,13)           -70.5692         calculate D2E/DX2 analytically  !
 ! D8    D(5,1,6,20)           145.4762         calculate D2E/DX2 analytically  !
 ! D9    D(12,1,6,7)            69.3463         calculate D2E/DX2 analytically  !
 ! D10   D(12,1,6,8)           -44.8356         calculate D2E/DX2 analytically  !
 ! D11   D(12,1,6,13)            0.0827         calculate D2E/DX2 analytically  !
 ! D12   D(12,1,6,20)         -143.8719         calculate D2E/DX2 analytically  !
 ! D13   D(23,1,6,7)          -147.4236         calculate D2E/DX2 analytically  !
 ! D14   D(23,1,6,8)            98.3945         calculate D2E/DX2 analytically  !
 ! D15   D(23,1,6,13)          143.3128         calculate D2E/DX2 analytically  !
 ! D16   D(23,1,6,20)           -0.6418         calculate D2E/DX2 analytically  !
 ! D17   D(3,1,9,8)             18.5298         calculate D2E/DX2 analytically  !
 ! D18   D(3,1,9,10)           -85.0213         calculate D2E/DX2 analytically  !
 ! D19   D(3,1,9,11)          -170.751          calculate D2E/DX2 analytically  !
 ! D20   D(3,1,9,13)           -22.1011         calculate D2E/DX2 analytically  !
 ! D21   D(3,1,9,27)           143.0996         calculate D2E/DX2 analytically  !
 ! D22   D(5,1,9,8)           -179.3475         calculate D2E/DX2 analytically  !
 ! D23   D(5,1,9,10)            77.1014         calculate D2E/DX2 analytically  !
 ! D24   D(5,1,9,11)            -8.6283         calculate D2E/DX2 analytically  !
 ! D25   D(5,1,9,13)           140.0216         calculate D2E/DX2 analytically  !
 ! D26   D(5,1,9,27)           -54.7777         calculate D2E/DX2 analytically  !
 ! D27   D(21,1,9,8)          -139.672          calculate D2E/DX2 analytically  !
 ! D28   D(21,1,9,10)          116.7769         calculate D2E/DX2 analytically  !
 ! D29   D(21,1,9,11)           31.0473         calculate D2E/DX2 analytically  !
 ! D30   D(21,1,9,13)          179.6971         calculate D2E/DX2 analytically  !
 ! D31   D(21,1,9,27)          -15.1021         calculate D2E/DX2 analytically  !
 ! D32   D(23,1,9,8)           -82.6883         calculate D2E/DX2 analytically  !
 ! D33   D(23,1,9,10)          173.7606         calculate D2E/DX2 analytically  !
 ! D34   D(23,1,9,11)           88.0309         calculate D2E/DX2 analytically  !
 ! D35   D(23,1,9,13)         -123.3192         calculate D2E/DX2 analytically  !
 ! D36   D(23,1,9,27)           41.8815         calculate D2E/DX2 analytically  !
 ! D37   D(3,1,12,11)         -116.0128         calculate D2E/DX2 analytically  !
 ! D38   D(3,1,12,14)           83.3458         calculate D2E/DX2 analytically  !
 ! D39   D(3,1,12,15)           -5.9319         calculate D2E/DX2 analytically  !
 ! D40   D(3,1,12,27)          -66.669          calculate D2E/DX2 analytically  !
 ! D41   D(4,1,12,11)            4.3931         calculate D2E/DX2 analytically  !
 ! D42   D(4,1,12,14)         -156.2483         calculate D2E/DX2 analytically  !
 ! D43   D(4,1,12,15)          114.474          calculate D2E/DX2 analytically  !
 ! D44   D(4,1,12,27)           53.737          calculate D2E/DX2 analytically  !
 ! D45   D(6,1,12,11)          -43.6758         calculate D2E/DX2 analytically  !
 ! D46   D(6,1,12,14)          155.6828         calculate D2E/DX2 analytically  !
 ! D47   D(6,1,12,15)           66.4051         calculate D2E/DX2 analytically  !
 ! D48   D(6,1,12,27)            5.6681         calculate D2E/DX2 analytically  !
 ! D49   D(23,1,12,11)         162.2789         calculate D2E/DX2 analytically  !
 ! D50   D(23,1,12,14)           1.6375         calculate D2E/DX2 analytically  !
 ! D51   D(23,1,12,15)         -87.6402         calculate D2E/DX2 analytically  !
 ! D52   D(23,1,12,27)        -148.3772         calculate D2E/DX2 analytically  !
 ! D53   D(2,1,21,14)          -11.8948         calculate D2E/DX2 analytically  !
 ! D54   D(2,1,21,22)          173.5193         calculate D2E/DX2 analytically  !
 ! D55   D(3,1,21,14)         -116.3955         calculate D2E/DX2 analytically  !
 ! D56   D(3,1,21,22)           69.0186         calculate D2E/DX2 analytically  !
 ! D57   D(4,1,21,14)          103.6898         calculate D2E/DX2 analytically  !
 ! D58   D(4,1,21,22)          -70.8962         calculate D2E/DX2 analytically  !
 ! D59   D(9,1,21,14)           37.8377         calculate D2E/DX2 analytically  !
 ! D60   D(9,1,21,22)         -136.7482         calculate D2E/DX2 analytically  !
 ! D61   D(1,2,9,12)           -80.0502         calculate D2E/DX2 analytically  !
 ! D62   D(1,4,6,9)             77.9746         calculate D2E/DX2 analytically  !
 ! D63   D(1,5,12,21)           83.0957         calculate D2E/DX2 analytically  !
 ! D64   D(3,6,9,2)            -17.8507         calculate D2E/DX2 analytically  !
 ! D65   D(3,6,9,10)           169.6354         calculate D2E/DX2 analytically  !
 ! D66   D(3,6,9,11)            81.4739         calculate D2E/DX2 analytically  !
 ! D67   D(3,6,9,12)            22.1022         calculate D2E/DX2 analytically  !
 ! D68   D(3,6,9,24)          -144.2251         calculate D2E/DX2 analytically  !
 ! D69   D(7,6,9,2)            179.7735         calculate D2E/DX2 analytically  !
 ! D70   D(7,6,9,10)             7.2596         calculate D2E/DX2 analytically  !
 ! D71   D(7,6,9,11)           -80.9019         calculate D2E/DX2 analytically  !
 ! D72   D(7,6,9,12)          -140.2736         calculate D2E/DX2 analytically  !
 ! D73   D(7,6,9,24)            53.399          calculate D2E/DX2 analytically  !
 ! D74   D(18,6,9,2)           140.2751         calculate D2E/DX2 analytically  !
 ! D75   D(18,6,9,10)          -32.2388         calculate D2E/DX2 analytically  !
 ! D76   D(18,6,9,11)         -120.4003         calculate D2E/DX2 analytically  !
 ! D77   D(18,6,9,12)         -179.772          calculate D2E/DX2 analytically  !
 ! D78   D(18,6,9,24)           13.9006         calculate D2E/DX2 analytically  !
 ! D79   D(20,6,9,2)            84.5412         calculate D2E/DX2 analytically  !
 ! D80   D(20,6,9,10)          -87.9727         calculate D2E/DX2 analytically  !
 ! D81   D(20,6,9,11)         -176.1343         calculate D2E/DX2 analytically  !
 ! D82   D(20,6,9,12)          124.494          calculate D2E/DX2 analytically  !
 ! D83   D(20,6,9,24)          -41.8333         calculate D2E/DX2 analytically  !
 ! D84   D(1,6,13,10)           44.3458         calculate D2E/DX2 analytically  !
 ! D85   D(1,6,13,16)         -154.8336         calculate D2E/DX2 analytically  !
 ! D86   D(1,6,13,17)          -68.3006         calculate D2E/DX2 analytically  !
 ! D87   D(1,6,13,24)           -4.5881         calculate D2E/DX2 analytically  !
 ! D88   D(3,6,13,10)          112.7002         calculate D2E/DX2 analytically  !
 ! D89   D(3,6,13,16)          -86.4792         calculate D2E/DX2 analytically  !
 ! D90   D(3,6,13,17)            0.0538         calculate D2E/DX2 analytically  !
 ! D91   D(3,6,13,24)           63.7663         calculate D2E/DX2 analytically  !
 ! D92   D(4,6,13,10)           -3.5537         calculate D2E/DX2 analytically  !
 ! D93   D(4,6,13,16)          157.2669         calculate D2E/DX2 analytically  !
 ! D94   D(4,6,13,17)         -116.2001         calculate D2E/DX2 analytically  !
 ! D95   D(4,6,13,24)          -52.4876         calculate D2E/DX2 analytically  !
 ! D96   D(20,6,13,10)        -161.124          calculate D2E/DX2 analytically  !
 ! D97   D(20,6,13,16)          -0.3034         calculate D2E/DX2 analytically  !
 ! D98   D(20,6,13,17)          86.2296         calculate D2E/DX2 analytically  !
 ! D99   D(20,6,13,24)         149.9421         calculate D2E/DX2 analytically  !
 ! D100  D(3,6,18,16)          114.8379         calculate D2E/DX2 analytically  !
 ! D101  D(3,6,18,19)          -69.038          calculate D2E/DX2 analytically  !
 ! D102  D(4,6,18,16)         -104.225          calculate D2E/DX2 analytically  !
 ! D103  D(4,6,18,19)           71.8991         calculate D2E/DX2 analytically  !
 ! D104  D(8,6,18,16)           11.2099         calculate D2E/DX2 analytically  !
 ! D105  D(8,6,18,19)         -172.666          calculate D2E/DX2 analytically  !
 ! D106  D(9,6,18,16)          -38.9101         calculate D2E/DX2 analytically  !
 ! D107  D(9,6,18,19)          137.214          calculate D2E/DX2 analytically  !
 ! D108  D(6,7,13,18)          -82.4035         calculate D2E/DX2 analytically  !
 ! D109  D(6,8,9,13)            80.4655         calculate D2E/DX2 analytically  !
 ! D110  D(4,9,12,5)             2.6676         calculate D2E/DX2 analytically  !
 ! D111  D(4,9,12,14)          -92.2631         calculate D2E/DX2 analytically  !
 ! D112  D(4,9,12,15)          166.7007         calculate D2E/DX2 analytically  !
 ! D113  D(4,9,12,21)          -37.1499         calculate D2E/DX2 analytically  !
 ! D114  D(6,9,12,5)            49.8338         calculate D2E/DX2 analytically  !
 ! D115  D(6,9,12,14)          -45.0969         calculate D2E/DX2 analytically  !
 ! D116  D(6,9,12,15)         -146.1332         calculate D2E/DX2 analytically  !
 ! D117  D(6,9,12,21)           10.0163         calculate D2E/DX2 analytically  !
 ! D118  D(8,9,12,5)           108.5861         calculate D2E/DX2 analytically  !
 ! D119  D(8,9,12,14)           13.6554         calculate D2E/DX2 analytically  !
 ! D120  D(8,9,12,15)          -87.3808         calculate D2E/DX2 analytically  !
 ! D121  D(8,9,12,21)           68.7686         calculate D2E/DX2 analytically  !
 ! D122  D(10,9,12,5)          -81.0707         calculate D2E/DX2 analytically  !
 ! D123  D(10,9,12,14)        -176.0014         calculate D2E/DX2 analytically  !
 ! D124  D(10,9,12,15)          82.9624         calculate D2E/DX2 analytically  !
 ! D125  D(10,9,12,21)        -120.8882         calculate D2E/DX2 analytically  !
 ! D126  D(24,9,12,5)         -145.1002         calculate D2E/DX2 analytically  !
 ! D127  D(24,9,12,14)         119.9692         calculate D2E/DX2 analytically  !
 ! D128  D(24,9,12,15)          18.9329         calculate D2E/DX2 analytically  !
 ! D129  D(24,9,12,21)         175.0823         calculate D2E/DX2 analytically  !
 ! D130  D(1,9,13,7)           -49.7952         calculate D2E/DX2 analytically  !
 ! D131  D(1,9,13,16)           45.1082         calculate D2E/DX2 analytically  !
 ! D132  D(1,9,13,17)          139.2877         calculate D2E/DX2 analytically  !
 ! D133  D(1,9,13,18)           -9.9908         calculate D2E/DX2 analytically  !
 ! D134  D(2,9,13,7)          -109.3791         calculate D2E/DX2 analytically  !
 ! D135  D(2,9,13,16)          -14.4756         calculate D2E/DX2 analytically  !
 ! D136  D(2,9,13,17)           79.7038         calculate D2E/DX2 analytically  !
 ! D137  D(2,9,13,18)          -69.5747         calculate D2E/DX2 analytically  !
 ! D138  D(4,9,13,7)            -2.5726         calculate D2E/DX2 analytically  !
 ! D139  D(4,9,13,16)           92.3309         calculate D2E/DX2 analytically  !
 ! D140  D(4,9,13,17)         -173.4896         calculate D2E/DX2 analytically  !
 ! D141  D(4,9,13,18)           37.2319         calculate D2E/DX2 analytically  !
 ! D142  D(11,9,13,7)           80.9323         calculate D2E/DX2 analytically  !
 ! D143  D(11,9,13,16)         175.8358         calculate D2E/DX2 analytically  !
 ! D144  D(11,9,13,17)         -89.9848         calculate D2E/DX2 analytically  !
 ! D145  D(11,9,13,18)         120.7367         calculate D2E/DX2 analytically  !
 ! D146  D(27,9,13,7)          146.8067         calculate D2E/DX2 analytically  !
 ! D147  D(27,9,13,16)        -118.2899         calculate D2E/DX2 analytically  !
 ! D148  D(27,9,13,17)         -24.1104         calculate D2E/DX2 analytically  !
 ! D149  D(27,9,13,18)        -173.3889         calculate D2E/DX2 analytically  !
 ! D150  D(2,9,24,17)          -81.4589         calculate D2E/DX2 analytically  !
 ! D151  D(2,9,24,25)           84.0955         calculate D2E/DX2 analytically  !
 ! D152  D(2,9,24,26)           10.8206         calculate D2E/DX2 analytically  !
 ! D153  D(2,9,24,28)           93.8938         calculate D2E/DX2 analytically  !
 ! D154  D(4,9,24,17)           87.7711         calculate D2E/DX2 analytically  !
 ! D155  D(4,9,24,25)         -106.6746         calculate D2E/DX2 analytically  !
 ! D156  D(4,9,24,26)         -179.9495         calculate D2E/DX2 analytically  !
 ! D157  D(4,9,24,28)          -96.8762         calculate D2E/DX2 analytically  !
 ! D158  D(6,9,24,17)           25.3493         calculate D2E/DX2 analytically  !
 ! D159  D(6,9,24,25)         -169.0963         calculate D2E/DX2 analytically  !
 ! D160  D(6,9,24,26)          117.6288         calculate D2E/DX2 analytically  !
 ! D161  D(6,9,24,28)         -159.298          calculate D2E/DX2 analytically  !
 ! D162  D(8,9,24,17)          -13.3391         calculate D2E/DX2 analytically  !
 ! D163  D(8,9,24,25)          152.2152         calculate D2E/DX2 analytically  !
 ! D164  D(8,9,24,26)           78.9404         calculate D2E/DX2 analytically  !
 ! D165  D(8,9,24,28)          162.0136         calculate D2E/DX2 analytically  !
 ! D166  D(11,9,24,17)         175.9159         calculate D2E/DX2 analytically  !
 ! D167  D(11,9,24,25)         -18.5298         calculate D2E/DX2 analytically  !
 ! D168  D(11,9,24,26)         -91.8047         calculate D2E/DX2 analytically  !
 ! D169  D(11,9,24,28)          -8.7314         calculate D2E/DX2 analytically  !
 ! D170  D(12,9,24,17)        -139.8298         calculate D2E/DX2 analytically  !
 ! D171  D(12,9,24,25)          25.7246         calculate D2E/DX2 analytically  !
 ! D172  D(12,9,24,26)         -47.5503         calculate D2E/DX2 analytically  !
 ! D173  D(12,9,24,28)          35.5229         calculate D2E/DX2 analytically  !
 ! D174  D(27,9,24,17)        -142.3395         calculate D2E/DX2 analytically  !
 ! D175  D(27,9,24,25)          23.2148         calculate D2E/DX2 analytically  !
 ! D176  D(27,9,24,26)         -50.0601         calculate D2E/DX2 analytically  !
 ! D177  D(27,9,24,28)          33.0132         calculate D2E/DX2 analytically  !
 ! D178  D(1,9,27,15)          -15.4027         calculate D2E/DX2 analytically  !
 ! D179  D(1,9,27,26)         -119.1511         calculate D2E/DX2 analytically  !
 ! D180  D(1,9,27,28)          152.0735         calculate D2E/DX2 analytically  !
 ! D181  D(1,9,27,29)         -144.5954         calculate D2E/DX2 analytically  !
 ! D182  D(2,9,27,15)           22.0687         calculate D2E/DX2 analytically  !
 ! D183  D(2,9,27,26)          -81.6797         calculate D2E/DX2 analytically  !
 ! D184  D(2,9,27,28)         -170.4551         calculate D2E/DX2 analytically  !
 ! D185  D(2,9,27,29)         -107.124          calculate D2E/DX2 analytically  !
 ! D186  D(4,9,27,15)          -75.9592         calculate D2E/DX2 analytically  !
 ! D187  D(4,9,27,26)         -179.7076         calculate D2E/DX2 analytically  !
 ! D188  D(4,9,27,28)           91.517          calculate D2E/DX2 analytically  !
 ! D189  D(4,9,27,29)          154.848          calculate D2E/DX2 analytically  !
 ! D190  D(8,9,27,15)           88.1236         calculate D2E/DX2 analytically  !
 ! D191  D(8,9,27,26)          -15.6249         calculate D2E/DX2 analytically  !
 ! D192  D(8,9,27,28)         -104.4002         calculate D2E/DX2 analytically  !
 ! D193  D(8,9,27,29)          -41.0692         calculate D2E/DX2 analytically  !
 ! D194  D(10,9,27,15)        -165.1762         calculate D2E/DX2 analytically  !
 ! D195  D(10,9,27,26)          91.0754         calculate D2E/DX2 analytically  !
 ! D196  D(10,9,27,28)           2.3            calculate D2E/DX2 analytically  !
 ! D197  D(10,9,27,29)          65.631          calculate D2E/DX2 analytically  !
 ! D198  D(13,9,27,15)         148.565          calculate D2E/DX2 analytically  !
 ! D199  D(13,9,27,26)          44.8166         calculate D2E/DX2 analytically  !
 ! D200  D(13,9,27,28)         -43.9588         calculate D2E/DX2 analytically  !
 ! D201  D(13,9,27,29)          19.3722         calculate D2E/DX2 analytically  !
 ! D202  D(24,9,27,15)         153.778          calculate D2E/DX2 analytically  !
 ! D203  D(24,9,27,26)          50.0296         calculate D2E/DX2 analytically  !
 ! D204  D(24,9,27,28)         -38.7458         calculate D2E/DX2 analytically  !
 ! D205  D(24,9,27,29)          24.5853         calculate D2E/DX2 analytically  !
 ! D206  D(9,10,13,24)          81.8778         calculate D2E/DX2 analytically  !
 ! D207  D(9,11,12,27)         -80.4378         calculate D2E/DX2 analytically  !
 ! D208  D(2,12,21,22)        -172.3813         calculate D2E/DX2 analytically  !
 ! D209  D(2,12,21,23)           8.8124         calculate D2E/DX2 analytically  !
 ! D210  D(9,12,21,22)         137.6381         calculate D2E/DX2 analytically  !
 ! D211  D(9,12,21,23)         -41.1683         calculate D2E/DX2 analytically  !
 ! D212  D(11,12,21,22)         71.5091         calculate D2E/DX2 analytically  !
 ! D213  D(11,12,21,23)       -107.2973         calculate D2E/DX2 analytically  !
 ! D214  D(15,12,21,22)        -71.2014         calculate D2E/DX2 analytically  !
 ! D215  D(15,12,21,23)        109.9922         calculate D2E/DX2 analytically  !
 ! D216  D(1,12,27,26)          37.686          calculate D2E/DX2 analytically  !
 ! D217  D(1,12,27,28)         -69.9686         calculate D2E/DX2 analytically  !
 ! D218  D(1,12,27,29)         156.5425         calculate D2E/DX2 analytically  !
 ! D219  D(2,12,27,26)          -4.3405         calculate D2E/DX2 analytically  !
 ! D220  D(2,12,27,28)        -111.9951         calculate D2E/DX2 analytically  !
 ! D221  D(2,12,27,29)         114.5159         calculate D2E/DX2 analytically  !
 ! D222  D(5,12,27,26)         106.9156         calculate D2E/DX2 analytically  !
 ! D223  D(5,12,27,28)          -0.739          calculate D2E/DX2 analytically  !
 ! D224  D(5,12,27,29)        -134.228          calculate D2E/DX2 analytically  !
 ! D225  D(14,12,27,26)       -102.7204         calculate D2E/DX2 analytically  !
 ! D226  D(14,12,27,28)        149.625          calculate D2E/DX2 analytically  !
 ! D227  D(14,12,27,29)         16.1361         calculate D2E/DX2 analytically  !
 ! D228  D(8,13,18,19)         171.6856         calculate D2E/DX2 analytically  !
 ! D229  D(8,13,18,20)         -10.3711         calculate D2E/DX2 analytically  !
 ! D230  D(9,13,18,19)        -138.0787         calculate D2E/DX2 analytically  !
 ! D231  D(9,13,18,20)          39.8646         calculate D2E/DX2 analytically  !
 ! D232  D(10,13,18,19)        -69.9849         calculate D2E/DX2 analytically  !
 ! D233  D(10,13,18,20)        107.9584         calculate D2E/DX2 analytically  !
 ! D234  D(17,13,18,19)         80.1701         calculate D2E/DX2 analytically  !
 ! D235  D(17,13,18,20)       -101.8866         calculate D2E/DX2 analytically  !
 ! D236  D(6,13,24,25)         177.0405         calculate D2E/DX2 analytically  !
 ! D237  D(6,13,24,26)         -40.0067         calculate D2E/DX2 analytically  !
 ! D238  D(6,13,24,28)          51.3069         calculate D2E/DX2 analytically  !
 ! D239  D(7,13,24,25)         105.2691         calculate D2E/DX2 analytically  !
 ! D240  D(7,13,24,26)        -111.7781         calculate D2E/DX2 analytically  !
 ! D241  D(7,13,24,28)         -20.4645         calculate D2E/DX2 analytically  !
 ! D242  D(8,13,24,25)        -140.1395         calculate D2E/DX2 analytically  !
 ! D243  D(8,13,24,26)           2.8133         calculate D2E/DX2 analytically  !
 ! D244  D(8,13,24,28)          94.1268         calculate D2E/DX2 analytically  !
 ! D245  D(16,13,24,25)        -42.4127         calculate D2E/DX2 analytically  !
 ! D246  D(16,13,24,26)        100.5401         calculate D2E/DX2 analytically  !
 ! D247  D(16,13,24,28)       -168.1464         calculate D2E/DX2 analytically  !
 ! D248  D(9,24,25,30)         -46.0642         calculate D2E/DX2 analytically  !
 ! D249  D(10,24,25,30)       -126.0833         calculate D2E/DX2 analytically  !
 ! D250  D(13,24,25,30)        159.2729         calculate D2E/DX2 analytically  !
 ! D251  D(17,24,25,30)        119.8329         calculate D2E/DX2 analytically  !
 ! D252  D(26,24,25,30)         18.1231         calculate D2E/DX2 analytically  !
 ! D253  D(28,24,25,30)        -56.4092         calculate D2E/DX2 analytically  !
 ! D254  D(9,24,26,27)          68.6335         calculate D2E/DX2 analytically  !
 ! D255  D(10,24,26,27)         59.8679         calculate D2E/DX2 analytically  !
 ! D256  D(13,24,26,27)        114.5749         calculate D2E/DX2 analytically  !
 ! D257  D(17,24,26,27)        170.2643         calculate D2E/DX2 analytically  !
 ! D258  D(25,24,26,27)        -89.0568         calculate D2E/DX2 analytically  !
 ! D259  D(28,24,26,27)        -22.1313         calculate D2E/DX2 analytically  !
 ! D260  D(9,24,28,27)         -40.6261         calculate D2E/DX2 analytically  !
 ! D261  D(9,24,28,30)        -120.0255         calculate D2E/DX2 analytically  !
 ! D262  D(10,24,28,27)        -93.5459         calculate D2E/DX2 analytically  !
 ! D263  D(10,24,28,30)       -172.9453         calculate D2E/DX2 analytically  !
 ! D264  D(13,24,28,27)        -76.9714         calculate D2E/DX2 analytically  !
 ! D265  D(13,24,28,30)       -156.3708         calculate D2E/DX2 analytically  !
 ! D266  D(25,24,28,27)        135.5263         calculate D2E/DX2 analytically  !
 ! D267  D(25,24,28,30)         56.1268         calculate D2E/DX2 analytically  !
 ! D268  D(26,24,28,27)         21.7571         calculate D2E/DX2 analytically  !
 ! D269  D(26,24,28,30)        -57.6423         calculate D2E/DX2 analytically  !
 ! D270  D(24,25,30,28)         61.2686         calculate D2E/DX2 analytically  !
 ! D271  D(24,25,30,29)         71.6813         calculate D2E/DX2 analytically  !
 ! D272  D(24,25,30,31)       -174.2673         calculate D2E/DX2 analytically  !
 ! D273  D(24,25,30,33)        -87.0511         calculate D2E/DX2 analytically  !
 ! D274  D(24,26,27,9)         -68.6628         calculate D2E/DX2 analytically  !
 ! D275  D(24,26,27,11)        -59.293          calculate D2E/DX2 analytically  !
 ! D276  D(24,26,27,12)       -114.66           calculate D2E/DX2 analytically  !
 ! D277  D(24,26,27,15)       -171.6649         calculate D2E/DX2 analytically  !
 ! D278  D(24,26,27,28)         25.3831         calculate D2E/DX2 analytically  !
 ! D279  D(24,26,27,29)        101.9701         calculate D2E/DX2 analytically  !
 ! D280  D(9,27,28,24)          40.6971         calculate D2E/DX2 analytically  !
 ! D281  D(9,27,28,30)         113.439          calculate D2E/DX2 analytically  !
 ! D282  D(11,27,28,24)         93.0292         calculate D2E/DX2 analytically  !
 ! D283  D(11,27,28,30)        165.7711         calculate D2E/DX2 analytically  !
 ! D284  D(12,27,28,24)         91.1224         calculate D2E/DX2 analytically  !
 ! D285  D(12,27,28,30)        163.8643         calculate D2E/DX2 analytically  !
 ! D286  D(15,27,28,24)       -165.3186         calculate D2E/DX2 analytically  !
 ! D287  D(15,27,28,30)        -92.5766         calculate D2E/DX2 analytically  !
 ! D288  D(26,27,28,24)        -21.559          calculate D2E/DX2 analytically  !
 ! D289  D(26,27,28,30)         51.1829         calculate D2E/DX2 analytically  !
 ! D290  D(29,27,28,24)       -119.1214         calculate D2E/DX2 analytically  !
 ! D291  D(29,27,28,30)        -46.3795         calculate D2E/DX2 analytically  !
 ! D292  D(9,27,29,30)         -13.0766         calculate D2E/DX2 analytically  !
 ! D293  D(11,27,29,30)        115.2612         calculate D2E/DX2 analytically  !
 ! D294  D(12,27,29,30)       -156.8362         calculate D2E/DX2 analytically  !
 ! D295  D(15,27,29,30)       -146.2749         calculate D2E/DX2 analytically  !
 ! D296  D(26,27,29,30)        -35.6337         calculate D2E/DX2 analytically  !
 ! D297  D(28,27,29,30)         53.3351         calculate D2E/DX2 analytically  !
 ! D298  D(24,28,30,25)        -49.537          calculate D2E/DX2 analytically  !
 ! D299  D(24,28,30,29)        136.8701         calculate D2E/DX2 analytically  !
 ! D300  D(24,28,30,31)       -129.5972         calculate D2E/DX2 analytically  !
 ! D301  D(24,28,30,33)         43.0524         calculate D2E/DX2 analytically  !
 ! D302  D(27,28,30,25)       -136.5262         calculate D2E/DX2 analytically  !
 ! D303  D(27,28,30,29)         49.881          calculate D2E/DX2 analytically  !
 ! D304  D(27,28,30,31)        143.4136         calculate D2E/DX2 analytically  !
 ! D305  D(27,28,30,33)        -43.9367         calculate D2E/DX2 analytically  !
 ! D306  D(27,29,30,25)        -57.9176         calculate D2E/DX2 analytically  !
 ! D307  D(27,29,30,28)        -47.7319         calculate D2E/DX2 analytically  !
 ! D308  D(27,29,30,31)       -169.3323         calculate D2E/DX2 analytically  !
 ! D309  D(27,29,30,33)        101.1328         calculate D2E/DX2 analytically  !
 ! D310  D(25,30,31,32)        111.0567         calculate D2E/DX2 analytically  !
 ! D311  D(28,30,31,32)        179.1221         calculate D2E/DX2 analytically  !
 ! D312  D(29,30,31,32)       -102.5336         calculate D2E/DX2 analytically  !
 ! D313  D(33,30,31,32)          2.7883         calculate D2E/DX2 analytically  !
 ! D314  D(25,30,33,34)        -93.6837         calculate D2E/DX2 analytically  !
 ! D315  D(28,30,33,34)       -175.649          calculate D2E/DX2 analytically  !
 ! D316  D(29,30,33,34)         99.2392         calculate D2E/DX2 analytically  !
 ! D317  D(31,30,33,34)         -1.8005         calculate D2E/DX2 analytically  !
 ! D318  D(30,31,32,34)         -5.9313         calculate D2E/DX2 analytically  !
 ! D319  D(31,32,34,33)          5.5569         calculate D2E/DX2 analytically  !
 ! D320  D(30,33,34,32)         -1.1342         calculate D2E/DX2 analytically  !
 --------------------------------------------------------------------------------
 Trust Radius=3.00D-01 FncErr=1.00D-07 GrdErr=1.00D-06 EigMax=2.50D+02 EigMin=1.00D-04
 Number of steps in this run=    204 maximum allowed number of steps=    204.
 Search for a saddle point of order  1.
 GradGradGradGradGradGradGradGradGradGradGradGradGradGradGradGradGradGrad

                          Input orientation:                          
 ---------------------------------------------------------------------
 Center     Atomic      Atomic             Coordinates (Angstroms)
 Number     Number       Type             X           Y           Z
 ---------------------------------------------------------------------
      1         42           0        0.415369    2.134485   12.207561
      2         16           0        1.373064    4.166729   11.564991
      3         16           0       -1.556279    2.877672   13.244062
      4         16           0       -0.513048    1.040460   10.292785
      5         16           0        2.174116    0.372030   11.751862
      6         42           0       -2.090014    2.716432   10.953229
      7         16           0       -3.278098    1.662671    8.977992
      8         16           0       -1.350422    4.799665   10.225723
      9         42           0        0.371488    3.134705    9.481857
     10         16           0       -0.567199    2.447018    7.283341
     11         16           0        2.357445    1.767268    8.817361
     12         42           0        2.979244    2.625191   10.958533
     13         42           0       -2.225395    3.851969    8.302175
     14         16           0        4.459739    2.839501   12.952124
     15         16           0        4.601257    4.218381   10.109362
     16         16           0       -4.471801    4.975853    8.456605
     17         16           0       -1.730226    5.899888    7.079825
     18         42           0       -4.866545    3.150354    9.692403
     19         16           0       -6.847282    2.433133    9.462053
     20         16           0       -4.330568    3.569538   11.814535
     21         42           0        2.998005    1.296325   13.682753
     22         16           0        3.933638   -0.127856   14.943075
     23         16           0        1.255330    2.297412   14.629857
     24         42           0        0.133558    4.647360    6.836692
     25         16           0        0.771177    5.484700    4.812988
     26         16           0        1.424881    5.613887    8.531308
     27         42           0        3.102467    3.986574    8.408176
     28         16           0        2.534363    3.528352    6.134032
     29         16           0        4.721690    5.292833    7.148817
     30         42           0        2.810100    6.133750    6.115939
     31         16           0        3.671276    7.241002    4.430515
     32          1           0        3.465719    8.703850    5.170386
     33         16           0        2.433183    8.169781    7.076727
     34          1           0        3.110976    8.955293    5.858190
 ---------------------------------------------------------------------
                    Distance matrix (angstroms):
                    1          2          3          4          5
     1  Mo   0.000000
     2  S    2.336684   0.000000
     3  S    2.348203   3.614139   0.000000
     4  S    2.392742   3.866456   3.629561   0.000000
     5  S    2.531225   3.882827   4.735055   3.129945   0.000000
     6  Mo   2.861635   3.804014   2.357708   2.394137   4.931211
     7  S    4.928937   5.881852   4.758176   3.124313   6.251939
     8  S    3.761500   3.100262   3.584244   3.851924   5.861350
     9  Mo   2.903761   2.531339   4.235155   2.413684   4.004343
    10  S    5.031010   5.005452   6.057552   3.322362   5.638090
    11  S    3.924279   3.778345   6.012147   3.308301   3.254473
    12  Mo   2.893841   2.307368   5.085111   3.892390   2.520781
    13  Mo   5.017512   4.867643   5.081261   3.846978   6.585288
    14  S    4.172332   3.635001   6.023218   5.919227   3.571150
    15  S    5.125107   3.541575   7.038401   6.024030   4.835622
    16  S    6.784355   6.669272   5.985180   5.876274   8.730528
    17  S    6.713830   5.722846   6.867450   5.951359   8.223687
    18  Mo   5.937729   6.593355   4.862767   4.874941   7.844193
    19  S    7.770013   8.660357   6.518889   6.538515   9.532942
    20  S    4.973707   5.740238   3.196702   4.825497   7.248372
    21  Mo   3.090099   3.919766   4.840931   4.887212   2.293786
    22  S    4.997944   6.034190   6.485294   6.539356   3.678266
    23  S    2.568968   3.591881   3.187832   4.849462   3.582474
    24  Mo   5.936345   4.911638   6.858698   5.037103   6.826509
    25  S    8.125900   6.905712   9.126700   7.171379   8.732446
    26  S    5.161413   3.361575   6.211621   5.270162   6.197611
    27  Mo   5.008598   3.603994   6.805834   5.030237   5.010689
    28  S    6.581850   5.590300   8.228564   5.724644   6.453848
    29  S    7.355981   5.655440   9.077329   7.441081   7.203642
    30  Mo   7.670509   5.968786   8.970922   7.377734   8.084895
    31  S    9.856972   8.101462  11.137531   9.503762  10.150191
    32  H   10.098664   8.115149  11.151191  10.039776  10.695947
    33  S    8.174462   6.106782   9.053079   8.357663   9.095544
    34  H    9.700734   7.649723  10.642925   9.769532  10.453970
                    6          7          8          9         10
     6  Mo   0.000000
     7  S    2.534466   0.000000
     8  S    2.327256   3.887608   0.000000
     9  Mo   2.898082   3.967397   2.508067   0.000000
    10  S    3.982415   3.291810   3.847856   2.487472   0.000000
    11  S    5.024215   5.638802   4.992714   2.501093   3.371768
    12  Mo   5.070082   6.633500   4.900138   3.039830   5.110385
    13  Mo   2.887189   2.521495   2.315975   2.941074   2.400317
    14  S    6.849087   8.777971   6.710699   5.370633   7.586781
    15  S    6.909491   8.360376   5.981130   4.411243   6.151184
    16  S    4.124442   3.560049   3.592190   5.281895   4.797653
    17  S    5.026639   4.894175   3.354313   4.222937   3.649159
    18  Mo   3.080113   2.290578   3.920176   5.242286   4.978216
    19  S    4.993542   3.683341   6.033170   7.252809   6.647287
    20  S    2.547493   3.576285   3.594274   5.266858   5.996225
    21  Mo   5.946002   7.852290   6.567592   5.284483   7.415339
    22  S    7.764871   9.528764   8.628741   7.290961   9.249813
    23  S    4.988436   7.273132   5.696280   5.290004   7.570686
    24  Mo   5.061485   5.013275   3.702827   3.056409   2.352033
    25  S    7.317942   6.953545   5.853901   5.242191   4.137802
    26  S    5.159015   6.158705   3.352060   2.856488   3.943965
    27  Mo   5.920508   6.814457   4.877788   3.055604   4.135449
    28  S    6.728205   6.734506   5.783574   4.005112   3.479925
    29  S    8.216490   8.973325   6.825035   5.387472   6.007421
    30  Mo   7.686908   8.077626   5.998337   5.125476   5.134293
    31  S    9.808669  10.004555   8.047485   7.298379   7.006109
    32  H   10.007828  10.466859   7.999644   7.692751   7.738020
    33  S    8.076236   8.864312   5.965696   5.948716   6.464905
    34  H    9.588175  10.185076   7.499911   7.383428   7.610366
                   11         12         13         14         15
    11  S    0.000000
    12  Mo   2.388992   0.000000
    13  Mo   5.061010   5.970719   0.000000
    14  S    4.760839   2.492428   8.205982   0.000000
    15  S    3.565377   2.426988   7.071305   3.162694   0.000000
    16  S    7.554056   8.203861   2.516606  10.224779   9.253418
    17  S    6.066847   6.924386   2.435837   9.064520   7.217564
    18  Mo   7.407068   7.964627   3.066051   9.884431   9.536971
    19  S    9.251270   9.941678   4.971947  11.840374  11.604963
    20  S    7.547234   7.420100   4.104655   8.893625   9.116255
    21  Mo   4.929923   3.031107   7.922490   2.247638   4.886507
    22  S    6.603049   4.936265   9.893141   3.611907   6.534545
    23  S    5.939766   4.069145   7.387263   3.657442   5.943082
    24  Mo   4.142904   5.401543   2.888762   7.706017   5.554703
    25  S    5.689512   7.128820   4.880541   9.319233   6.657676
    26  S    3.968372   4.152080   4.059726   6.037482   3.811438
    27  Mo   2.376512   2.893591   5.330616   4.879081   2.279066
    28  S    3.214494   4.928431   5.240312   7.118144   4.533370
    29  S    4.561064   4.966525   7.188067   6.306015   3.151790
    30  Mo   5.154488   5.982417   5.944944   7.765746   4.777479
    31  S    7.136689   8.024939   7.825984   9.623549   6.500031
    32  H    7.914851   8.407699   8.107875   9.794596   6.767744
    33  S    6.635338   6.790367   6.468970   8.187741   5.432401
    34  H    7.809751   8.130255   7.777778   9.462873   6.536952
                   16         17         18         19         20
    16  S    0.000000
    17  S    3.203997   0.000000
    18  Mo   2.239524   4.921585   0.000000
    19  S    3.622052   6.624022   2.119148   0.000000
    20  S    3.643263   5.883008   2.228549   3.627594   0.000000
    21  Mo   9.831050   9.335289   9.011740  10.772015   7.897197
    22  S   11.780218  11.412439  10.759156  12.362383   9.578914
    23  S    8.836465   8.882250   7.910962   9.611292   6.383306
    24  Mo   4.892991   2.258679   5.949550   7.779939   6.772669
    25  S    6.404974   3.401169   7.812923   9.432221   8.872277
    26  S    5.931570   3.484724   6.855595   8.911350   6.934273
    27  Mo   7.638753   5.364719   8.115027  10.125282   8.187015
    28  S    7.521698   4.970455   8.220604  10.014514   8.910504
    29  S    9.291451   6.480779  10.148611  12.139607  10.328700
    30  Mo   7.735989   4.647400   8.979010  10.869962   9.488852
    31  S    9.362158   6.163899  10.831217  12.612377  11.490557
    32  H    9.364904   6.205321  10.987110  12.810085  11.458096
    33  S    7.732014   4.741983   9.237015  11.168077   9.452904
    34  H    8.949090   5.853642  10.584864  12.437576  10.948104
                   21         22         23         24         25
    21  Mo   0.000000
    22  S    2.119460   0.000000
    23  S    2.221733   3.626757   0.000000
    24  Mo   8.142668  10.146760   8.216693   0.000000
    25  S   10.058528  12.005024  10.332673   2.281025   0.000000
    26  S    6.903148   8.965056   6.944066   2.339533   3.777555
    27  Mo   5.921952   7.766871   6.706303   3.423539   4.539237
    28  S    7.885436   9.639765   8.679296   2.740397   2.946401
    29  S    7.850827   9.526560   8.772352   4.643814   4.593415
    30  Mo   8.982909  10.880642   9.466868   3.145269   2.505225
    31  S   11.018003  12.840671  11.588894   5.003210   3.411958
    32  H   11.293829  13.180418  11.636574   5.507720   4.213219
    33  S    9.550026  11.531764   9.639597   4.213471   3.885414
    34  H   10.949719  12.873053  11.167495   5.327361   4.314177
                   26         27         28         29         30
    26  S    0.000000
    27  Mo   2.340428   0.000000
    28  S    3.365611   2.388397   0.000000
    29  S    3.589332   2.431909   2.987906   0.000000
    30  Mo   2.832507   3.154393   2.620011   2.329840   0.000000
    31  S    4.950788   5.170748   4.240084   3.505410   2.192780
    32  H    5.000869   5.733056   5.346197   4.138440   2.815905
    33  S    3.108870   4.440711   4.737275   3.676859   2.282674
    34  H    4.599290   5.584861   5.464454   4.204014   2.849222
                   31         32         33         34
    31  S    0.000000
    32  H    1.652146   0.000000
    33  S    3.065606   2.232822   0.000000
    34  H    2.300214   0.813720   1.600395   0.000000
 Symmetry turned off by external request.
 Stoichiometry    H2Mo10S22
 Framework group  C1[X(H2Mo10S22)]
 Deg. of freedom    96
 Full point group                 C1      NOp   1
 Rotational constants (GHZ):           0.0335460           0.0322582           0.0181980
 General basis read from cards:  (5D, 7F)
 ======================================================================================================
                                       Pseudopotential Parameters
 ======================================================================================================
  Center     Atomic      Valence      Angular      Power
  Number     Number     Electrons     Momentum     of R      Exponent        Coefficient   SO-Coeffient
 ======================================================================================================
    1         42           14
                                      F and up 
                                                     0      537.9667807       -0.04694920    0.00000000
                                                     1      147.8982938      -20.20800840    0.00000000
                                                     2       45.7358898     -106.21163020    0.00000000
                                                     2       13.2911467      -41.81073680    0.00000000
                                                     2        4.7059961       -4.20541030    0.00000000
                                      S - F
                                                     0      110.2991760        2.80637170    0.00000000
                                                     1       23.2014645       44.51620120    0.00000000
                                                     2        5.3530131       82.77852270    0.00000000
                                      P - F
                                                     0       63.2901397        4.94208760    0.00000000
                                                     1       23.3315302       25.86049760    0.00000000
                                                     2       24.6759423      132.47087420    0.00000000
                                                     2        4.6493040       57.31497940    0.00000000
                                      D - F
                                                     0      104.4839977        3.00545910    0.00000000
                                                     1       66.2307245       26.36378510    0.00000000
                                                     2       39.1283176      183.38491990    0.00000000
                                                     2       13.1164437       98.44530680    0.00000000
                                                     2        3.6280263       22.49013770    0.00000000
    2         16
                                   No pseudopotential on this center.
    3         16
                                   No pseudopotential on this center.
    4         16
                                   No pseudopotential on this center.
    5         16
                                   No pseudopotential on this center.
    6         42           14
                                      F and up 
                                                     0      537.9667807       -0.04694920    0.00000000
                                                     1      147.8982938      -20.20800840    0.00000000
                                                     2       45.7358898     -106.21163020    0.00000000
                                                     2       13.2911467      -41.81073680    0.00000000
                                                     2        4.7059961       -4.20541030    0.00000000
                                      S - F
                                                     0      110.2991760        2.80637170    0.00000000
                                                     1       23.2014645       44.51620120    0.00000000
                                                     2        5.3530131       82.77852270    0.00000000
                                      P - F
                                                     0       63.2901397        4.94208760    0.00000000
                                                     1       23.3315302       25.86049760    0.00000000
                                                     2       24.6759423      132.47087420    0.00000000
                                                     2        4.6493040       57.31497940    0.00000000
                                      D - F
                                                     0      104.4839977        3.00545910    0.00000000
                                                     1       66.2307245       26.36378510    0.00000000
                                                     2       39.1283176      183.38491990    0.00000000
                                                     2       13.1164437       98.44530680    0.00000000
                                                     2        3.6280263       22.49013770    0.00000000
    7         16
                                   No pseudopotential on this center.
    8         16
                                   No pseudopotential on this center.
    9         42           14
                                      F and up 
                                                     0      537.9667807       -0.04694920    0.00000000
                                                     1      147.8982938      -20.20800840    0.00000000
                                                     2       45.7358898     -106.21163020    0.00000000
                                                     2       13.2911467      -41.81073680    0.00000000
                                                     2        4.7059961       -4.20541030    0.00000000
                                      S - F
                                                     0      110.2991760        2.80637170    0.00000000
                                                     1       23.2014645       44.51620120    0.00000000
                                                     2        5.3530131       82.77852270    0.00000000
                                      P - F
                                                     0       63.2901397        4.94208760    0.00000000
                                                     1       23.3315302       25.86049760    0.00000000
                                                     2       24.6759423      132.47087420    0.00000000
                                                     2        4.6493040       57.31497940    0.00000000
                                      D - F
                                                     0      104.4839977        3.00545910    0.00000000
                                                     1       66.2307245       26.36378510    0.00000000
                                                     2       39.1283176      183.38491990    0.00000000
                                                     2       13.1164437       98.44530680    0.00000000
                                                     2        3.6280263       22.49013770    0.00000000
   10         16
                                   No pseudopotential on this center.
   11         16
                                   No pseudopotential on this center.
   12         42           14
                                      F and up 
                                                     0      537.9667807       -0.04694920    0.00000000
                                                     1      147.8982938      -20.20800840    0.00000000
                                                     2       45.7358898     -106.21163020    0.00000000
                                                     2       13.2911467      -41.81073680    0.00000000
                                                     2        4.7059961       -4.20541030    0.00000000
                                      S - F
                                                     0      110.2991760        2.80637170    0.00000000
                                                     1       23.2014645       44.51620120    0.00000000
                                                     2        5.3530131       82.77852270    0.00000000
                                      P - F
                                                     0       63.2901397        4.94208760    0.00000000
                                                     1       23.3315302       25.86049760    0.00000000
                                                     2       24.6759423      132.47087420    0.00000000
                                                     2        4.6493040       57.31497940    0.00000000
                                      D - F
                                                     0      104.4839977        3.00545910    0.00000000
                                                     1       66.2307245       26.36378510    0.00000000
                                                     2       39.1283176      183.38491990    0.00000000
                                                     2       13.1164437       98.44530680    0.00000000
                                                     2        3.6280263       22.49013770    0.00000000
   13         42           14
                                      F and up 
                                                     0      537.9667807       -0.04694920    0.00000000
                                                     1      147.8982938      -20.20800840    0.00000000
                                                     2       45.7358898     -106.21163020    0.00000000
                                                     2       13.2911467      -41.81073680    0.00000000
                                                     2        4.7059961       -4.20541030    0.00000000
                                      S - F
                                                     0      110.2991760        2.80637170    0.00000000
                                                     1       23.2014645       44.51620120    0.00000000
                                                     2        5.3530131       82.77852270    0.00000000
                                      P - F
                                                     0       63.2901397        4.94208760    0.00000000
                                                     1       23.3315302       25.86049760    0.00000000
                                                     2       24.6759423      132.47087420    0.00000000
                                                     2        4.6493040       57.31497940    0.00000000
                                      D - F
                                                     0      104.4839977        3.00545910    0.00000000
                                                     1       66.2307245       26.36378510    0.00000000
[...]
 .00008593,0.00054979,0.00002748,-0.00023715,-0.00083078,0.00025789,0.0
 0012915,0.00005110,0.00036810,-0.00007515,0.00035880,-0.00016118,-0.00
 034412,0.00017732,-0.00007567,0.00032431,-0.00018378,-0.00002486,-0.00
 004809,-0.00012261,-0.00115554,0.00279502,-0.00485073,-0.00677626,-0.0
 0616596,0.00373636,0.00196337,0.00017794,-0.00090869,0.00802753,0.0049
 5967,-0.02391223,-0.00810691,-0.00668947,0.00287205,0.02585280,-0.0327
 3457,0.08014329,0.00047741,-0.00061596,0.00077358,-0.00038750,0.000015
 42,-0.00007877,-0.00001578,-0.00009616,-0.00041808,0.00112571,-0.00062
 134,0.00068920,-0.00011297,0.00006798,0.00013531,0.00078310,0.00042667
 ,0.00001309,0.00007363,0.00029418,-0.00013414,0.00066014,0.00064941,0.
 00040896,-0.00739169,0.00232142,-0.00227157,0.00023265,0.00198025,0.00
 092736,0.00050012,-0.00263631,-0.00077161,0.00062998,-0.00090489,-0.00
 048848,0.00176168,-0.00005564,-0.00116616,-0.00022898,0.00019796,0.000
 28399,0.00012125,-0.00028321,-0.00142879,-0.00031467,-0.00040815,0.000
 01469,0.00089286,0.00031572,-0.00179965,-0.00076921,0.00010868,0.00081
 058,0.00018664,0.00006054,0.00007686,-0.00023562,0.00000590,-0.0003629
 7,0.00072405,-0.00015406,-0.00077653,-0.00005001,0.00002823,-0.0000201
 1,-0.00038818,0.00015141,0.00003979,-0.00565812,-0.01571378,0.01423034
 ,-0.04987220,-0.00159865,-0.02401355,-0.00075444,0.00069898,0.00136442
 ,0.01563781,0.01108538,0.00228733,-0.00866764,-0.01011231,0.00428876,-
 0.05626399,0.00012257,-0.02259249,0.20086195,-0.00007971,0.00012569,-0
 .00074237,-0.00003079,0.00045045,-0.00007984,0.00014938,-0.00007367,-0
 .00015379,-0.00055133,0.00042571,-0.00005956,0.00018475,-0.00009585,0.
 00023711,0.00019347,-0.00039175,-0.00013904,-0.00007152,0.00010218,0.0
 0027564,0.00003497,0.00026228,0.00009613,0.00205553,-0.00140141,0.0035
 6516,-0.00099147,-0.00064363,-0.00097157,-0.00098859,0.00030557,0.0003
 2775,0.00012083,0.00079814,-0.00275220,-0.00036673,-0.00079071,-0.0014
 1220,0.00000651,0.00011173,-0.00026010,-0.00228224,-0.00004383,0.00031
 873,0.00019608,0.00014633,-0.00019620,0.00312740,-0.00073463,-0.000736
 70,-0.00037656,-0.00017950,-0.00010268,0.00028740,0.00015057,0.0000819
 8,-0.00002347,-0.00000940,-0.00008185,-0.00045240,-0.00073990,0.000811
 15,-0.00023065,0.00031657,-0.00018391,0.00042173,-0.00002034,-0.000011
 99,-0.00864347,0.00481376,-0.00015090,-0.01183300,-0.01310443,0.000087
 68,0.00214254,0.00013606,-0.00091594,0.00691727,-0.00264428,0.01406201
 ,-0.00501898,-0.03578363,-0.00000834,0.00572996,-0.01872035,0.00878135
 ,0.02649981,0.28972914,0.00095693,-0.00072322,0.00093132,-0.00063012,-
 0.00027281,-0.00044954,-0.00005819,-0.00003957,-0.00018437,0.00097139,
 -0.00080776,0.00045788,0.00001258,0.00004590,-0.00002330,0.00065594,0.
 00033951,-0.00035679,0.00025887,0.00023194,0.00008410,0.00041794,0.000
 35925,-0.00005456,-0.00546429,0.00274495,-0.00090019,-0.00005950,0.000
 39200,0.00075375,-0.00060145,-0.00280791,-0.00094353,0.00077229,-0.000
 86784,-0.00078781,-0.00034917,-0.00066570,-0.00032980,-0.00019666,0.00
 007001,0.00047437,-0.00066571,0.00107380,-0.00047633,-0.00012953,-0.00
 005849,-0.00015861,0.00126128,0.00054992,-0.00180636,0.00013157,0.0004
 0321,0.00066871,-0.00028607,-0.00014767,-0.00008290,-0.00024868,-0.000
 02428,-0.00030713,0.00024159,0.00024079,-0.00081744,0.00019242,-0.0003
 1805,0.00015276,-0.00034777,0.00013719,0.00010283,0.00461956,-0.005410
 54,0.00680671,-0.00866026,0.00329273,-0.02202819,0.00032865,-0.0015577
 2,-0.00012451,0.01565967,0.01602660,-0.00453486,0.00152751,0.00995587,
 -0.00934122,-0.03933883,0.00065851,-0.03710921,-0.07617444,-0.04004288
 ,0.26967208,0.00002895,-0.00002199,-0.00020210,0.00003465,0.00007743,-
 0.00006328,-0.00001499,0.00000298,0.00001378,0.00003192,0.00000306,-0.
 00006661,0.00000928,0.00000532,-0.00000090,0.00010925,0.00002217,-0.00
 005468,-0.00000328,-0.00003430,0.00000744,0.00005711,0.00004523,0.0000
 0002,-0.00060801,-0.00042338,0.00073241,-0.00016278,-0.00005426,0.0000
 3714,-0.00009020,-0.00035393,-0.00009305,-0.00000849,0.00008355,0.0000
 1989,-0.00010654,-0.00020596,0.00001975,-0.00001873,0.00001693,0.00002
 069,-0.00033779,-0.00007457,0.00002384,-0.00000650,0.00006651,-0.00004
 112,0.00008653,-0.00009661,0.00002588,0.00018368,0.00010434,0.00005320
 ,-0.00013742,-0.00006181,-0.00004346,-0.00003657,-0.00000501,-0.000026
 30,-0.00008836,0.00012745,-0.00008517,0.00007713,-0.00011849,0.0000639
 8,0.00002749,0.00000177,0.00003352,-0.00021070,0.00041375,-0.00050628,
 -0.00249668,0.00011608,0.00345521,0.00030020,0.00022861,-0.00030800,0.
 00281062,0.00134967,-0.00030155,-0.00080399,0.00002475,0.00053303,0.00
 674559,-0.00393123,0.00129113,-0.07646633,0.00669962,0.07530491,0.0820
 2335,-0.00006480,0.00006361,0.00010878,-0.00000673,-0.00000665,0.00008
 614,0.00001957,-0.00001905,-0.00005709,0.00006787,0.00002476,-0.000058
 13,0.00004188,0.00001583,0.00001169,-0.00001643,0.00010627,0.00013355,
 -0.00004195,0.00005886,0.00000567,-0.00004292,0.00001113,0.00004590,-0
 .00023571,-0.00013112,-0.00027906,0.00001210,-0.00015402,-0.00000790,0
 .00004245,-0.00022747,-0.00001474,0.00002517,0.00012879,-0.00038569,0.
 00035105,-0.00000957,-0.00018585,-0.00001672,-0.00001689,-0.00000235,0
 .00016411,0.00005092,0.00017337,0.00001352,-0.00001978,0.00002480,-0.0
 0013902,0.00008851,0.00001250,-0.00019199,-0.00015014,-0.00000038,0.00
 012654,0.00006057,0.00003872,0.00001988,0.00000268,-0.00000499,0.00009
 524,-0.00014525,0.00008836,-0.00006742,0.00010130,-0.00005686,-0.00002
 629,0.00000368,-0.00003099,-0.00041566,-0.00086359,-0.00002047,-0.0006
 3036,0.00107369,0.00177006,0.00012542,0.00062178,-0.00013946,0.0000502
 8,0.00008257,-0.00008256,-0.00097034,-0.00191306,0.00157069,-0.0007881
 4,0.00000597,0.00235705,-0.00716541,-0.01933697,0.01174118,-0.01529437
 ,0.07184424,-0.00021725,0.00010934,0.00009944,0.00003679,0.00003362,0.
 00016188,0.00002431,0.00000863,-0.00001307,-0.00001907,0.00009563,-0.0
 0007432,0.00002722,0.00001066,0.00002309,0.00003339,-0.00003272,0.0002
 0466,-0.00000835,0.00004887,0.00003458,-0.00013999,-0.00000658,0.00003
 476,0.00053390,-0.00042175,-0.00048266,0.00013132,0.00016241,0.0000669
 7,-0.00008107,0.00091684,0.00021515,0.00000357,0.00016255,-0.00015583,
 0.00001483,0.00027553,0.00002278,-0.00000519,-0.00002032,-0.00007989,0
 .00046118,0.00007845,0.00023313,0.00005610,-0.00003451,-0.00000245,-0.
 00015201,0.00007981,-0.00000093,-0.00031980,-0.00016898,-0.00006856,0.
 00021881,0.00009471,0.00006183,0.00005919,-0.00000598,0.00000267,0.000
 08071,-0.00025960,0.00026930,-0.00013121,0.00020221,-0.00011691,0.0000
 0615,-0.00000646,-0.00007127,0.00072069,-0.00079133,0.00195755,0.00526
 041,0.00227147,0.00198910,-0.00017400,-0.00033108,0.00004283,-0.003022
 59,-0.00241303,-0.00088775,0.00056294,-0.00030383,-0.00081887,-0.00226
 618,0.00403364,-0.00872595,0.07758563,-0.00996489,-0.14928025,-0.08875
 502,0.02500730,0.17600790,0.00001396,0.00000140,-0.00001183,-0.0000049
 6,0.00000398,-0.00000567,-0.00000147,-0.00000161,0.00000177,-0.0000067
 4,-0.00001101,0.00000303,-0.00000803,-0.00001460,-0.00000563,0.0000002
 3,-0.00001006,-0.00000695,-0.00001277,0.00001200,0.00000634,0.00000526
 ,0.00001458,-0.00001162,0.00004224,-0.00003960,0.00007570,0.00001264,-
 0.00003959,-0.00004282,0.00001512,0.00013373,0.00004067,-0.00002990,-0
 .00011271,0.00011602,0.00011460,0.00002089,-0.00003437,0.00001501,0.00
 000528,-0.00000150,-0.00007077,0.00002009,-0.00005446,-0.00000408,-0.0
 0000618,0.00001554,-0.00001354,0.00003772,-0.00004878,-0.00000818,-0.0
 0001247,0.00000634,-0.00000181,-0.00000152,0.00000230,-0.00000447,0.00
 000488,-0.00000344,-0.00000295,0.00001493,-0.00001821,0.00000279,-0.00
 000314,0.00000195,-0.00000023,-0.00000101,0.00000090,0.00006927,0.0001
 3270,-0.00005131,-0.00018077,-0.00023264,-0.00017525,-0.00012873,0.000
 02427,0.00000604,-0.00013682,-0.00022828,-0.00005926,0.00025406,-0.000
 38970,0.00024901,0.00001651,0.00034425,-0.00040728,0.00215824,0.001688
 24,0.00814399,-0.01404832,-0.00685927,-0.00123631,0.03581093,-0.000017
 00,-0.00002038,-0.00007898,0.00005467,-0.00004049,0.00000435,-0.000035
 24,0.00002509,0.00007868,0.00000713,0.00007604,0.00001050,-0.00005849,
 -0.00003863,-0.00001738,0.00006191,-0.00009991,-0.00005640,0.00004466,
 -0.00002558,0.00001902,-0.00005573,-0.00000974,-0.00006953,-0.00005541
 ,-0.00028322,-0.00009344,0.00011439,0.00020490,0.00011724,-0.00000635,
 0.00041991,0.00019215,0.00000943,-0.00002404,0.00038032,-0.00028509,0.
 00011753,0.00031120,0.00006403,-0.00002469,0.00001705,0.00022969,-0.00
 005613,0.00019453,-0.00001345,0.00002491,-0.00004256,-0.00011994,0.000
 09521,-0.00000275,0.00016418,0.00015222,0.00002856,-0.00013562,-0.0000
 7090,-0.00004090,-0.00001295,-0.00000587,-0.00000507,-0.00005073,0.000
 24522,-0.00007123,0.00008206,-0.00012076,0.00006762,0.00000565,-0.0000
 2268,0.00000468,0.00043223,-0.00039452,0.00061399,0.00044695,-0.000235
 38,-0.00074763,-0.00014251,-0.00034255,-0.00040726,-0.00115830,-0.0008
 9927,-0.00137295,0.00081561,-0.00088592,-0.00096659,-0.00004218,0.0009
 8527,-0.00134176,-0.02215304,-0.02826552,0.04008283,0.01217314,0.01245
 303,-0.02118385,0.00389381,0.00105480,-0.00000112,-0.00000212,0.000005
 99,0.,0.00000776,-0.00000404,0.00000214,0.00000215,0.00000345,-0.00000
 643,-0.00001109,0.00001024,-0.00000121,-0.00001195,0.00000414,0.000018
 83,-0.00002668,-0.00001410,-0.00000780,-0.00000139,0.00000516,-0.00000
 916,0.00001426,-0.00001061,0.00003882,-0.00004012,0.00005564,0.0000074
 8,-0.00002899,-0.00000731,-0.00001746,0.00010263,-0.00003212,-0.000017
 15,-0.00003254,0.00001327,0.00002294,0.00006220,0.00000599,-0.00000182
 ,0.00000615,-0.00000772,-0.00002369,0.00001107,-0.00006187,0.00000991,
 -0.00000583,0.00000676,-0.00002658,-0.00000796,0.00001221,-0.00001442,
 -0.00000955,-0.00000469,0.00000905,0.00000305,0.00000422,0.00000026,0.
 00000242,-0.00000373,-0.00000527,-0.00001371,-0.00000182,-0.00000472,0
 .00000857,-0.00000326,0.00000151,-0.00000025,-0.00000144,-0.00009881,0
 .00019606,0.00001374,-0.00039645,-0.00001888,-0.00026768,-0.00012708,-
 0.00009233,-0.00000927,-0.00002529,-0.00026804,0.00034009,0.00028125,0
 .00127770,0.00023029,0.00019592,0.00046787,-0.00001919,0.00862297,-0.0
 0296932,-0.00757335,-0.00169041,0.01084303,-0.01243208,-0.01737564,-0.
 00594004,0.05489363,-0.00003950,-0.00002905,0.00003765,0.00006505,-0.0
 0010531,0.00000408,-0.00000435,0.00002625,0.00006116,-0.00019044,0.000
 18436,0.00006304,0.00004043,-0.00000529,0.00000938,-0.00028162,-0.0000
 1103,-0.00001593,-0.00000369,-0.00000711,0.00000849,-0.00012048,-0.000
 21218,-0.00004265,0.00159606,0.00038419,-0.00034562,-0.00008823,-0.000
 61922,-0.00026669,-0.00015583,-0.00005370,-0.00025566,0.00006226,0.000
 36257,-0.00012464,0.00010412,0.00022384,0.00003886,0.00000443,-0.00004
 619,0.00000037,-0.00000035,-0.00045574,0.00018803,0.00003305,0.0000049
 7,0.00003768,-0.00019737,-0.00006599,-0.00027325,-0.00001275,-0.000111
 15,-0.00011255,0.00006298,0.00003733,0.00001500,0.00005546,-0.00000045
 ,0.00007207,0.00000471,-0.00006759,0.00011276,-0.00004039,0.00006376,-
 0.00002828,0.00002021,-0.00000604,-0.00000356,-0.00001550,0.00121065,-
 0.00114819,-0.00261517,-0.00499200,0.00050221,0.00055594,-0.00011010,0
 .00018671,-0.00202863,-0.00067596,0.00161171,0.00072056,0.00082017,-0.
 00226292,-0.00128372,0.00550901,-0.00222909,-0.01588127,-0.00436452,0.
 00407883,-0.00115094,-0.00109228,0.01890211,-0.01074502,0.03218885,0.0
 1718379,0.03795203,0.00013028,-0.00021134,-0.00017614,0.00000332,-0.00
 007739,-0.00007446,-0.00011110,0.00004107,0.00009219,0.00020903,-0.000
 14506,0.00008438,-0.00009916,0.00004094,-0.00004872,0.00019837,0.00008
 902,-0.00020101,0.00001274,-0.00004380,-0.00005956,0.00011268,0.000058
 46,-0.00001011,-0.00188918,0.00027127,0.00033992,0.00019492,0.00001988
 ,0.00007790,0.00041841,-0.00006716,0.00016427,0.00006050,-0.00025482,0
 .00122916,0.00031451,0.00009158,0.00006351,0.00002075,0.00005762,0.000
 10853,0.00037693,-0.00064540,0.00000236,-0.00014677,-0.00003137,0.0000
 4398,-0.00049905,0.00006805,0.00032698,0.00024101,0.00017692,0.0001682
 7,-0.00023134,-0.00012107,-0.00005406,-0.00008199,0.00000916,-0.000042
 72,0.00008292,0.00039563,-0.00042863,0.00014940,-0.00024049,0.00013068
 ,-0.00009943,0.00002168,0.00006694,0.00074295,-0.00048966,-0.00113174,
 -0.00761821,-0.00169932,-0.00068174,-0.00060566,-0.00001894,0.00070696
 ,0.00138223,0.00153225,-0.00509540,-0.00416648,-0.00848454,0.00619395,
 0.00595267,-0.00223395,0.01084259,0.01648855,-0.16292911,-0.03319165,0
 .00505945,-0.02743473,-0.00786811,-0.00837379,0.01976826,0.01341870,-0
 .02134757,0.19368095,0.00008152,-0.00001756,-0.00006984,0.00005600,-0.
 00001888,-0.00002645,-0.00005446,-0.00001229,0.00001754,-0.00020770,-0
 .00001439,-0.00001927,-0.00008551,-0.00001017,0.00001363,-0.00041821,0
 .00010682,0.00007044,0.00005020,-0.00004773,-0.00007374,0.00004786,-0.
 00023685,0.00009294,0.00125239,0.00063125,-0.00064045,0.00011521,0.000
 10268,-0.00016887,0.00035624,0.00007454,0.00016406,-0.00006702,-0.0000
 8428,0.00081312,-0.00007232,-0.00014441,-0.00009771,-0.00000849,0.0000
 3446,-0.00002479,0.00020812,-0.00053209,0.00006671,-0.00007153,-0.0000
 2568,0.00005483,-0.00004623,0.00020998,0.00004026,0.00013967,0.0000328
 8,-0.00008260,-0.00004414,-0.00001348,-0.00001711,0.00004178,-0.000007
 47,0.00011457,0.00007577,0.00011320,-0.00014868,0.00002937,-0.00004499
 ,0.00002916,-0.00002209,0.00000467,0.00001042,0.00049141,0.00039638,-0
 .00081912,-0.00176366,-0.00183587,0.00063454,0.00002374,0.00020078,0.0
 0045219,-0.00284656,0.00007166,-0.00051570,-0.00096104,-0.00095352,0.0
 0087374,-0.00053884,0.00590975,-0.00195161,0.00392254,-0.00041681,-0.0
 1826937,0.01780041,0.00251353,-0.02105936,0.01820316,-0.05365879,-0.02
 925521,-0.02306439,0.03667674,0.06256295,-0.00003973,0.00002266,-0.000
 01134,0.00002071,-0.00000200,0.00003381,-0.00000824,0.00001516,0.00004
 955,-0.00000917,0.00005967,-0.00003645,-0.00003240,-0.00002217,0.00000
 085,0.00008662,-0.00009207,0.00001619,0.00001414,-0.00000265,0.0000266
 7,-0.00007553,-0.00000034,-0.00005923,0.00013851,-0.00040732,-0.000004
 20,0.00004129,0.00007043,0.00008464,-0.00006976,0.00018080,0.00014832,
 -0.00001242,-0.00005548,0.00011763,-0.00014990,0.00009355,0.00019803,0
 .00003950,-0.00000705,-0.00001353,0.00001669,0.00006585,0.00016902,0.0
 0000833,0.00002658,-0.00003541,-0.00010230,0.00006795,0.00001590,0.000
 06366,0.00007964,-0.00000315,-0.00005860,-0.00003343,-0.00001824,0.000
 00145,-0.00000987,-0.00000830,-0.00003979,0.00009277,-0.00000551,0.000
 02992,-0.00004655,0.00002429,0.00000814,-0.00001476,-0.00001342,0.0000
 2503,-0.00028381,0.00027839,0.00061253,-0.00050461,-0.00042124,0.00007
 705,-0.00020836,-0.00042308,-0.00069767,-0.00025835,-0.00031525,0.0002
 4149,0.00020963,-0.00042132,0.00030211,-0.00000973,-0.00133643,-0.0033
 6859,-0.02015005,0.01767473,0.00427087,0.03291075,-0.00819120,-0.01312
 131,-0.02644635,-0.00654434,-0.00642202,0.01311811,-0.01262319,0.01820
 938,-0.00001935,0.00000044,-0.00000802,0.00002986,-0.00001806,0.000001
 34,-0.00000333,0.00000875,0.00002008,0.00002377,0.00001551,0.00000621,
 -0.00000175,-0.00000458,-0.00001160,0.00002728,-0.00002047,-0.00002791
 ,-0.00000489,0.00000497,0.00000677,-0.00002056,0.00000313,-0.00002688,
 -0.00014619,-0.00007210,0.00000576,0.00002905,-0.00002548,0.00003134,-
 0.00001594,0.00003804,-0.00003455,-0.00001321,0.00004436,-0.00000955,0
 .00002166,0.00006208,0.00011014,0.00001439,-0.00001974,0.00001637,0.00
 010109,0.00003419,0.00003559,0.00000252,0.00000745,0.00000039,-0.00012
 957,0.00001326,-0.00003323,0.00003025,0.00001046,0.00000561,-0.0000269
 3,-0.00001444,-0.00000683,-0.00000335,0.00000273,-0.00000438,-0.000009
 83,0.00005305,-0.00000618,0.00001689,-0.00002373,0.00001495,0.00000146
 ,-0.00000674,0.00000247,0.00014843,-0.00024057,0.00006980,0.00042202,0
 .00034209,0.00012050,0.00001145,-0.00005861,-0.00014590,-0.00008952,-0
 .00043841,-0.00004352,-0.00001166,-0.00014426,0.00011247,-0.00032639,0
 .00032205,-0.00009832,0.00099987,-0.01196527,-0.00141006,-0.00594591,-
 0.03636990,0.01022138,0.00998443,-0.00375624,-0.01694282,-0.00663748,-
 0.01119457,0.01099593,0.00154144,0.06341062,-0.00001110,0.00000796,0.0
 0008143,-0.00006717,0.00003707,-0.00000056,0.00003204,-0.00000840,-0.0
 0003235,0.00006334,-0.00004168,-0.00000563,0.00005527,0.00004842,0.000
 00491,0.00010515,0.00000137,-0.00000125,-0.00005844,0.00001851,0.00000
 478,-0.00000839,0.00010135,-0.00002665,-0.00023672,-0.00014331,0.00030
 903,-0.00005158,-0.00027307,-0.00011425,-0.00006564,-0.00022678,-0.000
 18365,-0.00004337,-0.00001990,-0.00033050,0.00033630,0.00011486,-0.000
 12284,-0.00004135,0.00002532,-0.00001595,-0.00015752,0.00004310,-0.000
 18840,0.00002755,-0.00001889,0.00003058,-0.00009668,-0.00012236,0.0000
 4009,-0.00011715,-0.00008203,0.00000640,0.00006829,0.00003198,0.000025
 40,-0.00000516,0.00000803,-0.00004001,-0.00001721,-0.00016246,0.000053
 51,-0.00004530,0.00006314,-0.00003717,0.00000334,0.00001552,-0.0000042
 9,-0.00028437,0.00024254,-0.00023619,0.00005199,0.00086508,0.00075499,
 0.00012480,0.00022270,0.00010438,0.00094572,0.00064267,0.00088760,-0.0
 0078692,0.00076027,0.00116451,0.00007277,0.00001326,0.00131613,0.01602
 196,0.03370840,-0.02416489,-0.00719832,-0.05520579,0.01284254,-0.00732
 243,0.04397440,-0.00589536,-0.01294053,-0.02167393,0.00722879,0.011646
 81,-0.00296736,0.00654485\\-0.00000356,-0.00000188,0.00000093,-0.00000
 092,0.,-0.00000079,-0.00000274,0.00000078,-0.00000108,-0.00000175,-0.0
 0000010,-0.00000144,0.00000185,-0.00000008,0.00000008,0.00000723,-0.00
 000122,0.00000296,-0.00000057,0.00000072,-0.00000180,0.00000042,-0.000
 00317,0.00000286,0.00000383,-0.00001168,-0.00000725,0.00000030,0.00000
 412,-0.00000094,-0.00000075,0.00000406,0.00000136,-0.00000604,0.000001
 30,0.00000322,-0.00000617,-0.00000363,0.00000089,-0.00000182,0.0000010
 2,0.,-0.00000399,-0.00000438,-0.00000531,0.00000039,0.00000006,-0.0000
 0008,0.00000445,-0.00000094,-0.00000144,0.00000095,-0.00000003,0.00000
 065,0.00000057,-0.00000020,-0.00000129,-0.00000092,-0.00000040,-0.0000
 0260,-0.00000083,0.00000146,-0.00000068,-0.00000069,0.00000132,0.00000
 146,0.00000039,0.00000001,-0.00000157,0.00000407,0.00001191,0.00000099
 ,0.00000590,0.00000518,0.00000193,-0.00000062,0.00000286,0.00000430,0.
 00001541,0.00001597,0.00002366,0.00001441,-0.00000774,0.00001136,-0.00
 001638,-0.00001220,-0.00000364,-0.00002958,0.00002160,-0.00004554,0.00
 000771,-0.00000870,-0.00000570,-0.00000195,0.00000095,0.00000470,0.000
 01376,-0.00001558,0.00002865,-0.00000235,-0.00000142,-0.00000886\\\@
 The archive entry for this job was punched.


 EXPERIMENTALISTS THINK SILICON IS REALLY FUN TO USE
     ITS PLACE IN NOVEL COMPOUNDS IS CERTAIN TO AMUSE
 THEY SIT ALL DAY IN LABORATORIES MAKING ALL THIS SLUDGE
     "LOADED WITH THE SILICON THEY SAY", TO ME IT LOOKS LIKE FUDGE.
 FOR HAPPY THOUGH THEY BE WITH CRUD, I'D LIKE TO KNOW A LITTLE
      ABOUT THE PI BONDS ON THE EDGE AND SIGMAS IN THE MIDDLE.

 SO LETS DERIVE A WAVEFUNCTION.....6-31G*
     USE AN OPTIMAL GEOMETRY AND SEE WHERE ELECTRONS ARE.
 BUT WHAT OF CORRELATION?  ASKS THE WIRY LITTLE SKEPTIC.
     WE'LL THROW IN PERTURBATION AS AN ELECTRON ANTISEPTIC.
 AND WHEN THE PROGRAM GIVES US ANSWERS IN THEM WE CAN TRUST
     SINCE NOBODY CAN MAKE THE STUFF, WE HAVE NO CHOICE, WE MUST.

 SO THEORY GUYS HAVE GOT IT MADE, IN ROOMS FREE OF POLLUTION.
     INSTEAD OF PROBLEMS WITH THE REFLUX, THEY HAVE ONLY SOLUTIONS.
 AND WHEN THE FEDS ANNOUNCE THE LIST OF CARCINOGENIC TERRORS,
     THE THEORISTS SIT SAFELY AT THEIR TERMINALS FIXING ERRORS.
 IN OTHER WORDS, EXPERIMENTALISTS WILL LIKELY DIE OF CANCER
     FROM WORKING HARD YET FRUITLESSLY...TILL THEORY GIVES THE ANSWER.
          -- THOMAS A. HOLME, 1983
 Job cpu time:       0 days 13 hours 39 minutes 57.5 seconds.
 Elapsed time:       0 days  0 hours 17 minutes 52.9 seconds.
 File lengths (MBytes):  RWF=   2164 Int=      0 D2E=      0 Chk=     38 Scr=      2
 Normal termination of Gaussian 16 at Tue Dec 13 10:28:54 2022.
