 Entering Gaussian System, Link 0=/apps/GAU16/avx2/g16/g16
 Initial command:
 /apps/GAU16/avx2//g16/l1.exe "/localscratch/chegho/Gau-194039.inp" -scrdir="/localscratch/chegho/"
 Entering Link 1 = /apps/GAU16/avx2//g16/l1.exe PID=    194041.
  
 Copyright (c) 1988-2019, Gaussian, Inc.  All Rights Reserved.
  
 This is part of the Gaussian(R) 16 program.  It is based on
 the Gaussian(R) 09 system (copyright 2009, Gaussian, Inc.),
 the Gaussian(R) 03 system (copyright 2003, Gaussian, Inc.),
 the Gaussian(R) 98 system (copyright 1998, Gaussian, Inc.),
 the Gaussian(R) 94 system (copyright 1995, Gaussian, Inc.),
 the Gaussian 92(TM) system (copyright 1992, Gaussian, Inc.),
 the Gaussian 90(TM) system (copyright 1990, Gaussian, Inc.),
 the Gaussian 88(TM) system (copyright 1988, Gaussian, Inc.),
 the Gaussian 86(TM) system (copyright 1986, Carnegie Mellon
 University), and the Gaussian 82(TM) system (copyright 1983,
 Carnegie Mellon University). Gaussian is a federally registered
 trademark of Gaussian, Inc.
  
 This software contains proprietary and confidential information,
 including trade secrets, belonging to Gaussian, Inc.
  
 This software is provided under written license and may be
 used, copied, transmitted, or stored only in accord with that
 written license.
  
 The following legend is applicable only to US Government
 contracts under FAR:
  
                    RESTRICTED RIGHTS LEGEND
  
 Use, reproduction and disclosure by the US Government is
 subject to restrictions as set forth in subparagraphs (a)
 and (c) of the Commercial Computer Software - Restricted
 Rights clause in FAR 52.227-19.
  
 Gaussian, Inc.
 340 Quinnipiac St., Bldg. 40, Wallingford CT 06492
  
  
 ---------------------------------------------------------------
 Warning -- This program may not be used in any manner that
 competes with the business of Gaussian, Inc. or will provide
 assistance to any competitor of Gaussian, Inc.  The licensee
 of this program is prohibited from giving any competitor of
 Gaussian, Inc. access to this program.  By using this program,
 the user acknowledges that Gaussian, Inc. is engaged in the
 business of creating and licensing software in the field of
 computational chemistry and represents and warrants to the
 licensee that it is not a competitor of Gaussian, Inc. and that
 it will not use this program in any manner prohibited above.
 ---------------------------------------------------------------
  

 Cite this work as:
 Gaussian 16, Revision C.01,
 M. J. Frisch, G. W. Trucks, H. B. Schlegel, G. E. Scuseria, 
 M. A. Robb, J. R. Cheeseman, G. Scalmani, V. Barone, 
 G. A. Petersson, H. Nakatsuji, X. Li, M. Caricato, A. V. Marenich, 
 J. Bloino, B. G. Janesko, R. Gomperts, B. Mennucci, H. P. Hratchian, 
 J. V. Ortiz, A. F. Izmaylov, J. L. Sonnenberg, D. Williams-Young, 
 F. Ding, F. Lipparini, F. Egidi, J. Goings, B. Peng, A. Petrone, 
 T. Henderson, D. Ranasinghe, V. G. Zakrzewski, J. Gao, N. Rega, 
 G. Zheng, W. Liang, M. Hada, M. Ehara, K. Toyota, R. Fukuda, 
 J. Hasegawa, M. Ishida, T. Nakajima, Y. Honda, O. Kitao, H. Nakai, 
 T. Vreven, K. Throssell, J. A. Montgomery, Jr., J. E. Peralta, 
 F. Ogliaro, M. J. Bearpark, J. J. Heyd, E. N. Brothers, K. N. Kudin, 
 V. N. Staroverov, T. A. Keith, R. Kobayashi, J. Normand, 
 K. Raghavachari, A. P. Rendell, J. C. Burant, S. S. Iyengar, 
 J. Tomasi, M. Cossi, J. M. Millam, M. Klene, C. Adamo, R. Cammi, 
 J. W. Ochterski, R. L. Martin, K. Morokuma, O. Farkas, 
 J. B. Foresman, and D. J. Fox, Gaussian, Inc., Wallingford CT, 2019.
 
 ******************************************
 Gaussian 16:  ES64L-G16RevC.01  3-Jul-2019
                13-Dec-2022 
 ******************************************
 %nprocshared=46
 Will use up to   46 processors via shared memory.
 %mem=100GB
 ---------------------------------------
 # opt freq b3lyp/gen nosymm pseudo=read
 ---------------------------------------
 1/18=20,19=15,26=3,38=1/1,3;
 2/9=110,12=2,15=1,17=6,18=5,40=1/2;
 3/5=7,11=2,16=1,17=8,25=1,30=1,71=1,74=-5/1,2,3;
 4//1;
 5/5=2,38=5/2;
 6/7=2,8=2,9=2,10=2,28=1/1;
 7/30=1/1,2,3,16;
 1/18=20,19=15,26=3/3(2);
 2/9=110,15=1/2;
 99//99;
 2/9=110,15=1/2;
 3/5=7,6=1,11=2,16=1,17=8,25=1,30=1,71=1,74=-5,82=7/1,2,3;
 4/5=5,16=3,69=1/1;
 5/5=2,38=5/2;
 7/30=1/1,2,3,16;
 1/18=20,19=15,26=3/3(-5);
 2/9=110,15=1/2;
 6/7=2,8=2,9=2,10=2,19=2,28=1/1;
 99/9=1/99;
 -------------------
 Title Card Required
 -------------------
 Symbolic Z-matrix:
 Charge =  0 Multiplicity = 1
 42                    0.3611    1.8453    12.30882 
 16                    1.20539   3.97905   11.94393 
 16                   -1.70657   2.36182   13.33054 
 16                   -0.48689   0.95676   10.26068 
 16                    2.24998   0.28322   11.6526 
 42                   -2.16431   2.45713   11.03059 
 16                   -3.28246   1.62462   8.93193 
 16                   -1.55468   4.66242   10.59882 
 42                    0.28015   3.23909   9.7296 
 16                   -0.58972   2.6521    7.44963 
 16                    2.33658   1.98901   8.93806 
 42                    2.92345   2.64645   11.14523 
 42                   -2.31689   3.92909   8.52384 
 16                    4.30707   2.74849   13.22173 
 16                    4.54742   4.29118   10.43371 
 16                   -4.57216   4.95716   8.74572 
 16                   -1.79375   6.0963    7.53254 
 42                   -4.9454    2.97714   9.7427 
 16                   -6.89146   2.23921   9.35069 
 16                   -4.48957   3.13537   11.90981 
 42                    2.9589    1.01704   13.70423 
 16                    3.9693   -0.49098   14.79703 
 16                    1.11166   1.74159   14.72582 
 42                    0.06712   4.86912   7.19663 
 16                    0.58513   5.75864   5.13841 
 16                    1.18175   5.58908   9.17 
 42                    3.04011   4.25318   8.70802 
 16                    2.45116   3.82039   6.42976 
 16                    4.51869   5.71495   7.58324 
 42                    2.985     6.20631   5.74326 
 16                    4.11063   6.17267   3.96181 
 16                    2.59511   8.2415    6.29543 
 

 GradGradGradGradGradGradGradGradGradGradGradGradGradGradGradGradGradGrad
 Berny optimization.
 Initialization pass.
                           ----------------------------
                           !    Initial Parameters    !
                           ! (Angstroms and Degrees)  !
 --------------------------                            --------------------------
 ! Name  Definition              Value          Derivative Info.                !
 --------------------------------------------------------------------------------
 ! R1    R(1,2)                  2.3235         estimate D2E/DX2                !
 ! R2    R(1,3)                  2.3635         estimate D2E/DX2                !
 ! R3    R(1,4)                  2.3882         estimate D2E/DX2                !
 ! R4    R(1,5)                  2.5374         estimate D2E/DX2                !
 ! R5    R(1,6)                  2.8958         estimate D2E/DX2                !
 ! R6    R(1,9)                  2.9328         estimate D2E/DX2                !
 ! R7    R(1,12)                 2.926          estimate D2E/DX2                !
 ! R8    R(1,21)                 3.063          estimate D2E/DX2                !
 ! R9    R(1,23)                 2.533          estimate D2E/DX2                !
 ! R10   R(2,9)                  2.5114         estimate D2E/DX2                !
 ! R11   R(2,12)                 2.3163         estimate D2E/DX2                !
 ! R12   R(3,6)                  2.347          estimate D2E/DX2                !
 ! R13   R(4,6)                  2.3786         estimate D2E/DX2                !
 ! R14   R(4,9)                  2.4656         estimate D2E/DX2                !
 ! R15   R(5,12)                 2.5092         estimate D2E/DX2                !
 ! R16   R(5,21)                 2.2913         estimate D2E/DX2                !
 ! R17   R(6,7)                  2.5195         estimate D2E/DX2                !
 ! R18   R(6,8)                  2.3284         estimate D2E/DX2                !
 ! R19   R(6,9)                  2.8774         estimate D2E/DX2                !
 ! R20   R(6,13)                 2.911          estimate D2E/DX2                !
 ! R21   R(6,18)                 3.1086         estimate D2E/DX2                !
 ! R22   R(6,20)                 2.5768         estimate D2E/DX2                !
 ! R23   R(7,13)                 2.5317         estimate D2E/DX2                !
 ! R24   R(7,18)                 2.2917         estimate D2E/DX2                !
 ! R25   R(8,9)                  2.4795         estimate D2E/DX2                !
 ! R26   R(8,13)                 2.329          estimate D2E/DX2                !
 ! R27   R(9,10)                 2.5099         estimate D2E/DX2                !
 ! R28   R(9,11)                 2.5334         estimate D2E/DX2                !
 ! R29   R(9,12)                 3.0565         estimate D2E/DX2                !
 ! R30   R(9,13)                 2.9453         estimate D2E/DX2                !
 ! R31   R(9,24)                 3.0197         estimate D2E/DX2                !
 ! R32   R(9,26)                 2.5785         estimate D2E/DX2                !
 ! R33   R(9,27)                 3.1128         estimate D2E/DX2                !
 ! R34   R(10,13)                2.4016         estimate D2E/DX2                !
 ! R35   R(10,24)                2.3261         estimate D2E/DX2                !
 ! R36   R(11,12)                2.3766         estimate D2E/DX2                !
 ! R37   R(11,27)                2.3821         estimate D2E/DX2                !
 ! R38   R(12,14)                2.4973         estimate D2E/DX2                !
 ! R39   R(12,15)                2.4184         estimate D2E/DX2                !
 ! R40   R(12,21)                3.0339         estimate D2E/DX2                !
 ! R41   R(12,27)                2.9215         estimate D2E/DX2                !
 ! R42   R(13,16)                2.4884         estimate D2E/DX2                !
 ! R43   R(13,17)                2.4399         estimate D2E/DX2                !
 ! R44   R(13,18)                3.0497         estimate D2E/DX2                !
 ! R45   R(13,24)                2.8859         estimate D2E/DX2                !
 ! R46   R(14,21)                2.2468         estimate D2E/DX2                !
 ! R47   R(15,27)                2.2916         estimate D2E/DX2                !
 ! R48   R(16,18)                2.2481         estimate D2E/DX2                !
 ! R49   R(17,24)                2.2542         estimate D2E/DX2                !
 ! R50   R(18,19)                2.1179         estimate D2E/DX2                !
 ! R51   R(18,20)                2.2202         estimate D2E/DX2                !
 ! R52   R(21,22)                2.1188         estimate D2E/DX2                !
 ! R53   R(21,23)                2.2318         estimate D2E/DX2                !
 ! R54   R(24,25)                2.3013         estimate D2E/DX2                !
 ! R55   R(24,26)                2.378          estimate D2E/DX2                !
 ! R56   R(24,28)                2.7151         estimate D2E/DX2                !
 ! R57   R(25,30)                2.5151         estimate D2E/DX2                !
 ! R58   R(26,27)                2.3349         estimate D2E/DX2                !
 ! R59   R(27,28)                2.3926         estimate D2E/DX2                !
 ! R60   R(27,29)                2.3639         estimate D2E/DX2                !
 ! R61   R(28,30)                2.5395         estimate D2E/DX2                !
 ! R62   R(29,30)                2.4452         estimate D2E/DX2                !
 ! R63   R(30,31)                2.1075         estimate D2E/DX2                !
 ! R64   R(30,32)                2.1445         estimate D2E/DX2                !
 ! A1    A(2,1,3)              100.6662         estimate D2E/DX2                !
 ! A2    A(2,1,4)              109.6338         estimate D2E/DX2                !
 ! A3    A(2,1,5)              104.7278         estimate D2E/DX2                !
 ! A4    A(2,1,6)               93.0695         estimate D2E/DX2                !
 ! A5    A(2,1,21)              90.6696         estimate D2E/DX2                !
 ! A6    A(2,1,23)              94.576          estimate D2E/DX2                !
 ! A7    A(3,1,4)               98.1298         estimate D2E/DX2                !
 ! A8    A(3,1,5)              153.8411         estimate D2E/DX2                !
 ! A9    A(3,1,9)              104.606          estimate D2E/DX2                !
 ! A10   A(3,1,12)             151.4259         estimate D2E/DX2                !
 ! A11   A(3,1,21)             127.1668         estimate D2E/DX2                !
 ! A12   A(3,1,23)              81.7018         estimate D2E/DX2                !
 ! A13   A(4,1,5)               79.2507         estimate D2E/DX2                !
 ! A14   A(4,1,12)              94.1157         estimate D2E/DX2                !
 ! A15   A(4,1,21)             126.2457         estimate D2E/DX2                !
 ! A16   A(4,1,23)             155.2745         estimate D2E/DX2                !
 ! A17   A(5,1,6)              131.6896         estimate D2E/DX2                !
 ! A18   A(5,1,9)               94.9149         estimate D2E/DX2                !
 ! A19   A(5,1,23)              90.0564         estimate D2E/DX2                !
 ! A20   A(6,1,12)             122.0272         estimate D2E/DX2                !
 ! A21   A(6,1,23)             133.492          estimate D2E/DX2                !
 ! A22   A(9,1,21)             123.5431         estimate D2E/DX2                !
 ! A23   A(9,1,23)             150.0887         estimate D2E/DX2                !
 ! A24   A(12,1,23)             97.538          estimate D2E/DX2                !
 ! A25   A(1,6,7)              133.2276         estimate D2E/DX2                !
 ! A26   A(1,6,8)               93.074          estimate D2E/DX2                !
 ! A27   A(1,6,13)             122.1848         estimate D2E/DX2                !
 ! A28   A(1,6,20)             133.7851         estimate D2E/DX2                !
 ! A29   A(3,6,4)               98.8613         estimate D2E/DX2                !
 ! A30   A(3,6,7)              152.8005         estimate D2E/DX2                !
 ! A31   A(3,6,8)               99.7367         estimate D2E/DX2                !
 ! A32   A(3,6,9)              106.7639         estimate D2E/DX2                !
 ! A33   A(3,6,13)             151.0017         estimate D2E/DX2                !
 ! A34   A(3,6,18)             125.9635         estimate D2E/DX2                !
 ! A35   A(3,6,20)              81.5072         estimate D2E/DX2                !
 ! A36   A(4,6,7)               80.4984         estimate D2E/DX2                !
 ! A37   A(4,6,8)              110.6565         estimate D2E/DX2                !
 ! A38   A(4,6,13)              94.4269         estimate D2E/DX2                !
 ! A39   A(4,6,18)             127.0372         estimate D2E/DX2                !
 ! A40   A(4,6,20)             155.9031         estimate D2E/DX2                !
 ! A41   A(7,6,8)              105.9437         estimate D2E/DX2                !
 ! A42   A(7,6,9)               95.1751         estimate D2E/DX2                !
 ! A43   A(7,6,20)              88.3217         estimate D2E/DX2                !
 ! A44   A(8,6,18)              89.9412         estimate D2E/DX2                !
 ! A45   A(8,6,20)              92.88           estimate D2E/DX2                !
 ! A46   A(9,6,18)             121.8194         estimate D2E/DX2                !
 ! A47   A(9,6,20)             148.1414         estimate D2E/DX2                !
 ! A48   A(13,6,20)             96.5132         estimate D2E/DX2                !
 ! A49   A(1,9,8)               89.1367         estimate D2E/DX2                !
 ! A50   A(1,9,10)             134.2102         estimate D2E/DX2                !
 ! A51   A(1,9,11)              91.0237         estimate D2E/DX2                !
 ! A52   A(1,9,13)             119.7161         estimate D2E/DX2                !
 ! A53   A(1,9,26)             127.9034         estimate D2E/DX2                !
 ! A54   A(1,9,27)             114.7694         estimate D2E/DX2                !
 ! A55   A(2,9,4)              101.3871         estimate D2E/DX2                !
 ! A56   A(2,9,6)               89.679          estimate D2E/DX2                !
 ! A57   A(2,9,8)               78.1351         estimate D2E/DX2                !
 ! A58   A(2,9,11)              96.9969         estimate D2E/DX2                !
 ! A59   A(2,9,13)             128.0833         estimate D2E/DX2                !
 ! A60   A(2,9,24)             127.3408         estimate D2E/DX2                !
 ! A61   A(2,9,26)              78.1116         estimate D2E/DX2                !
 ! A62   A(2,9,27)              82.3405         estimate D2E/DX2                !
 ! A63   A(4,9,8)              103.0407         estimate D2E/DX2                !
 ! A64   A(4,9,10)              82.6092         estimate D2E/DX2                !
 ! A65   A(4,9,11)              82.1297         estimate D2E/DX2                !
 ! A66   A(4,9,12)              89.4153         estimate D2E/DX2                !
 ! A67   A(4,9,13)              91.761          estimate D2E/DX2                !
 ! A68   A(4,9,24)             131.1784         estimate D2E/DX2                !
 ! A69   A(4,9,27)             130.3972         estimate D2E/DX2                !
 ! A70   A(6,9,10)              93.0231         estimate D2E/DX2                !
 ! A71   A(6,9,11)             134.168          estimate D2E/DX2                !
 ! A72   A(6,9,12)             118.2021         estimate D2E/DX2                !
 ! A73   A(6,9,24)             117.7772         estimate D2E/DX2                !
 ! A74   A(6,9,26)             130.0054         estimate D2E/DX2                !
 ! A75   A(8,9,10)             101.3168         estimate D2E/DX2                !
 ! A76   A(8,9,12)             126.0784         estimate D2E/DX2                !
 ! A77   A(8,9,24)              86.1            estimate D2E/DX2                !
 ! A78   A(8,9,26)              79.1441         estimate D2E/DX2                !
 ! A79   A(8,9,27)             125.7434         estimate D2E/DX2                !
 ! A80   A(10,9,11)             83.2294         estimate D2E/DX2                !
 ! A81   A(10,9,12)            132.4623         estimate D2E/DX2                !
 ! A82   A(10,9,26)             97.8851         estimate D2E/DX2                !
 ! A83   A(10,9,27)             94.8968         estimate D2E/DX2                !
 ! A84   A(11,9,13)            134.7042         estimate D2E/DX2                !
 ! A85   A(11,9,24)             93.5284         estimate D2E/DX2                !
 ! A86   A(11,9,26)             95.6281         estimate D2E/DX2                !
 ! A87   A(12,9,24)            123.6543         estimate D2E/DX2                !
 ! A88   A(12,9,26)             88.5581         estimate D2E/DX2                !
 ! A89   A(13,9,26)             90.3413         estimate D2E/DX2                !
 ! A90   A(13,9,27)            124.8299         estimate D2E/DX2                !
 ! A91   A(24,9,27)             67.1324         estimate D2E/DX2                !
 ! A92   A(1,12,11)             94.4353         estimate D2E/DX2                !
 ! A93   A(1,12,14)             99.5388         estimate D2E/DX2                !
 ! A94   A(1,12,15)            153.032          estimate D2E/DX2                !
 ! A95   A(1,12,27)            121.1514         estimate D2E/DX2                !
 ! A96   A(2,12,5)             105.8456         estimate D2E/DX2                !
 ! A97   A(2,12,11)            107.2305         estimate D2E/DX2                !
 ! A98   A(2,12,14)             95.781          estimate D2E/DX2                !
 ! A99   A(2,12,15)            102.0196         estimate D2E/DX2                !
 ! A100  A(2,12,21)             91.5364         estimate D2E/DX2                !
 ! A101  A(2,12,27)             90.0496         estimate D2E/DX2                !
 ! A102  A(5,12,9)              92.5305         estimate D2E/DX2                !
 ! A103  A(5,12,11)             82.0084         estimate D2E/DX2                !
 ! A104  A(5,12,14)             91.0923         estimate D2E/DX2                !
 ! A105  A(5,12,15)            151.6745         estimate D2E/DX2                !
 ! A106  A(5,12,27)            134.2179         estimate D2E/DX2                !
 ! A107  A(9,12,14)            148.9061         estimate D2E/DX2                !
 ! A108  A(9,12,15)            108.2155         estimate D2E/DX2                !
 ! A109  A(9,12,21)            120.3241         estimate D2E/DX2                !
 ! A110  A(11,12,14)           156.9735         estimate D2E/DX2                !
 ! A111  A(11,12,15)            94.6296         estimate D2E/DX2                !
 ! A112  A(11,12,21)           129.6167         estimate D2E/DX2                !
 ! A113  A(14,12,15)            81.0717         estimate D2E/DX2                !
 ! A114  A(14,12,27)           130.4704         estimate D2E/DX2                !
 ! A115  A(15,12,21)           127.2691         estimate D2E/DX2                !
 ! A116  A(6,13,10)             94.5085         estimate D2E/DX2                !
 ! A117  A(6,13,16)            100.3481         estimate D2E/DX2                !
 ! A118  A(6,13,17)            141.978          estimate D2E/DX2                !
 ! A119  A(6,13,24)            121.1604         estimate D2E/DX2                !
 ! A120  A(7,13,8)             105.5342         estimate D2E/DX2                !
 ! A121  A(7,13,9)              93.2709         estimate D2E/DX2                !
 ! A122  A(7,13,10)             82.09           estimate D2E/DX2                !
 ! A123  A(7,13,16)             90.9185         estimate D2E/DX2                !
 ! A124  A(7,13,17)            162.8977         estimate D2E/DX2                !
 ! A125  A(7,13,24)            133.2894         estimate D2E/DX2                !
 ! A126  A(8,13,10)            109.3026         estimate D2E/DX2                !
 ! A127  A(8,13,16)             94.9959         estimate D2E/DX2                !
 ! A128  A(8,13,17)             90.6948         estimate D2E/DX2                !
 ! A129  A(8,13,18)             91.3914         estimate D2E/DX2                !
 ! A130  A(8,13,24)             92.1099         estimate D2E/DX2                !
 ! A131  A(9,13,16)            149.2523         estimate D2E/DX2                !
 ! A132  A(9,13,17)            100.6822         estimate D2E/DX2                !
 ! A133  A(9,13,18)            121.5494         estimate D2E/DX2                !
 ! A134  A(10,13,16)           155.6905         estimate D2E/DX2                !
 ! A135  A(10,13,17)            97.838          estimate D2E/DX2                !
 ! A136  A(10,13,18)           129.2442         estimate D2E/DX2                !
 ! A137  A(16,13,17)            82.1595         estimate D2E/DX2                !
 ! A138  A(16,13,24)           130.9277         estimate D2E/DX2                !
 ! A139  A(17,13,18)           128.6402         estimate D2E/DX2                !
 ! A140  A(6,18,16)            100.5176         estimate D2E/DX2                !
 ! A141  A(6,18,19)            147.1886         estimate D2E/DX2                !
 ! A142  A(7,18,16)            104.0306         estimate D2E/DX2                !
 ! A143  A(7,18,19)            113.3061         estimate D2E/DX2                !
 ! A144  A(7,18,20)            103.7924         estimate D2E/DX2                !
 ! A145  A(13,18,19)           145.7662         estimate D2E/DX2                !
 ! A146  A(13,18,20)           101.0057         estimate D2E/DX2                !
 ! A147  A(16,18,19)           112.1703         estimate D2E/DX2                !
 ! A148  A(16,18,20)           109.635          estimate D2E/DX2                !
 ! A149  A(19,18,20)           113.2134         estimate D2E/DX2                !
 ! A150  A(1,21,14)            101.6941         estimate D2E/DX2                !
 ! A151  A(1,21,22)            146.2931         estimate D2E/DX2                !
 ! A152  A(5,21,14)            103.8961         estimate D2E/DX2                !
 ! A153  A(5,21,22)            112.4211         estimate D2E/DX2                !
 ! A154  A(5,21,23)            104.9363         estimate D2E/DX2                !
 ! A155  A(12,21,22)           145.3713         estimate D2E/DX2                !
 ! A156  A(12,21,23)           101.6574         estimate D2E/DX2                !
 ! A157  A(14,21,22)           111.9069         estimate D2E/DX2                !
 ! A158  A(14,21,23)           110.167          estimate D2E/DX2                !
 ! A159  A(22,21,23)           112.9347         estimate D2E/DX2                !
 ! A160  A(9,24,17)            103.1269         estimate D2E/DX2                !
 ! A161  A(9,24,25)            160.5628         estimate D2E/DX2                !
 ! A162  A(9,24,28)             88.0788         estimate D2E/DX2                !
 ! A163  A(10,24,17)           105.6378         estimate D2E/DX2                !
 ! A164  A(10,24,25)           121.9552         estimate D2E/DX2                !
 ! A165  A(10,24,26)           109.3091         estimate D2E/DX2                !
 ! A166  A(10,24,28)            84.8663         estimate D2E/DX2                !
 ! A167  A(13,24,25)           136.3168         estimate D2E/DX2                !
 ! A168  A(13,24,26)            95.9804         estimate D2E/DX2                !
 ! A169  A(13,24,28)           136.8396         estimate D2E/DX2                !
 ! A170  A(17,24,25)            96.2383         estimate D2E/DX2                !
 ! A171  A(17,24,26)            95.6503         estimate D2E/DX2                !
 ! A172  A(25,24,26)           121.3093         estimate D2E/DX2                !
 ! A173  A(25,24,28)            72.4841         estimate D2E/DX2                !
 ! A174  A(26,24,28)            86.5462         estimate D2E/DX2                !
 ! A175  A(24,25,30)            93.9278         estimate D2E/DX2                !
 ! A176  A(24,26,27)            92.0431         estimate D2E/DX2                !
 ! A177  A(9,27,15)            109.9657         estimate D2E/DX2                !
 ! A178  A(9,27,28)             92.024          estimate D2E/DX2                !
 ! A179  A(9,27,29)            155.8105         estimate D2E/DX2                !
 ! A180  A(11,27,15)            97.8915         estimate D2E/DX2                !
 ! A181  A(11,27,26)           106.8374         estimate D2E/DX2                !
 ! A182  A(11,27,28)            81.2179         estimate D2E/DX2                !
 ! A183  A(11,27,29)           144.9286         estimate D2E/DX2                !
 ! A184  A(12,27,26)            96.7664         estimate D2E/DX2                !
 ! A185  A(12,27,28)           133.2391         estimate D2E/DX2                !
 ! A186  A(12,27,29)           139.6404         estimate D2E/DX2                !
 ! A187  A(15,27,26)           111.4096         estimate D2E/DX2                !
 ! A188  A(15,27,28)           151.8802         estimate D2E/DX2                !
 ! A189  A(15,27,29)            86.3677         estimate D2E/DX2                !
 ! A190  A(26,27,28)            95.5078         estimate D2E/DX2                !
 ! A191  A(26,27,29)           103.7789         estimate D2E/DX2                !
 ! A192  A(28,27,29)            79.2076         estimate D2E/DX2                !
 ! A193  A(24,28,27)            82.9532         estimate D2E/DX2                !
 ! A194  A(24,28,30)            84.1477         estimate D2E/DX2                !
 ! A195  A(27,28,30)            92.0468         estimate D2E/DX2                !
 ! A196  A(27,29,30)            95.1628         estimate D2E/DX2                !
 ! A197  A(25,30,28)            72.3736         estimate D2E/DX2                !
 ! A198  A(25,30,29)           138.0457         estimate D2E/DX2                !
 ! A199  A(25,30,31)           107.6686         estimate D2E/DX2                !
 ! A200  A(25,30,32)            93.2885         estimate D2E/DX2                !
 ! A201  A(28,30,29)            74.9083         estimate D2E/DX2                !
 ! A202  A(28,30,31)           109.0129         estimate D2E/DX2                !
 ! A203  A(28,30,32)           141.6116         estimate D2E/DX2                !
 ! A204  A(29,30,31)           107.3283         estimate D2E/DX2                !
 ! A205  A(29,30,32)            96.3723         estimate D2E/DX2                !
 ! A206  A(31,30,32)           109.2625         estimate D2E/DX2                !
 ! A207  L(6,1,21,2,-1)        183.7391         estimate D2E/DX2                !
 ! A208  L(1,6,18,8,-1)        183.0152         estimate D2E/DX2                !
 ! A209  L(1,9,24,8,-1)        175.2368         estimate D2E/DX2                !
 ! A210  L(2,9,10,4,-1)        183.9963         estimate D2E/DX2                !
 ! A211  L(4,9,26,2,-1)        179.4987         estimate D2E/DX2                !
 ! A212  L(6,9,27,2,-1)        172.0195         estimate D2E/DX2                !
 ! A213  L(8,9,11,1,-1)        180.1604         estimate D2E/DX2                !
 ! A214  L(12,9,13,26,-1)      178.8994         estimate D2E/DX2                !
 ! A215  L(21,12,27,2,-1)      181.586          estimate D2E/DX2                !
 ! A216  L(18,13,24,8,-1)      183.5013         estimate D2E/DX2                !
 ! A217  L(17,24,28,9,-1)      191.2056         estimate D2E/DX2                !
 ! A218  L(6,1,21,2,-2)        179.7837         estimate D2E/DX2                !
 ! A219  L(1,6,18,8,-2)        181.1608         estimate D2E/DX2                !
 ! A220  L(1,9,24,8,-2)        178.4233         estimate D2E/DX2                !
 ! A221  L(2,9,10,4,-2)        180.2578         estimate D2E/DX2                !
 ! A222  L(4,9,26,2,-2)        177.6471         estimate D2E/DX2                !
 ! A223  L(6,9,27,2,-2)        180.9836         estimate D2E/DX2                !
 ! A224  L(8,9,11,1,-2)        186.5591         estimate D2E/DX2                !
 ! A225  L(12,9,13,26,-2)      183.8192         estimate D2E/DX2                !
 ! A226  L(21,12,27,2,-2)      177.3427         estimate D2E/DX2                !
 ! A227  L(18,13,24,8,-2)      182.1145         estimate D2E/DX2                !
 ! A228  L(17,24,28,9,-2)      185.0136         estimate D2E/DX2                !
 ! D1    D(2,1,6,7)            114.1101         estimate D2E/DX2                !
 ! D2    D(2,1,6,8)             -1.2316         estimate D2E/DX2                !
 ! D3    D(2,1,6,13)            43.8889         estimate D2E/DX2                !
 ! D4    D(2,1,6,20)           -98.1912         estimate D2E/DX2                !
 ! D5    D(5,1,6,7)              1.2371         estimate D2E/DX2                !
 ! D6    D(5,1,6,8)           -114.1046         estimate D2E/DX2                !
 ! D7    D(5,1,6,13)           -68.9841         estimate D2E/DX2                !
 ! D8    D(5,1,6,20)           148.9358         estimate D2E/DX2                !
 ! D9    D(12,1,6,7)            69.5979         estimate D2E/DX2                !
 ! D10   D(12,1,6,8)           -45.7439         estimate D2E/DX2                !
 ! D11   D(12,1,6,13)           -0.6234         estimate D2E/DX2                !
 ! D12   D(12,1,6,20)         -142.7035         estimate D2E/DX2                !
 ! D13   D(23,1,6,7)          -146.6247         estimate D2E/DX2                !
 ! D14   D(23,1,6,8)            98.0335         estimate D2E/DX2                !
 ! D15   D(23,1,6,13)          143.154          estimate D2E/DX2                !
 ! D16   D(23,1,6,20)            1.0739         estimate D2E/DX2                !
 ! D17   D(3,1,9,8)             17.9304         estimate D2E/DX2                !
 ! D18   D(3,1,9,10)           -87.0888         estimate D2E/DX2                !
 ! D19   D(3,1,9,11)          -168.6287         estimate D2E/DX2                !
 ! D20   D(3,1,9,13)           -23.5148         estimate D2E/DX2                !
 ! D21   D(3,1,9,26)            93.4262         estimate D2E/DX2                !
 ! D22   D(3,1,9,27)           147.459          estimate D2E/DX2                !
 ! D23   D(5,1,9,8)           -179.6332         estimate D2E/DX2                !
 ! D24   D(5,1,9,10)            75.3477         estimate D2E/DX2                !
 ! D25   D(5,1,9,11)            -6.1923         estimate D2E/DX2                !
 ! D26   D(5,1,9,13)           138.9217         estimate D2E/DX2                !
 ! D27   D(5,1,9,26)          -104.1373         estimate D2E/DX2                !
 ! D28   D(5,1,9,27)           -50.1046         estimate D2E/DX2                !
 ! D29   D(21,1,9,8)          -139.2628         estimate D2E/DX2                !
 ! D30   D(21,1,9,10)          115.7181         estimate D2E/DX2                !
 ! D31   D(21,1,9,11)           34.1781         estimate D2E/DX2                !
 ! D32   D(21,1,9,13)          179.2921         estimate D2E/DX2                !
 ! D33   D(21,1,9,26)          -63.7669         estimate D2E/DX2                !
 ! D34   D(21,1,9,27)           -9.7342         estimate D2E/DX2                !
 ! D35   D(23,1,9,8)           -80.9217         estimate D2E/DX2                !
 ! D36   D(23,1,9,10)          174.0591         estimate D2E/DX2                !
 ! D37   D(23,1,9,11)           92.5191         estimate D2E/DX2                !
 ! D38   D(23,1,9,13)         -122.3669         estimate D2E/DX2                !
 ! D39   D(23,1,9,26)           -5.4259         estimate D2E/DX2                !
 ! D40   D(23,1,9,27)           48.6068         estimate D2E/DX2                !
 ! D41   D(3,1,12,11)         -111.9164         estimate D2E/DX2                !
 ! D42   D(3,1,12,14)           86.4493         estimate D2E/DX2                !
 ! D43   D(3,1,12,15)           -2.5893         estimate D2E/DX2                !
 ! D44   D(3,1,12,27)          -64.0816         estimate D2E/DX2                !
 ! D45   D(4,1,12,11)            3.4593         estimate D2E/DX2                !
 ! D46   D(4,1,12,14)         -158.175          estimate D2E/DX2                !
 ! D47   D(4,1,12,15)          112.7863         estimate D2E/DX2                !
 ! D48   D(4,1,12,27)           51.294          estimate D2E/DX2                !
 ! D49   D(6,1,12,11)          -44.0176         estimate D2E/DX2                !
 ! D50   D(6,1,12,14)          154.3481         estimate D2E/DX2                !
 ! D51   D(6,1,12,15)           65.3094         estimate D2E/DX2                !
 ! D52   D(6,1,12,27)            3.8171         estimate D2E/DX2                !
 ! D53   D(23,1,12,11)         161.6046         estimate D2E/DX2                !
 ! D54   D(23,1,12,14)          -0.0298         estimate D2E/DX2                !
 ! D55   D(23,1,12,15)         -89.0684         estimate D2E/DX2                !
 ! D56   D(23,1,12,27)        -150.5607         estimate D2E/DX2                !
 ! D57   D(2,1,21,14)          -10.8129         estimate D2E/DX2                !
 ! D58   D(2,1,21,22)          173.7395         estimate D2E/DX2                !
 ! D59   D(3,1,21,14)         -114.7668         estimate D2E/DX2                !
 ! D60   D(3,1,21,22)           69.7856         estimate D2E/DX2                !
 ! D61   D(4,1,21,14)          104.3521         estimate D2E/DX2                !
 ! D62   D(4,1,21,22)          -71.0956         estimate D2E/DX2                !
 ! D63   D(9,1,21,14)           37.1529         estimate D2E/DX2                !
 ! D64   D(9,1,21,22)         -138.2947         estimate D2E/DX2                !
 ! D65   D(1,2,9,12)           -80.7765         estimate D2E/DX2                !
 ! D66   D(1,4,6,9)             77.9241         estimate D2E/DX2                !
 ! D67   D(1,5,12,21)           81.8163         estimate D2E/DX2                !
 ! D68   D(3,6,9,2)            -15.5747         estimate D2E/DX2                !
 ! D69   D(3,6,9,10)           167.382          estimate D2E/DX2                !
 ! D70   D(3,6,9,11)            83.8869         estimate D2E/DX2                !
 ! D71   D(3,6,9,12)            24.6858         estimate D2E/DX2                !
 ! D72   D(3,6,9,24)          -148.6229         estimate D2E/DX2                !
 ! D73   D(3,6,9,26)           -89.6932         estimate D2E/DX2                !
 ! D74   D(7,6,9,2)           -179.3107         estimate D2E/DX2                !
 ! D75   D(7,6,9,10)             3.6461         estimate D2E/DX2                !
 ! D76   D(7,6,9,11)           -79.8491         estimate D2E/DX2                !
 ! D77   D(7,6,9,12)          -139.0501         estimate D2E/DX2                !
 ! D78   D(7,6,9,24)            47.6412         estimate D2E/DX2                !
 ! D79   D(7,6,9,26)           106.5709         estimate D2E/DX2                !
 ! D80   D(18,6,9,2)           139.7554         estimate D2E/DX2                !
 ! D81   D(18,6,9,10)          -37.2879         estimate D2E/DX2                !
 ! D82   D(18,6,9,11)         -120.783          estimate D2E/DX2                !
 ! D83   D(18,6,9,12)         -179.9841         estimate D2E/DX2                !
 ! D84   D(18,6,9,24)            6.7072         estimate D2E/DX2                !
 ! D85   D(18,6,9,26)           65.6369         estimate D2E/DX2                !
 ! D86   D(20,6,9,2)            85.5244         estimate D2E/DX2                !
 ! D87   D(20,6,9,10)          -91.5188         estimate D2E/DX2                !
 ! D88   D(20,6,9,11)         -175.0139         estimate D2E/DX2                !
 ! D89   D(20,6,9,12)          125.785          estimate D2E/DX2                !
 ! D90   D(20,6,9,24)          -47.5237         estimate D2E/DX2                !
 ! D91   D(20,6,9,26)           11.406          estimate D2E/DX2                !
 ! D92   D(1,6,13,10)           46.2016         estimate D2E/DX2                !
 ! D93   D(1,6,13,16)         -153.1199         estimate D2E/DX2                !
 ! D94   D(1,6,13,17)          -62.6386         estimate D2E/DX2                !
 ! D95   D(1,6,13,24)           -0.4183         estimate D2E/DX2                !
 ! D96   D(3,6,13,10)          115.4546         estimate D2E/DX2                !
 ! D97   D(3,6,13,16)          -83.8669         estimate D2E/DX2                !
 ! D98   D(3,6,13,17)            6.6144         estimate D2E/DX2                !
 ! D99   D(3,6,13,24)           68.8347         estimate D2E/DX2                !
 ! D100  D(4,6,13,10)           -1.8282         estimate D2E/DX2                !
 ! D101  D(4,6,13,16)          158.8503         estimate D2E/DX2                !
 ! D102  D(4,6,13,17)         -110.6684         estimate D2E/DX2                !
 ! D103  D(4,6,13,24)          -48.4481         estimate D2E/DX2                !
 ! D104  D(20,6,13,10)        -160.3215         estimate D2E/DX2                !
 ! D105  D(20,6,13,16)           0.357          estimate D2E/DX2                !
 ! D106  D(20,6,13,17)          90.8383         estimate D2E/DX2                !
 ! D107  D(20,6,13,24)         153.0586         estimate D2E/DX2                !
 ! D108  D(3,6,18,16)          114.5613         estimate D2E/DX2                !
 ! D109  D(3,6,18,19)          -70.399          estimate D2E/DX2                !
 ! D110  D(4,6,18,16)         -103.6332         estimate D2E/DX2                !
 ! D111  D(4,6,18,19)           71.4066         estimate D2E/DX2                !
 ! D112  D(8,6,18,16)           12.5442         estimate D2E/DX2                !
 ! D113  D(8,6,18,19)         -172.4161         estimate D2E/DX2                !
 ! D114  D(9,6,18,16)          -35.8502         estimate D2E/DX2                !
 ! D115  D(9,6,18,19)          139.1895         estimate D2E/DX2                !
 ! D116  D(6,7,13,18)          -83.815          estimate D2E/DX2                !
 ! D117  D(6,8,9,13)            80.8717         estimate D2E/DX2                !
 ! D118  D(4,9,12,5)             1.9056         estimate D2E/DX2                !
 ! D119  D(4,9,12,14)          -94.4227         estimate D2E/DX2                !
 ! D120  D(4,9,12,15)          162.3221         estimate D2E/DX2                !
 ! D121  D(4,9,12,21)          -39.0804         estimate D2E/DX2                !
 ! D122  D(6,9,12,5)            47.3711         estimate D2E/DX2                !
 ! D123  D(6,9,12,14)          -48.9572         estimate D2E/DX2                !
 ! D124  D(6,9,12,15)         -152.2124         estimate D2E/DX2                !
 ! D125  D(6,9,12,21)            6.3851         estimate D2E/DX2                !
 ! D126  D(8,9,12,5)           107.675          estimate D2E/DX2                !
 ! D127  D(8,9,12,14)           11.3467         estimate D2E/DX2                !
 ! D128  D(8,9,12,15)          -91.9085         estimate D2E/DX2                !
 ! D129  D(8,9,12,21)           66.689          estimate D2E/DX2                !
 ! D130  D(10,9,12,5)          -77.508          estimate D2E/DX2                !
 ! D131  D(10,9,12,14)        -173.8362         estimate D2E/DX2                !
 ! D132  D(10,9,12,15)          82.9085         estimate D2E/DX2                !
 ! D133  D(10,9,12,21)        -118.4939         estimate D2E/DX2                !
 ! D134  D(24,9,12,5)         -139.7432         estimate D2E/DX2                !
 ! D135  D(24,9,12,14)         123.9285         estimate D2E/DX2                !
 ! D136  D(24,9,12,15)          20.6733         estimate D2E/DX2                !
 ! D137  D(24,9,12,21)         179.2708         estimate D2E/DX2                !
 ! D138  D(26,9,12,5)         -176.8881         estimate D2E/DX2                !
 ! D139  D(26,9,12,14)          86.7836         estimate D2E/DX2                !
 ! D140  D(26,9,12,15)         -16.4716         estimate D2E/DX2                !
 ! D141  D(26,9,12,21)         142.1259         estimate D2E/DX2                !
 ! D142  D(1,9,13,7)           -46.9323         estimate D2E/DX2                !
 ! D143  D(1,9,13,16)           50.3915         estimate D2E/DX2                !
 ! D144  D(1,9,13,17)          143.0028         estimate D2E/DX2                !
 ! D145  D(1,9,13,18)           -6.4797         estimate D2E/DX2                !
 ! D146  D(2,9,13,7)          -107.1252         estimate D2E/DX2                !
 ! D147  D(2,9,13,16)           -9.8015         estimate D2E/DX2                !
 ! D148  D(2,9,13,17)           82.8098         estimate D2E/DX2                !
 ! D149  D(2,9,13,18)          -66.6727         estimate D2E/DX2                !
 ! D150  D(4,9,13,7)            -1.1605         estimate D2E/DX2                !
 ! D151  D(4,9,13,16)           96.1633         estimate D2E/DX2                !
 ! D152  D(4,9,13,17)         -171.2255         estimate D2E/DX2                !
 ! D153  D(4,9,13,18)           39.2921         estimate D2E/DX2                !
 ! D154  D(11,9,13,7)           79.4979         estimate D2E/DX2                !
 ! D155  D(11,9,13,16)         176.8217         estimate D2E/DX2                !
 ! D156  D(11,9,13,17)         -90.5671         estimate D2E/DX2                !
 ! D157  D(11,9,13,18)         119.9505         estimate D2E/DX2                !
 ! D158  D(26,9,13,7)          177.7704         estimate D2E/DX2                !
 ! D159  D(26,9,13,16)         -84.9058         estimate D2E/DX2                !
 ! D160  D(26,9,13,17)           7.7054         estimate D2E/DX2                !
 ! D161  D(26,9,13,18)        -141.777          estimate D2E/DX2                !
 ! D162  D(27,9,13,7)          143.0617         estimate D2E/DX2                !
 ! D163  D(27,9,13,16)        -119.6145         estimate D2E/DX2                !
 ! D164  D(27,9,13,17)         -27.0033         estimate D2E/DX2                !
 ! D165  D(27,9,13,18)        -176.4857         estimate D2E/DX2                !
 ! D166  D(2,9,24,17)          -80.6785         estimate D2E/DX2                !
 ! D167  D(2,9,24,25)           94.2905         estimate D2E/DX2                !
 ! D168  D(2,9,24,28)           94.3078         estimate D2E/DX2                !
 ! D169  D(4,9,24,17)           95.1256         estimate D2E/DX2                !
 ! D170  D(4,9,24,25)          -89.9053         estimate D2E/DX2                !
 ! D171  D(4,9,24,28)          -89.888          estimate D2E/DX2                !
 ! D172  D(6,9,24,17)           32.5183         estimate D2E/DX2                !
 ! D173  D(6,9,24,25)         -152.5127         estimate D2E/DX2                !
 ! D174  D(6,9,24,28)         -152.4954         estimate D2E/DX2                !
 ! D175  D(8,9,24,17)           -8.8113         estimate D2E/DX2                !
 ! D176  D(8,9,24,25)          166.1577         estimate D2E/DX2                !
 ! D177  D(8,9,24,28)          166.1751         estimate D2E/DX2                !
 ! D178  D(11,9,24,17)         177.7522         estimate D2E/DX2                !
 ! D179  D(11,9,24,25)          -7.2788         estimate D2E/DX2                !
 ! D180  D(11,9,24,28)          -7.2614         estimate D2E/DX2                !
 ! D181  D(12,9,24,17)        -140.3955         estimate D2E/DX2                !
 ! D182  D(12,9,24,25)          34.5735         estimate D2E/DX2                !
 ! D183  D(12,9,24,28)          34.5908         estimate D2E/DX2                !
 ! D184  D(27,9,24,17)        -140.4328         estimate D2E/DX2                !
 ! D185  D(27,9,24,25)          34.5362         estimate D2E/DX2                !
 ! D186  D(27,9,24,28)          34.5536         estimate D2E/DX2                !
 ! D187  D(1,9,27,15)          -17.1251         estimate D2E/DX2                !
 ! D188  D(1,9,27,28)          145.0109         estimate D2E/DX2                !
 ! D189  D(1,9,27,29)         -147.2355         estimate D2E/DX2                !
 ! D190  D(2,9,27,15)           21.6672         estimate D2E/DX2                !
 ! D191  D(2,9,27,28)         -176.1968         estimate D2E/DX2                !
 ! D192  D(2,9,27,29)         -108.4431         estimate D2E/DX2                !
 ! D193  D(4,9,27,15)          -76.7938         estimate D2E/DX2                !
 ! D194  D(4,9,27,28)           85.3422         estimate D2E/DX2                !
 ! D195  D(4,9,27,29)          153.0958         estimate D2E/DX2                !
 ! D196  D(8,9,27,15)           91.0335         estimate D2E/DX2                !
 ! D197  D(8,9,27,28)         -106.8305         estimate D2E/DX2                !
 ! D198  D(8,9,27,29)          -39.0769         estimate D2E/DX2                !
 ! D199  D(10,9,27,15)        -161.2492         estimate D2E/DX2                !
 ! D200  D(10,9,27,28)           0.8868         estimate D2E/DX2                !
 ! D201  D(10,9,27,29)          68.6404         estimate D2E/DX2                !
 ! D202  D(13,9,27,15)         153.32           estimate D2E/DX2                !
 ! D203  D(13,9,27,28)         -44.544          estimate D2E/DX2                !
 ! D204  D(13,9,27,29)          23.2096         estimate D2E/DX2                !
 ! D205  D(24,9,27,15)         157.7993         estimate D2E/DX2                !
 ! D206  D(24,9,27,28)         -40.0647         estimate D2E/DX2                !
 ! D207  D(24,9,27,29)          27.6889         estimate D2E/DX2                !
 ! D208  D(9,10,13,24)          80.6846         estimate D2E/DX2                !
 ! D209  D(9,11,12,27)         -81.2627         estimate D2E/DX2                !
 ! D210  D(2,12,21,22)        -172.5592         estimate D2E/DX2                !
 ! D211  D(2,12,21,23)          10.0733         estimate D2E/DX2                !
 ! D212  D(9,12,21,22)         139.6533         estimate D2E/DX2                !
 ! D213  D(9,12,21,23)         -37.7141         estimate D2E/DX2                !
 ! D214  D(11,12,21,22)         73.4322         estimate D2E/DX2                !
 ! D215  D(11,12,21,23)       -103.9352         estimate D2E/DX2                !
 ! D216  D(15,12,21,22)        -66.1686         estimate D2E/DX2                !
 ! D217  D(15,12,21,23)        116.464          estimate D2E/DX2                !
 ! D218  D(1,12,27,26)          36.8577         estimate D2E/DX2                !
 ! D219  D(1,12,27,28)         -67.2796         estimate D2E/DX2                !
 ! D220  D(1,12,27,29)         157.5204         estimate D2E/DX2                !
 ! D221  D(2,12,27,26)          -5.8679         estimate D2E/DX2                !
 ! D222  D(2,12,27,28)        -110.0052         estimate D2E/DX2                !
 ! D223  D(2,12,27,29)         114.7949         estimate D2E/DX2                !
 ! D224  D(5,12,27,26)         106.5788         estimate D2E/DX2                !
 ! D225  D(5,12,27,28)           2.4415         estimate D2E/DX2                !
 ! D226  D(5,12,27,29)        -132.7584         estimate D2E/DX2                !
 ! D227  D(14,12,27,26)       -103.5192         estimate D2E/DX2                !
 ! D228  D(14,12,27,28)        152.3434         estimate D2E/DX2                !
 ! D229  D(14,12,27,29)         17.1435         estimate D2E/DX2                !
 ! D230  D(8,13,18,19)         170.857          estimate D2E/DX2                !
 ! D231  D(8,13,18,20)         -10.8108         estimate D2E/DX2                !
 ! D232  D(9,13,18,19)        -140.8526         estimate D2E/DX2                !
 ! D233  D(9,13,18,20)          37.4795         estimate D2E/DX2                !
 ! D234  D(10,13,18,19)        -72.605          estimate D2E/DX2                !
 ! D235  D(10,13,18,20)        105.7272         estimate D2E/DX2                !
 ! D236  D(17,13,18,19)         78.8543         estimate D2E/DX2                !
 ! D237  D(17,13,18,20)       -102.8136         estimate D2E/DX2                !
 ! D238  D(6,13,24,25)         168.7429         estimate D2E/DX2                !
 ! D239  D(6,13,24,26)         -41.237          estimate D2E/DX2                !
 ! D240  D(6,13,24,28)          50.09           estimate D2E/DX2                !
 ! D241  D(7,13,24,25)          99.8493         estimate D2E/DX2                !
 ! D242  D(7,13,24,26)        -110.1306         estimate D2E/DX2                !
 ! D243  D(7,13,24,28)         -18.8035         estimate D2E/DX2                !
 ! D244  D(8,13,24,25)        -146.3923         estimate D2E/DX2                !
 ! D245  D(8,13,24,26)           3.6278         estimate D2E/DX2                !
 ! D246  D(8,13,24,28)          94.9548         estimate D2E/DX2                !
 ! D247  D(16,13,24,25)        -47.9228         estimate D2E/DX2                !
 ! D248  D(16,13,24,26)        102.0974         estimate D2E/DX2                !
 ! D249  D(16,13,24,28)       -166.5756         estimate D2E/DX2                !
 ! D250  D(9,24,25,30)         -44.3116         estimate D2E/DX2                !
 ! D251  D(10,24,25,30)       -116.4237         estimate D2E/DX2                !
 ! D252  D(13,24,25,30)        174.6806         estimate D2E/DX2                !
 ! D253  D(17,24,25,30)        130.76           estimate D2E/DX2                !
 ! D254  D(26,24,25,30)         30.2497         estimate D2E/DX2                !
 ! D255  D(28,24,25,30)        -44.3298         estimate D2E/DX2                !
 ! D256  D(10,24,26,27)         70.7566         estimate D2E/DX2                !
 ! D257  D(13,24,26,27)        124.1818         estimate D2E/DX2                !
 ! D258  D(17,24,26,27)        179.5213         estimate D2E/DX2                !
 ! D259  D(25,24,26,27)        -79.6436         estimate D2E/DX2                !
 ! D260  D(28,24,26,27)        -12.5745         estimate D2E/DX2                !
 ! D261  D(9,24,28,27)         -43.2413         estimate D2E/DX2                !
 ! D262  D(9,24,28,30)        -136.0411         estimate D2E/DX2                !
 ! D263  D(10,24,28,27)        -97.4035         estimate D2E/DX2                !
 ! D264  D(10,24,28,30)        169.7967         estimate D2E/DX2                !
 ! D265  D(13,24,28,27)        -82.7089         estimate D2E/DX2                !
 ! D266  D(13,24,28,30)       -175.5087         estimate D2E/DX2                !
 ! D267  D(25,24,28,27)        136.7527         estimate D2E/DX2                !
 ! D268  D(25,24,28,30)         43.9529         estimate D2E/DX2                !
 ! D269  D(26,24,28,27)         12.3529         estimate D2E/DX2                !
 ! D270  D(26,24,28,30)        -80.4469         estimate D2E/DX2                !
 ! D271  D(24,25,30,28)         48.3797         estimate D2E/DX2                !
 ! D272  D(24,25,30,29)          8.0272         estimate D2E/DX2                !
 ! D273  D(24,25,30,31)        153.3041         estimate D2E/DX2                !
 ! D274  D(24,25,30,32)        -95.282          estimate D2E/DX2                !
 ! D275  D(24,26,27,11)        -68.1244         estimate D2E/DX2                !
 ! D276  D(24,26,27,12)       -120.4444         estimate D2E/DX2                !
 ! D277  D(24,26,27,15)       -173.9516         estimate D2E/DX2                !
 ! D278  D(24,26,27,28)         14.344          estimate D2E/DX2                !
 ! D279  D(24,26,27,29)         94.5535         estimate D2E/DX2                !
 ! D280  D(9,27,28,24)          41.6529         estimate D2E/DX2                !
 ! D281  D(9,27,28,30)         125.4975         estimate D2E/DX2                !
 ! D282  D(11,27,28,24)         93.6128         estimate D2E/DX2                !
 ! D283  D(11,27,28,30)        177.4574         estimate D2E/DX2                !
 ! D284  D(12,27,28,24)         92.0435         estimate D2E/DX2                !
 ! D285  D(12,27,28,30)        175.8881         estimate D2E/DX2                !
 ! D286  D(15,27,28,24)       -176.0623         estimate D2E/DX2                !
 ! D287  D(15,27,28,30)        -92.2176         estimate D2E/DX2                !
 ! D288  D(26,27,28,24)        -12.6209         estimate D2E/DX2                !
 ! D289  D(26,27,28,30)         71.2237         estimate D2E/DX2                !
 ! D290  D(29,27,28,24)       -115.6361         estimate D2E/DX2                !
 ! D291  D(29,27,28,30)        -31.7914         estimate D2E/DX2                !
 ! D292  D(9,27,29,30)         -37.0302         estimate D2E/DX2                !
 ! D293  D(11,27,29,30)         90.4784         estimate D2E/DX2                !
 ! D294  D(12,27,29,30)       -178.2058         estimate D2E/DX2                !
 ! D295  D(15,27,29,30)       -170.9522         estimate D2E/DX2                !
 ! D296  D(26,27,29,30)        -59.7883         estimate D2E/DX2                !
 ! D297  D(28,27,29,30)         33.2991         estimate D2E/DX2                !
 ! D298  D(24,28,30,25)        -39.4537         estimate D2E/DX2                !
 ! D299  D(24,28,30,29)        113.9095         estimate D2E/DX2                !
 ! D300  D(24,28,30,31)       -142.5952         estimate D2E/DX2                !
 ! D301  D(24,28,30,32)         32.8416         estimate D2E/DX2                !
 ! D302  D(27,28,30,25)       -122.1537         estimate D2E/DX2                !
 ! D303  D(27,28,30,29)         31.2095         estimate D2E/DX2                !
 ! D304  D(27,28,30,31)        134.7048         estimate D2E/DX2                !
 ! D305  D(27,28,30,32)        -49.8584         estimate D2E/DX2                !
 ! D306  D(27,29,30,25)          7.9738         estimate D2E/DX2                !
 ! D307  D(27,29,30,28)        -31.7534         estimate D2E/DX2                !
 ! D308  D(27,29,30,31)       -137.3773         estimate D2E/DX2                !
 ! D309  D(27,29,30,32)        110.1294         estimate D2E/DX2                !
 --------------------------------------------------------------------------------
 Trust Radius=3.00D-01 FncErr=1.00D-07 GrdErr=1.00D-06 EigMax=2.50D+02 EigMin=1.00D-04
 Number of steps in this run=    192 maximum allowed number of steps=    192.
 GradGradGradGradGradGradGradGradGradGradGradGradGradGradGradGradGradGrad

                          Input orientation:                          
 ---------------------------------------------------------------------
 Center     Atomic      Atomic             Coordinates (Angstroms)
 Number     Number       Type             X           Y           Z
 ---------------------------------------------------------------------
      1         42           0        0.361098    1.845304   12.308817
      2         16           0        1.205392    3.979052   11.943926
      3         16           0       -1.706574    2.361820   13.330543
      4         16           0       -0.486891    0.956764   10.260682
      5         16           0        2.249978    0.283216   11.652602
      6         42           0       -2.164313    2.457127   11.030593
      7         16           0       -3.282460    1.624617    8.931930
      8         16           0       -1.554678    4.662415   10.598816
      9         42           0        0.280145    3.239085    9.729597
     10         16           0       -0.589721    2.652097    7.449634
     11         16           0        2.336582    1.989010    8.938059
     12         42           0        2.923449    2.646445   11.145235
     13         42           0       -2.316891    3.929093    8.523839
     14         16           0        4.307072    2.748493   13.221731
     15         16           0        4.547417    4.291181   10.433715
     16         16           0       -4.572155    4.957156    8.745715
     17         16           0       -1.793749    6.096304    7.532541
     18         42           0       -4.945395    2.977142    9.742695
     19         16           0       -6.891459    2.239212    9.350693
     20         16           0       -4.489565    3.135371   11.909812
     21         42           0        2.958903    1.017038   13.704229
     22         16           0        3.969295   -0.490980   14.797027
     23         16           0        1.111664    1.741585   14.725817
     24         42           0        0.067116    4.869117    7.196634
     25         16           0        0.585130    5.758641    5.138410
     26         16           0        1.181748    5.589079    9.169995
     27         42           0        3.040108    4.253184    8.708018
     28         16           0        2.451158    3.820388    6.429758
     29         16           0        4.518686    5.714949    7.583242
     30         42           0        2.984997    6.206313    5.743257
     31         16           0        4.110629    6.172666    3.961810
     32         16           0        2.595107    8.241504    6.295429
 ---------------------------------------------------------------------
                    Distance matrix (angstroms):
                    1          2          3          4          5
     1  Mo   0.000000
     2  S    2.323544   0.000000
     3  S    2.363468   3.608004   0.000000
     4  S    2.388189   3.851150   3.589687   0.000000
     5  S    2.537441   3.851653   4.773928   3.143495   0.000000
     6  Mo   2.895839   3.808588   2.346993   2.378570   4.959713
     7  S    4.972684   5.895447   4.730188   3.166515   6.309460
     8  S    3.811878   3.145519   3.574653   3.871221   5.896037
     9  Mo   2.932841   2.511351   4.205170   2.465641   4.039227
    10  S    5.016635   5.018157   5.993055   3.284314   5.598252
    11  S    3.909629   3.778240   5.981640   3.284336   3.207176
    12  Mo   2.925986   2.316348   5.127738   3.907413   2.509150
    13  Mo   5.083292   4.909783   5.092468   3.898752   6.628565
    14  S    4.149683   3.573161   6.027047   5.912714   3.573708
    15  S    5.198422   3.680665   7.157266   6.040905   4.777834
    16  S    6.834933   6.675724   5.997330   5.915035   8.765683
    17  S    6.747383   5.739157   6.897159   5.963682   8.192596
    18  Mo   6.002075   6.609192   4.872498   4.922245   7.916968
    19  S    7.842528   8.678185   6.537375   6.594789   9.627594
    20  S    5.035118   5.757213   3.218990   4.846376   7.322731
    21  Mo   3.062971   3.866134   4.869780   4.871873   2.291341
    22  S    4.966739   5.980011   6.519550   6.521655   3.666448
    23  S    2.532982   3.571269   3.205300   4.807156   3.587095
    24  Mo   5.946788   4.962325   6.859836   5.000182   6.756554
    25  S    8.171850   7.061636   9.159768   7.102459   8.671026
    26  S    4.953940   3.207404   6.005644   5.043044   5.954547
    27  Mo   5.093205   3.729937   6.890282   5.071181   5.005550
    28  S    6.544665   5.655365   8.187490   5.613239   6.311114
    29  S    7.388555   5.745156   9.112014   7.407078   7.156148
    30  Mo   8.307215   6.824660   9.713798   7.747187   8.399029
    31  S   10.122133   8.773056  11.667714   9.381824   9.863870
    32  S    9.058863   7.211472  10.127585   8.848129   9.599623
                    6          7          8          9         10
     6  Mo   0.000000
     7  S    2.519467   0.000000
     8  S    2.328386   3.871945   0.000000
     9  Mo   2.877399   3.991858   2.479513   0.000000
    10  S    3.916710   3.240950   3.858739   2.509871   0.000000
    11  S    4.985568   5.630848   5.004709   2.533407   3.349379
    12  Mo   5.092574   6.667545   4.941288   3.056519   5.099006
    13  Mo   2.910976   2.531693   2.329004   2.945260   2.401614
    14  S    6.838480   8.790136   6.700962   5.352740   7.570005
    15  S    6.983361   8.406717   6.115606   4.451101   6.162915
    16  S    4.155540   3.578241   3.553312   5.240669   4.780471
    17  S    5.061353   4.916354   3.393411   4.158340   3.649537
    18  Mo   3.108619   2.291728   3.882016   5.232118   4.933121
    19  S    5.021500   3.684829   5.992575   7.250877   6.595180
    20  S    2.576788   3.550671   3.558670   5.245401   5.944369
    21  Mo   5.955630   7.880267   6.580637   5.283080   7.374694
    22  S    7.778079   9.563632   8.642727   7.293974   9.200421
    23  S    4.989860   7.272629   5.716010   5.281680   7.527721
    24  Mo   5.049377   4.975710   3.774624   3.019650   2.326074
    25  S    7.292273   6.814631   5.966282   5.245968   4.046313
    26  S    4.946420   5.975181   3.223083   2.578471   3.837135
    27  Mo   5.975464   6.850866   4.985443   3.112783   4.162051
    28  S    6.657983   6.629981   5.842669   3.992511   3.413502
    29  S    8.195127   8.911097   6.862016   5.357422   5.957746
    30  Mo   8.278147   8.392889   6.824128   5.657877   5.321915
    31  S   10.156172  10.002230   8.855869   7.519699   6.830272
    32  S    8.861878   9.234724   6.967764   6.494363   6.535808
                   11         12         13         14         15
    11  S    0.000000
    12  Mo   2.376607   0.000000
    13  Mo   5.058687   5.998172   0.000000
    14  S    4.775928   2.497331   8.206150   0.000000
    15  S    3.524879   2.418406   7.134245   3.195416   0.000000
    16  S    7.521804   8.202509   2.488445  10.185950   9.298358
    17  S    5.992076   6.870593   2.439908   8.988589   7.203171
    18  Mo   7.392634   7.999699   3.049730   9.887574   9.608209
    19  S    9.240650   9.985922   4.946318  11.859654  11.671821
    20  S    7.532711   7.468360   4.100649   8.902338   9.229399
    21  Mo   4.903916   3.033921   7.946729   2.246842   4.892816
    22  S    6.568379   4.926745   9.919983   3.617988   6.499368
    23  S    5.921130   4.113624   7.416516   3.672434   6.060279
    24  Mo   4.059317   5.356338   2.885933   7.666555   5.557499
    25  S    5.631610   7.157894   4.819762   9.394356   6.774468
    26  S    3.787867   3.948948   3.926009   5.852619   3.822206
    27  Mo   2.382090   2.921514   5.369953   4.923708   2.291605
    28  S    3.107836   4.882307   5.208770   7.122098   4.543965
    29  S    4.525453   4.964705   7.127350   6.374731   3.186399
    30  Mo   5.330370   6.469762   6.405262   8.344578   5.301819
    31  S    6.738937   8.089822   8.195044   9.874699   6.753986
    32  S    6.792938   7.411688   6.905825   9.004313   6.044996
                   16         17         18         19         20
    16  S    0.000000
    17  S    3.238671   0.000000
    18  Mo   2.248051   4.954475   0.000000
    19  S    3.623864   6.646013   2.117870   0.000000
    20  S    3.652017   5.932542   2.220183   3.622332   0.000000
    21  Mo   9.840133   9.299268   9.056141  10.838663   7.949021
    22  S   11.800717  11.374434  10.818773  12.452810   9.645659
    23  S    8.854791   8.896529   7.940156   9.653474   6.422327
    24  Mo   4.891854   2.254249   5.931885   7.744555   6.781096
    25  S    6.344495   3.391894   7.715108   9.275187   8.859230
    26  S    5.804028   3.433965   6.685214   8.742479   6.759517
    27  Mo   7.644838   5.305187   8.152736  10.154070   8.258145
    28  S    7.482167   4.941170   8.148350   9.915466   8.869830
    29  S    9.196140   6.324147  10.086013  12.058028  10.320950
    30  Mo   8.227132   5.103925   9.450617  11.238143  10.164948
    31  S    9.987690   6.900553  11.208995  12.866937  12.097902
    32  S    8.255937   5.039284   9.821218  11.634306  10.382026
                   21         22         23         24         25
    21  Mo   0.000000
    22  S    2.118777   0.000000
    23  S    2.231794   3.627047   0.000000
    24  Mo   8.096279  10.085813   8.219558   0.000000
    25  S   10.074267  11.991631  10.408283   2.301277   0.000000
    26  S    6.679904   8.740768   6.758349   2.378004   4.079017
    27  Mo   5.953265   7.774735   6.800068   3.391509   4.586439
    28  S    7.812458   9.534350   8.656804   2.715067   2.984370
    29  S    7.872088   9.531741   8.855044   4.547678   4.631628
    30  Mo   9.502964  11.304571  10.204389   3.523411   2.515077
    31  S   11.082495  12.721088  12.020487   5.339787   3.739645
    32  S   10.354495  12.264658  10.748069   4.309977   3.397545
                   26         27         28         29         30
    26  S    0.000000
    27  Mo   2.334853   0.000000
    28  S    3.499795   2.392623   0.000000
    29  S    3.697132   2.363910   3.032253   0.000000
    30  Mo   3.921125   3.550712   2.539470   2.445237   0.000000
    31  S    6.003675   5.230384   3.791810   3.672980   2.107542
    32  S    4.158855   4.682447   4.425498   3.426675   2.144507
                   31         32
    31  S    0.000000
    32  S    3.467373   0.000000
 Symmetry turned off by external request.
 Stoichiometry    Mo10S22
 Framework group  C1[X(Mo10S22)]
 Deg. of freedom    90
 Full point group                 C1      NOp   1
 Rotational constants (GHZ):           0.0336802           0.0307389           0.0175397
 General basis read from cards:  (5D, 7F)
 ======================================================================================================
                                       Pseudopotential Parameters
 ======================================================================================================
  Center     Atomic      Valence      Angular      Power
  Number     Number     Electrons     Momentum     of R      Exponent        Coefficient   SO-Coeffient
 ======================================================================================================
    1         42           14
                                      F and up 
                                                     0      537.9667807       -0.04694920    0.00000000
                                                     1      147.8982938      -20.20800840    0.00000000
                                                     2       45.7358898     -106.21163020    0.00000000
                                                     2       13.2911467      -41.81073680    0.00000000
                                                     2        4.7059961       -4.20541030    0.00000000
                                      S - F
                                                     0      110.2991760        2.80637170    0.00000000
                                                     1       23.2014645       44.51620120    0.00000000
                                                     2        5.3530131       82.77852270    0.00000000
                                      P - F
                                                     0       63.2901397        4.94208760    0.00000000
                                                     1       23.3315302       25.86049760    0.00000000
                                                     2       24.6759423      132.47087420    0.00000000
                                                     2        4.6493040       57.31497940    0.00000000
                                      D - F
                                                     0      104.4839977        3.00545910    0.00000000
                                                     1       66.2307245       26.36378510    0.00000000
                                                     2       39.1283176      183.38491990    0.00000000
                                                     2       13.1164437       98.44530680    0.00000000
                                                     2        3.6280263       22.49013770    0.00000000
    2         16
                                   No pseudopotential on this center.
    3         16
                                   No pseudopotential on this center.
    4         16
                                   No pseudopotential on this center.
    5         16
                                   No pseudopotential on this center.
    6         42           14
                                      F and up 
                                                     0      537.9667807       -0.04694920    0.00000000
                                                     1      147.8982938      -20.20800840    0.00000000
                                                     2       45.7358898     -106.21163020    0.00000000
                                                     2       13.2911467      -41.81073680    0.00000000
                                                     2        4.7059961       -4.20541030    0.00000000
                                      S - F
                                                     0      110.2991760        2.80637170    0.00000000
                                                     1       23.2014645       44.51620120    0.00000000
                                                     2        5.3530131       82.77852270    0.00000000
                                      P - F
                                                     0       63.2901397        4.94208760    0.00000000
                                                     1       23.3315302       25.86049760    0.00000000
                                                     2       24.6759423      132.47087420    0.00000000
                                                     2        4.6493040       57.31497940    0.00000000
                                      D - F
                                                     0      104.4839977        3.00545910    0.00000000
                                                     1       66.2307245       26.36378510    0.00000000
                                                     2       39.1283176      183.38491990    0.00000000
                                                     2       13.1164437       98.44530680    0.00000000
                                                     2        3.6280263       22.49013770    0.00000000
    7         16
                                   No pseudopotential on this center.
    8         16
                                   No pseudopotential on this center.
    9         42           14
                                      F and up 
                                                     0      537.9667807       -0.04694920    0.00000000
                                                     1      147.8982938      -20.20800840    0.00000000
                                                     2       45.7358898     -106.21163020    0.00000000
                                                     2       13.2911467      -41.81073680    0.00000000
                                                     2        4.7059961       -4.20541030    0.00000000
                                      S - F
                                                     0      110.2991760        2.80637170    0.00000000
                                                     1       23.2014645       44.51620120    0.00000000
                                                     2        5.3530131       82.77852270    0.00000000
                                      P - F
                                                     0       63.2901397        4.94208760    0.00000000
                                                     1       23.3315302       25.86049760    0.00000000
                                                     2       24.6759423      132.47087420    0.00000000
                                                     2        4.6493040       57.31497940    0.00000000
                                      D - F
                                                     0      104.4839977        3.00545910    0.00000000
                                                     1       66.2307245       26.36378510    0.00000000
                                                     2       39.1283176      183.38491990    0.00000000
                                                     2       13.1164437       98.44530680    0.00000000
                                                     2        3.6280263       22.49013770    0.00000000
   10         16
                                   No pseudopotential on this center.
   11         16
                                   No pseudopotential on this center.
   12         42           14
                                      F and up 
                                                     0      537.9667807       -0.04694920    0.00000000
                                                     1      147.8982938      -20.20800840    0.00000000
                                                     2       45.7358898     -106.21163020    0.00000000
                                                     2       13.2911467      -41.81073680    0.00000000
                                                     2        4.7059961       -4.20541030    0.00000000
                                      S - F
                                                     0      110.2991760        2.80637170    0.00000000
                                                     1       23.2014645       44.51620120    0.00000000
                                                     2        5.3530131       82.77852270    0.00000000
                                      P - F
                                                     0       63.2901397        4.94208760    0.00000000
                                                     1       23.3315302       25.86049760    0.00000000
                                                     2       24.6759423      132.47087420    0.00000000
                                                     2        4.6493040       57.31497940    0.00000000
                                      D - F
                                                     0      104.4839977        3.00545910    0.00000000
                                                     1       66.2307245       26.36378510    0.00000000
                                                     2       39.1283176      183.38491990    0.00000000
                                                     2       13.1164437       98.44530680    0.00000000
                                                     2        3.6280263       22.49013770    0.00000000
   13         42           14
                                      F and up 
                                                     0      537.9667807       -0.04694920    0.00000000
                                                     1      147.8982938      -20.20800840    0.00000000
                                                     2       45.7358898     -106.21163020    0.00000000
                                                     2       13.2911467      -41.81073680    0.00000000
                                                     2        4.7059961       -4.20541030    0.00000000
                                      S - F
                                                     0      110.2991760        2.80637170    0.00000000
                                                     1       23.2014645       44.51620120    0.00000000
                                                     2        5.3530131       82.77852270    0.00000000
                                      P - F
                                                     0       63.2901397        4.94208760    0.00000000
                                                     1       23.3315302       25.86049760    0.00000000
                                                     2       24.6759423      132.47087420    0.00000000
                                                     2        4.6493040       57.31497940    0.00000000
                                      D - F
                                                     0      104.4839977        3.00545910    0.00000000
                                                     1       66.2307245       26.36378510    0.00000000
                                                     2       39.1283176      183.38491990    0.00000000
                                                     2       13.1164437       98.44530680    0.00000000
                                                     2        3.6280263       22.49013770    0.00000000
   14         16
                                   No pseudopotential on this center.
   15         16
                                   No pseudopotential on this center.
   16         16
                                   No pseudopotential on this center.
   17         16
                                   No pseudopotential on this center.
   18         42           14
                                      F and up 
                                                     0      537.9667807       -0.04694920    0.00000000
                                                     1      147.8982938      -20.20800840    0.00000000
                                                     2       45.7358898     -106.21163020    0.00000000
                                                     2       13.2911467      -41.81073680    0.00000000
                                                     2        4.7059961       -4.20541030    0.00000000
                                      S - F
                                                     0      110.2991760        2.80637170    0.00000000
                                                     1       23.2014645       44.51620120    0.00000000
                                                     2        5.3530131       82.77852270    0.00000000
                                      P - F
                                                     0       63.2901397        4.94208760    0.00000000
                                                     1       23.3315302       25.86049760    0.00000000
                                                     2       24.6759423      132.47087420    0.00000000
                                                     2        4.6493040       57.31497940    0.00000000
                                      D - F
                                                     0      104.4839977        3.00545910    0.00000000
[...]
 .00027766,-0.00054153,-0.00114611,-0.00113080,0.00101123,-0.00324741,-
 0.00709476,-0.00418688,-0.00163072,-0.00005163,-0.00077286,-0.01787561
 ,-0.01876810,0.00130889,0.00996052,0.02679972,-0.01298596,-0.00037136,
 -0.00040834,-0.00132855,-0.00138880,-0.00213020,0.00134739,-0.07339608
 ,-0.00996636,-0.04302985,-0.00014359,-0.00013853,0.00036549,-0.0012251
 0,0.00113989,0.00075119,0.00006084,-0.00115727,-0.00091377,0.00052797,
 0.00032200,0.00007284,0.00104446,-0.00001207,0.00112962,0.00293365,-0.
 00018691,-0.00156528,-0.00041346,0.00041259,-0.00005924,-0.00132182,0.
 00047510,-0.00041400,-0.01224293,-0.00513287,-0.00994484,0.00028329,-0
 .00450668,0.00254028,-0.06797253,0.05196223,0.02321653,0.23272828,0.00
 372799,-0.00482333,-0.00140580,0.00061862,0.00056742,-0.00022374,-0.00
 123210,0.00000443,0.00028597,-0.00149232,-0.00359799,0.00182440,-0.002
 50152,-0.00127128,0.00236577,-0.00150026,0.00028978,0.00020695,-0.0003
 3296,-0.00012429,0.00000051,0.00037331,-0.00377902,-0.00076532,0.00247
 223,0.01632200,-0.00554570,-0.00160181,-0.00078873,0.00112248,-0.02937
 415,-0.09761422,-0.00314392,0.01145132,-0.00245966,0.01486570,-0.00160
 478,-0.00140357,0.00127192,-0.00308099,-0.00106943,0.00128044,-0.00695
 979,-0.00436630,-0.00307044,0.00084773,0.00072752,0.00007727,0.0014492
 6,-0.00004262,-0.00096051,0.00072518,-0.00099508,-0.00070689,0.0002011
 3,0.00009823,0.00005609,0.00035023,-0.00016133,0.00061286,0.00200468,-
 0.00115093,-0.00094840,-0.00094407,0.00051171,-0.00005396,0.00056402,-
 0.00012210,0.00012529,0.00092865,0.00674427,0.00584188,-0.00242363,-0.
 00027135,0.00215908,0.04807739,-0.05222818,-0.02135782,0.00006709,0.21
 087718,-0.00495487,-0.00098988,-0.00001826,0.00225685,0.00027079,-0.00
 395302,-0.00069708,0.00063069,-0.00052979,0.00067980,0.00056471,0.0024
 1496,0.00025722,-0.00171060,0.00048731,-0.00109430,-0.00255370,-0.0023
 8593,-0.00066202,-0.00005252,-0.00003394,0.00422615,0.00162244,0.00215
 262,-0.00862507,0.00573797,0.00187390,0.00076064,-0.00038052,0.0003433
 2,0.00470843,-0.00935967,-0.00582997,0.01594731,0.03399944,-0.03865121
 ,0.00119059,-0.00221120,-0.00345568,-0.00221718,-0.00165185,0.00044131
 ,-0.05222971,-0.01751660,-0.05688062,-0.00003249,0.00007231,0.00045876
 ,0.00217799,-0.00297723,0.00041215,0.00004778,-0.00091547,0.00112662,-
 0.00004823,-0.00000894,0.00008500,-0.00047901,0.00061803,-0.00046180,0
 .00148523,0.00094965,0.00033544,0.00054598,-0.00068491,0.00023507,-0.0
 0070834,0.00004294,-0.00036556,-0.01494100,0.01000066,0.01015626,0.001
 81800,-0.00269100,0.00102819,0.01716687,-0.02061462,-0.01717702,0.0140
 2208,0.00237886,0.22984962,-0.00018731,0.00017876,-0.00013709,-0.00009
 105,0.00013199,-0.00030918,0.00013885,0.00000468,0.00008479,-0.0006382
 1,0.00007563,-0.00018660,0.00026002,0.00047032,0.00007547,-0.00108740,
 -0.00002334,-0.00005602,0.00021888,-0.00013664,0.00012437,0.00039855,-
 0.00052650,0.00025168,0.00365673,0.00110238,0.00131417,-0.00570412,0.0
 0034191,0.00256119,0.00305404,0.00040482,0.00200475,-0.00129698,-0.000
 17248,0.00125868,-0.00009794,0.00108907,-0.00074224,0.00000769,-0.0000
 0531,0.00001455,0.00096790,-0.00182687,-0.00254490,-0.00032695,-0.0000
 3612,0.00015325,-0.00649594,0.00608914,-0.00063337,0.00017526,0.000197
 31,-0.00065907,-0.00002663,-0.00001500,-0.00002007,0.00024715,-0.00003
 065,0.00035440,-0.00036674,-0.00020098,0.00064390,-0.00001241,0.000068
 28,-0.00003998,0.00023231,-0.00009062,-0.00001292,-0.00961798,-0.00982
 708,0.00866604,-0.00478469,0.01448239,-0.01098591,0.00302507,-0.000582
 41,0.00851740,-0.01876227,-0.00059963,-0.00748150,0.05766648,-0.000078
 11,0.00010454,-0.00009990,0.00024827,0.00006226,-0.00011279,0.00003361
 ,-0.00002915,-0.00016442,-0.00018302,0.00017874,-0.00000556,0.00040952
 ,0.00044391,0.00041191,-0.00058766,0.00026758,0.00016732,-0.00025191,0
 .00016884,-0.00033217,0.00016773,0.00009965,0.00015073,-0.00121815,-0.
 00036869,-0.00004993,-0.00276184,0.00077444,0.00133522,-0.00020541,-0.
 00065214,0.01236182,-0.00287115,0.00000022,0.00155933,0.00116881,-0.00
 167704,0.00012095,0.00030380,0.00004602,0.00025182,0.00033971,-0.00127
 721,-0.00105902,-0.00026733,-0.00007220,0.00006832,0.00080721,0.000171
 70,0.00012657,-0.00004105,-0.00012707,0.00009841,-0.00004914,-0.000020
 85,-0.00000203,0.00003214,0.00002470,0.00003941,0.00017449,-0.00017751
 ,0.00000388,0.00001495,-0.00002296,0.00005107,0.00007255,-0.00000663,-
 0.00003400,0.00414569,-0.00567614,-0.00610502,0.00774297,-0.00796619,0
 .00948756,0.00190307,-0.00262558,-0.00622153,-0.00119743,-0.01564789,-
 0.02179735,0.01468264,0.09448573,-0.00004282,0.00006168,-0.00068022,-0
 .00001978,-0.00012194,-0.00011921,0.00016068,-0.00011523,-0.00004454,-
 0.00040848,0.00030175,-0.00003715,0.00005755,0.00070769,-0.00006177,-0
 .00078399,0.00023006,-0.00018000,-0.00014253,0.00008970,0.00001403,0.0
 0007501,-0.00028937,0.00007879,0.00233732,0.00014944,-0.00124447,0.000
 59320,0.00064753,-0.00061039,-0.00059800,0.00750326,-0.01012751,-0.000
 35633,-0.00086030,-0.00037388,0.00113946,0.00049442,-0.00065860,-0.000
 05742,0.00012750,0.00004627,-0.00986188,0.00235276,-0.00580551,-0.0000
 9133,-0.00003419,0.00017079,-0.00027291,-0.00006582,0.00010091,-0.0002
 1784,-0.00024632,-0.00020662,0.00006179,0.00003452,0.00003817,0.000008
 09,-0.00000089,0.00006548,0.00004372,-0.00031687,0.00011083,-0.0000570
 8,0.00004536,-0.00006306,0.00016553,-0.00004080,0.00012115,0.00662866,
 -0.00651240,-0.00725744,-0.00563550,0.00965316,-0.00472547,0.00634299,
 -0.00414757,-0.00491073,-0.00035687,-0.01845140,-0.08589346,0.00435618
 ,-0.00135763,0.13118380,0.00049583,-0.00028496,-0.00050364,-0.00033409
 ,0.00001607,-0.00019629,0.00003472,0.00001791,0.00004596,0.00033534,-0
 .00038987,0.00027129,0.00009119,0.00044404,0.00020452,0.00044487,0.000
 13655,0.00002777,0.00006986,0.00005342,0.00003087,0.00003897,0.0002710
 9,-0.00007498,-0.00244863,0.00092524,0.00094273,-0.00024609,-0.0001687
 2,0.00022196,-0.00140416,-0.00531226,0.00064604,0.00029501,-0.00242491
 ,0.00046698,0.00037105,-0.00009891,-0.00025930,-0.00001260,0.00036703,
 0.00036942,0.00462789,-0.00026132,0.00075370,-0.00006031,-0.00007355,-
 0.00006440,0.00023700,0.00005545,0.00009569,-0.00002485,0.00023230,0.0
 0027174,-0.00012608,-0.00007384,-0.00002984,-0.00008235,-0.00005983,-0
 .00017625,0.00001907,-0.00008959,-0.00038001,0.00008110,-0.00015310,0.
 00007669,-0.00007549,0.00003671,0.00006887,0.00043771,-0.00109566,0.00
 132355,0.00023003,0.00222002,-0.00194220,-0.00403145,-0.00118542,0.000
 25860,-0.04677613,-0.02771387,0.02349018,-0.00959188,-0.01058695,-0.00
 726254,0.09949147,-0.00004050,-0.00008461,-0.00013259,0.00003376,0.000
 11956,-0.00050517,0.00002736,0.00002902,-0.00000914,0.00034895,-0.0000
 5495,0.00016921,0.00015299,0.00015942,0.00003759,0.00083481,0.00017589
 ,-0.00037770,0.00005899,0.00001694,-0.00011442,0.00048293,0.00055176,-
 0.00000248,-0.00469048,-0.00096598,0.00161734,-0.00011295,0.00021899,0
 .00013141,-0.00092422,-0.00177158,0.00040165,0.00076400,-0.00019796,-0
 .00058096,0.00053759,-0.00004656,-0.00055253,0.00011097,0.00008474,0.0
 0058820,0.00234533,-0.00275373,0.00638475,-0.00016352,-0.00018550,0.00
 001166,-0.00059053,0.00015878,-0.00055995,-0.00008891,0.00026502,0.000
 31981,-0.00009291,-0.00004577,-0.00002472,-0.00012106,0.00000903,-0.00
 012977,0.00011169,0.00013456,-0.00027614,0.00006563,-0.00012200,0.0000
 8733,-0.00012825,0.00004710,0.00008028,0.00131249,-0.00297401,0.001934
 91,0.00418202,0.00183912,-0.00289659,-0.00026795,0.00373094,0.00073454
 ,-0.03504490,-0.04194621,0.02077873,-0.01365152,-0.00400650,-0.0034538
 2,0.03746863,0.06651498,-0.00002043,0.00094411,0.00043979,-0.00015961,
 -0.00025108,0.00080663,0.00008366,0.00000286,0.00007944,-0.00067501,0.
 00027572,-0.00082512,0.00017465,0.00017236,-0.00019190,-0.00070218,0.0
 0017300,0.00132808,0.00007498,-0.00010464,-0.00003677,-0.00097078,-0.0
 0031068,-0.00009436,0.00826586,-0.00071904,-0.00197019,-0.00031375,0.0
 0008222,-0.00016475,-0.00083832,0.00857434,0.00013771,-0.00150578,-0.0
 0328039,0.00358393,-0.00058944,0.00025398,0.00089083,-0.00009048,0.000
 47848,-0.00070167,0.00232170,0.00945630,-0.01246586,0.00019703,0.00013
 254,-0.00002819,-0.00040093,0.00014082,0.00049906,-0.00001039,-0.00012
 125,-0.00060618,0.00019375,0.00008199,0.00003262,0.00029031,-0.0000946
 6,0.00024256,-0.00006816,-0.00023094,-0.00005533,-0.00002475,0.0002260
 7,-0.00015161,-0.00011019,-0.00002574,-0.00012533,-0.00118928,0.000773
 22,-0.00375025,-0.00391117,-0.00436542,0.00354673,0.00289876,0.0005116
 0,-0.00057086,0.01308408,0.01046473,-0.03094509,-0.00909502,-0.0076927
 8,0.00295952,0.01571382,-0.03419122,0.07975443,0.00033980,-0.00052788,
 0.00075877,-0.00028580,-0.00016184,-0.00000003,-0.00001411,-0.00005125
 ,-0.00026334,0.00071910,-0.00039067,0.00069933,-0.00007590,0.00011510,
 0.00007301,0.00022329,0.00038659,0.00004309,0.00009244,0.00024196,-0.0
 0017239,0.00032545,0.00023821,0.00027177,-0.00402397,0.00265912,-0.002
 96878,0.00018353,0.00154243,0.00078167,0.00026618,-0.00256529,-0.00048
 287,0.00047256,-0.00082663,-0.00009061,0.00125313,-0.00005033,-0.00039
 844,-0.00010619,0.00018278,0.00024638,0.00059100,-0.00032256,-0.001124
 89,-0.00027942,-0.00029276,0.00000481,0.00050911,0.00026985,-0.0014447
 6,-0.00058566,0.00005570,0.00052584,0.00021106,0.00007789,0.00006875,-
 0.00009712,-0.00002021,-0.00019920,0.00066876,-0.00016441,-0.00058394,
 -0.00008160,0.00009146,-0.00005404,-0.00034353,0.00012991,-0.00000893,
 -0.00591311,-0.01220738,0.01234883,-0.04513360,-0.00560043,-0.02021209
 ,-0.00050678,-0.00001861,0.00153579,0.01089478,0.00802233,0.00247384,-
 0.01287380,-0.01353002,0.00650143,-0.04460132,0.00140668,-0.01585006,0
 .20818743,-0.00015369,0.00005454,-0.00080169,0.00008650,0.00026964,-0.
 00012050,0.00006185,-0.00007188,-0.00015361,-0.00018498,0.00035991,0.0
 0004247,0.00008300,0.00001483,0.00017919,0.00029447,-0.00037940,-0.000
 45131,-0.00025162,0.00018462,0.00030788,0.00020571,0.00050478,0.000005
 74,-0.00032178,-0.00128988,0.00307158,-0.00100397,-0.00075635,-0.00085
 652,-0.00023708,0.00041141,0.00062389,-0.00044006,0.00028566,-0.001773
 40,0.00018746,-0.00102444,-0.00100323,0.00017350,0.00006639,-0.0002253
 6,-0.00267588,0.00023569,-0.00095593,0.00017926,0.00023252,-0.00014495
 ,0.00263908,-0.00081928,-0.00119055,-0.00026337,-0.00029023,0.00000108
 ,0.00015305,0.00008855,0.00005650,-0.00009229,0.00005933,-0.00014064,-
 0.00048612,-0.00036739,0.00069865,-0.00012677,0.00017543,-0.00011208,0
 .00039485,-0.00007812,-0.00000410,-0.00799874,0.00227202,0.00006655,-0
 .01217849,-0.01004646,0.00107068,0.00275431,0.00141394,-0.00181887,0.0
 0971652,-0.00342353,0.01018637,-0.00806269,-0.05287937,0.00759402,0.00
 265807,-0.01428133,0.00846889,-0.00935702,0.31652851,0.00083848,-0.000
 58035,0.00063049,-0.00048130,-0.00017435,-0.00044950,0.00000899,-0.000
 06650,-0.00012762,0.00081436,-0.00038149,0.00055143,0.00007050,0.00000
 904,-0.00002544,0.00049987,0.00005111,-0.00064558,0.00015608,0.0001656
 6,0.00015713,0.00020323,0.00035616,-0.00027952,-0.00398378,0.00094799,
 -0.00004754,-0.00003293,-0.00005843,0.00053847,-0.00095722,-0.00269610
 ,-0.00123299,0.00030799,-0.00084736,-0.00133591,-0.00027437,-0.0001268
 1,0.00017431,-0.00015426,-0.00000745,0.00034591,-0.00000513,0.00124835
 ,-0.00026204,-0.00001362,0.00002414,-0.00014456,0.00054370,0.00049856,
 -0.00177935,0.00024909,0.00043358,0.00047796,-0.00034904,-0.00017289,-
 0.00009132,-0.00021862,-0.00002123,-0.00028889,-0.00000597,0.00029694,
 -0.00055051,0.00019997,-0.00032491,0.00018509,-0.00016538,0.00007037,0
 .00011170,0.00567856,-0.00359546,0.00537129,-0.00742349,0.00166258,-0.
 01935479,0.00191188,-0.00047317,-0.00237074,0.01299010,0.01313083,-0.0
 0479674,0.00483190,0.02139913,-0.01568159,-0.03353647,0.00216196,-0.03
 256758,-0.12485280,0.01545178,0.31028138,-0.00000135,-0.00002971,-0.00
 029974,0.00009374,0.00005502,-0.00009096,-0.00003851,0.00001771,0.0000
 6075,0.00000342,0.00000446,-0.00003919,-0.00005034,-0.00004866,-0.0000
 2835,0.00009958,-0.00007674,-0.00012109,-0.00001708,-0.00004375,0.0000
 1259,0.00003756,0.00005892,-0.00006447,-0.00059393,-0.00054120,0.00087
 325,-0.00001232,0.00003960,-0.00001828,0.00001374,0.00034986,0.0000639
 8,-0.00006657,-0.00006101,0.00047895,0.00000023,-0.00002190,0.00016743
 ,0.00004804,-0.00000387,0.00002303,-0.00026483,-0.00010542,-0.00001377
 ,-0.00001878,0.00005475,-0.00002033,-0.00008102,-0.00000019,0.00002262
 ,0.00027028,0.00015347,0.00006597,-0.00022129,-0.00010203,-0.00005779,
 -0.00004635,0.00000806,-0.00002742,-0.00013044,0.00032140,-0.00014362,
 0.00012616,-0.00019711,0.00011524,0.00004761,-0.00002530,0.00004216,0.
 00011409,0.00017240,-0.00015370,-0.00273777,0.00050095,0.00281785,-0.0
 0012910,0.00001011,-0.00053796,0.00124678,-0.00006583,-0.00136774,0.00
 035295,-0.00154759,0.00099050,0.00585286,-0.00102624,-0.00052716,-0.09
 479763,-0.00430373,0.12207385,0.09204514,0.00000481,-0.00001162,0.0000
 6014,-0.00004240,0.00004518,0.00000902,0.00000990,0.00000333,-0.000004
 62,0.00001957,-0.00003541,-0.00000935,0.00002143,0.00002237,0.00000747
 ,0.00004890,-0.00001439,0.00003508,-0.00000267,0.00002447,0.00002132,-
 0.00000495,0.00001984,0.00000868,-0.00007772,-0.00001288,0.00000315,0.
 00010115,-0.00011487,-0.00001519,-0.00003902,-0.00017383,-0.00015880,0
 .00008700,0.00013042,-0.00026316,0.00011457,0.00011991,-0.00008029,-0.
 00004891,0.00000787,-0.00001060,0.00028264,-0.00000458,0.00018577,0.00
 001706,-0.00001812,0.00000770,-0.00007925,0.00001014,-0.00000155,-0.00
 006524,-0.00002416,0.00000461,0.00003490,0.00001353,0.00000980,0.00000
 579,-0.00000176,-0.00001500,0.00000792,-0.00007075,0.00003524,-0.00002
 050,0.00002676,-0.00001739,-0.00000417,0.00001015,-0.00001335,-0.00006
 455,0.00015499,0.00040171,0.00051733,0.00114996,0.00153559,-0.00021247
 ,-0.00006302,0.00006916,-0.00019058,0.00055818,0.00023708,-0.00098720,
 0.00179139,0.00199037,-0.00164414,0.00054813,0.00140630,-0.00188509,-0
 .02717743,0.00153395,-0.00271964,0.01884782,-0.00015028,0.00011020,0.0
 0010681,-0.00001647,0.00006819,0.00014730,0.00005097,-0.00002457,-0.00
 009925,-0.00009778,-0.00003062,-0.00007367,0.00005815,0.00000851,0.000
 05853,-0.00007073,0.00011399,0.00024334,-0.00002853,0.00006544,0.00000
 258,-0.00004953,-0.00006798,0.00014153,0.00080967,0.00019786,-0.000292
 13,-0.00004297,-0.00005628,-0.00004542,0.00005082,0.00046512,0.0000427
 9,0.00008965,0.00012953,-0.00027745,0.00024491,0.00008088,-0.00044643,
 -0.00006901,0.00002907,-0.00011601,0.00002824,0.00004368,0.00017776,0.
 00005138,-0.00007480,0.00004935,0.00003373,0.00004264,0.00005553,-0.00
 048014,-0.00031408,-0.00008944,0.00036645,0.00016707,0.00009830,0.0000
 6688,-0.00000318,0.00003481,0.00014785,-0.00050390,0.00030346,-0.00020
 582,0.00032714,-0.00019328,-0.00000232,0.00001932,-0.00006542,0.000304
 81,0.00036444,0.00059027,0.00338900,0.00080919,0.00208591,-0.00036538,
 -0.00037145,0.00076326,-0.00160872,-0.00108331,0.00082785,0.00072487,0
 .00232052,-0.00013225,-0.00098144,0.00114213,-0.00748586,0.12188237,0.
 00722785,-0.20407206,-0.12637330,0.00359499,0.21064076,-0.00020008,0.0
 0011355,-0.00006216,0.00004736,0.00006495,0.00003616,0.00001501,0.0000
 2111,0.00006117,-0.00025799,0.00012827,-0.00017734,0.00003441,-0.00001
 370,0.00005113,-0.00004365,-0.00014192,0.00010254,-0.00004015,-0.00000
 629,0.00005700,-0.00010916,-0.00007041,-0.00004666,0.00171275,-0.00075
 952,0.00056948,-0.00007545,-0.00063905,-0.00028757,-0.00035563,0.00020
 318,-0.00029598,-0.00000212,0.00026844,-0.00037327,0.00011281,0.000345
 25,0.00005159,-0.00000018,-0.00001975,-0.00009204,-0.00020483,-0.00018
 873,0.00020784,0.00007178,0.00003286,0.00003205,-0.00032859,-0.0002079
 6,-0.00036275,-0.00001768,-0.00007485,-0.00015097,0.00004237,0.0000220
 7,0.00000599,0.00004951,-0.00000068,0.00004579,-0.00012151,-0.00010040
 ,0.00021394,-0.00004204,0.00005856,-0.00003091,0.00009004,-0.00002905,
 -0.00004072,-0.00027156,0.00171476,-0.00163694,-0.00216764,-0.00722108
 ,-0.00036376,0.00130873,-0.00056239,-0.00006049,-0.00286482,-0.0004534
 3,0.00228361,0.00156040,0.00312961,-0.00329681,-0.00333854,0.00669911,
 -0.00624573,-0.01521807,0.02855063,0.02107582,-0.00114487,0.00681554,0
 .00224268,0.02175938,0.00015787,-0.00016689,-0.00021043,0.00003419,-0.
 00004083,-0.00005932,-0.00008541,0.00003181,0.00007379,0.00005740,-0.0
 0008215,-0.00000084,-0.00010298,-0.00001323,-0.00001778,0.00006695,0.0
 0010335,-0.00008896,0.00006781,-0.00004540,-0.00005705,0.00007600,-0.0
 0012505,0.00007661,-0.00103767,0.00026793,0.00038892,0.00020536,0.0002
 7267,0.00017328,0.00014747,-0.00012088,0.00009246,0.00014250,-0.000031
 58,0.00078401,0.00003124,-0.00001254,-0.00004657,0.00002031,0.00001840
 ,0.00012439,0.00037119,-0.00039353,0.00020713,-0.00015160,-0.00001126,
 0.00000430,-0.00034073,0.00027087,0.00038412,0.00021076,0.00016947,0.0
 0011202,-0.00017969,-0.00009059,-0.00004541,-0.00004683,-0.00001626,0.
 00000774,0.00014007,0.00031165,-0.00035850,0.00011029,-0.00018594,0.00
 010781,-0.00008682,0.00001968,0.00005782,0.00018361,-0.00080116,-0.001
 38360,-0.00851315,-0.00553215,-0.00311426,-0.00076742,-0.00073859,0.00
 076287,0.00107232,0.00058632,-0.00197462,-0.00254428,-0.00538658,0.004
 03132,0.00671436,-0.00516729,0.00876831,0.03255233,-0.21027266,-0.0499
 1561,0.00917322,0.00423838,-0.01479759,-0.03767869,0.22294401,-0.00000
 791,-0.00003506,0.00002088,0.00009062,-0.00000514,0.00001825,-0.000043
 64,0.00001352,0.00008415,-0.00006956,0.00006644,-0.00004016,-0.0000834
 3,-0.00000283,0.00000588,-0.00018411,0.00011459,0.00003454,0.00003237,
 -0.00003369,-0.00007195,-0.00007306,-0.00019046,0.00006125,0.00060069,
 0.00002220,-0.00081366,0.00016408,-0.00008992,0.00000931,0.00054154,0.
 00061504,0.00026502,-0.00019281,-0.00011581,0.00096582,-0.00000133,0.0
 0000755,0.00021729,0.00002927,0.00001477,0.00001463,0.00033823,-0.0004
 1800,-0.00002021,-0.00006474,-0.00002372,0.00005341,-0.00036113,0.0001
 8179,0.00001614,0.00013006,0.00003108,-0.00009412,-0.00004964,-0.00002
 211,-0.00001648,0.00005727,-0.00001005,0.00010448,0.00009629,0.0001465
 7,-0.00015703,0.00003128,-0.00005371,0.00003302,-0.00004330,0.00000861
 ,-0.00000337,0.00017075,-0.00057814,-0.00090247,-0.00310149,-0.0021283
 0,0.00038657,-0.00020868,0.00048734,0.00007195,-0.00394636,-0.00035382
 ,-0.00085030,-0.00303374,-0.00491986,0.00392412,0.00012699,0.00722571,
 -0.00156445,0.02049148,-0.04530039,-0.03272086,0.00207670,-0.01056783,
 -0.00298146,-0.01351269,0.05591362,0.03394983\\-0.00000484,-0.00000195
 ,0.00001415,-0.00000253,-0.00000294,0.00000428,0.00000165,0.00000395,0
 .00000019,-0.00000103,0.00000098,0.00000065,0.00000125,0.00000020,0.00
 000014,-0.00001056,0.00000829,0.00000140,-0.00000005,0.00000122,-0.000
 00215,-0.00000080,-0.00000107,0.00000121,0.00003441,0.00000893,-0.0000
 4197,-0.00000318,-0.00000249,0.00000479,0.00000414,0.00000853,-0.00000
 108,-0.00000639,0.00000173,-0.00000239,-0.00000973,0.00000170,-0.00000
 055,0.00000045,-0.00000166,0.00000038,-0.00000491,0.00000657,-0.000002
 47,0.00000296,-0.00000087,0.00000211,0.00000790,0.00000050,-0.00000436
 ,0.00000064,-0.00000743,-0.00000019,-0.00000205,0.00000090,-0.00000110
 ,0.00000467,-0.00000127,0.00000409,0.00000261,-0.00000390,-0.00000302,
 0.00000086,0.00000021,0.00000271,-0.00000257,0.00000161,-0.00000145,-0
 .00002821,-0.00002658,0.00002532,0.00004118,0.00001867,-0.00000401,0.0
 0000513,0.00001010,0.00000447,-0.00004450,-0.00000857,0.00000629,0.000
 01625,-0.00002863,-0.00002916,0.00001151,0.00000793,-0.00006121,-0.000
 02862,-0.00008372,0.00014913,-0.00000650,0.00004167,-0.00000735,0.0000
 2085,0.00004738,-0.00005888\\\@
 The archive entry for this job was punched.


 THE MOLECULE ALSO HAS A BODY.  WHEN THIS BODY IS HIT, THE MOLECULE
 FEELS HURT ALL OVER -- A. KITAIGORODSKI
 Job cpu time:       0 days 12 hours 46 minutes 27.8 seconds.
 Elapsed time:       0 days  0 hours 16 minutes 42.8 seconds.
 File lengths (MBytes):  RWF=   1942 Int=      0 D2E=      0 Chk=     36 Scr=      2
 Normal termination of Gaussian 16 at Tue Dec 13 09:34:33 2022.
