 Entering Gaussian System, Link 0=/apps/GAU16/avx2/g16/g16
 Initial command:
 /apps/GAU16/avx2//g16/l1.exe "/localscratch/chegho/Gau-217704.inp" -scrdir="/localscratch/chegho/"
 Entering Link 1 = /apps/GAU16/avx2//g16/l1.exe PID=    217705.
  
 Copyright (c) 1988-2019, Gaussian, Inc.  All Rights Reserved.
  
 This is part of the Gaussian(R) 16 program.  It is based on
 the Gaussian(R) 09 system (copyright 2009, Gaussian, Inc.),
 the Gaussian(R) 03 system (copyright 2003, Gaussian, Inc.),
 the Gaussian(R) 98 system (copyright 1998, Gaussian, Inc.),
 the Gaussian(R) 94 system (copyright 1995, Gaussian, Inc.),
 the Gaussian 92(TM) system (copyright 1992, Gaussian, Inc.),
 the Gaussian 90(TM) system (copyright 1990, Gaussian, Inc.),
 the Gaussian 88(TM) system (copyright 1988, Gaussian, Inc.),
 the Gaussian 86(TM) system (copyright 1986, Carnegie Mellon
 University), and the Gaussian 82(TM) system (copyright 1983,
 Carnegie Mellon University). Gaussian is a federally registered
 trademark of Gaussian, Inc.
  
 This software contains proprietary and confidential information,
 including trade secrets, belonging to Gaussian, Inc.
  
 This software is provided under written license and may be
 used, copied, transmitted, or stored only in accord with that
 written license.
  
 The following legend is applicable only to US Government
 contracts under FAR:
  
                    RESTRICTED RIGHTS LEGEND
  
 Use, reproduction and disclosure by the US Government is
 subject to restrictions as set forth in subparagraphs (a)
 and (c) of the Commercial Computer Software - Restricted
 Rights clause in FAR 52.227-19.
  
 Gaussian, Inc.
 340 Quinnipiac St., Bldg. 40, Wallingford CT 06492
  
  
 ---------------------------------------------------------------
 Warning -- This program may not be used in any manner that
 competes with the business of Gaussian, Inc. or will provide
 assistance to any competitor of Gaussian, Inc.  The licensee
 of this program is prohibited from giving any competitor of
 Gaussian, Inc. access to this program.  By using this program,
 the user acknowledges that Gaussian, Inc. is engaged in the
 business of creating and licensing software in the field of
 computational chemistry and represents and warrants to the
 licensee that it is not a competitor of Gaussian, Inc. and that
 it will not use this program in any manner prohibited above.
 ---------------------------------------------------------------
  

 Cite this work as:
 Gaussian 16, Revision C.01,
 M. J. Frisch, G. W. Trucks, H. B. Schlegel, G. E. Scuseria, 
 M. A. Robb, J. R. Cheeseman, G. Scalmani, V. Barone, 
 G. A. Petersson, H. Nakatsuji, X. Li, M. Caricato, A. V. Marenich, 
 J. Bloino, B. G. Janesko, R. Gomperts, B. Mennucci, H. P. Hratchian, 
 J. V. Ortiz, A. F. Izmaylov, J. L. Sonnenberg, D. Williams-Young, 
 F. Ding, F. Lipparini, F. Egidi, J. Goings, B. Peng, A. Petrone, 
 T. Henderson, D. Ranasinghe, V. G. Zakrzewski, J. Gao, N. Rega, 
 G. Zheng, W. Liang, M. Hada, M. Ehara, K. Toyota, R. Fukuda, 
 J. Hasegawa, M. Ishida, T. Nakajima, Y. Honda, O. Kitao, H. Nakai, 
 T. Vreven, K. Throssell, J. A. Montgomery, Jr., J. E. Peralta, 
 F. Ogliaro, M. J. Bearpark, J. J. Heyd, E. N. Brothers, K. N. Kudin, 
 V. N. Staroverov, T. A. Keith, R. Kobayashi, J. Normand, 
 K. Raghavachari, A. P. Rendell, J. C. Burant, S. S. Iyengar, 
 J. Tomasi, M. Cossi, J. M. Millam, M. Klene, C. Adamo, R. Cammi, 
 J. W. Ochterski, R. L. Martin, K. Morokuma, O. Farkas, 
 J. B. Foresman, and D. J. Fox, Gaussian, Inc., Wallingford CT, 2019.
 
 ******************************************
 Gaussian 16:  ES64L-G16RevC.01  3-Jul-2019
                 8-Jul-2023 
 ******************************************
 %nprocshared=24
 Will use up to   24 processors via shared memory.
 %mem=100GB
 --------------------------------------------------------
 # opt=(qst2,redundant) freq b3lyp/gen nosymm pseudo=read
 --------------------------------------------------------
 1/5=1,18=20,26=3,27=202,38=1/1,3;
 2/9=110,12=2,15=1,17=6,18=5,40=1/2;
 3/5=7,11=2,16=1,17=8,25=1,30=1,71=1,74=-5/1,2,3;
 4//1;
 5/5=2,38=5/2;
 6/7=2,8=2,9=2,10=2,28=1/1;
 7/30=1/1,2,3,16;
 1/5=1,18=20,26=3,27=202/3(2);
 2/9=110,15=1/2;
 99//99;
 2/9=110,15=1/2;
 3/5=7,6=1,11=2,16=1,17=8,25=1,30=1,71=1,74=-5,82=7/1,2,3;
 4/5=5,16=3,69=1/1;
 5/5=2,38=5/2;
 7/30=1/1,2,3,16;
 1/5=1,18=20,26=3,27=202/3(-5);
 2/9=110,15=1/2;
 6/7=2,8=2,9=2,10=2,19=2,28=1/1;
 99/9=1/99;
 -------------------
 Title Card Required
 -------------------
 Symbolic Z-matrix:
 Charge =  0 Multiplicity = 1
 42                   -0.34724   2.13035   11.50993 
 16                    0.52731   4.03046   10.89232 
 16                   -2.53423   2.30777   12.25331 
 16                   -0.36432   0.84257   9.56122 
 16                    1.10044   1.10558   13.03635 
 1                     0.32073   0.04444   13.34778 
 42                   -2.56944   1.50108   10.0876 
 16                   -3.49954  -0.5325    9.39181 
 1                    -2.65388  -1.03064   8.46378 
 16                   -3.38399   3.15424   8.51879 
 1                    -3.4966    2.29795   7.47824 
 42                   -0.86754   3.26286   8.85959 
 16                   -1.49811   5.54582   8.73631 
 1                    -0.32954   6.14853   9.04942 
 16                    1.23423   3.29727   7.65171 
 1                    -0.96282   2.55765   7.34435 
 1                     2.12195   3.62505   8.61872 
 
 -------
 product
 -------
 Symbolic Z-matrix:
 Charge =  0 Multiplicity = 1
 42                   -0.63511   2.2043    11.84278 
 16                   -0.74911   4.40311   11.32439 
 16                   -2.8242    1.60581   12.45056 
 16                   -0.24175   1.00779   9.83727 
 16                    1.25522   1.44629   12.99237 
 1                     1.54661   0.22208   12.50883 
 42                   -2.55301   1.21484   10.21807 
 16                   -3.46781  -0.82345   9.47828 
 1                    -4.02244  -0.25455   8.38438 
 16                   -3.33276   3.04047   9.2033 
 1                    -1.6843    2.80455   6.94714 
 42                   -0.89727   3.32516   9.30105 
 16                   -1.4543    5.63706   8.52919 
 1                    -0.27486   5.98742   7.96733 
 16                    1.24435   3.56747   8.28984 
 1                    -1.0254    2.44864   6.89252 
 1                     1.91357   2.45147   8.63395 
 
 Add virtual bond connecting atoms Mo12       and H11        Dist= 4.79D+00.
 Add virtual bond connecting atoms Mo12       and H16        Dist= 4.85D+00.
 Iteration  1 RMS(Cart)=  0.15148798 RMS(Int)=  0.75551170
 Iteration  2 RMS(Cart)=  0.07335787 RMS(Int)=  0.75333820
 Iteration  3 RMS(Cart)=  0.05244418 RMS(Int)=  0.75584465
 Iteration  4 RMS(Cart)=  0.04485232 RMS(Int)=  0.76116667
 Iteration  5 RMS(Cart)=  0.02916400 RMS(Int)=  0.76596936
 Iteration  6 RMS(Cart)=  0.02179839 RMS(Int)=  0.76542981
 Iteration  7 RMS(Cart)=  0.01795274 RMS(Int)=  0.76353530
 Iteration  8 RMS(Cart)=  0.00315051 RMS(Int)=  0.76325024
 Iteration  9 RMS(Cart)=  0.00062686 RMS(Int)=  0.76319979
 Iteration 10 RMS(Cart)=  0.00015467 RMS(Int)=  0.76318938
 Iteration 11 RMS(Cart)=  0.00004871 RMS(Int)=  0.76318632
 Iteration 12 RMS(Cart)=  0.00001737 RMS(Int)=  0.76318508
 Iteration 13 RMS(Cart)=  0.00000648 RMS(Int)=  0.76318449
 Iteration 14 RMS(Cart)=  0.00000247 RMS(Int)=  0.76318422
 Iteration 15 RMS(Cart)=  0.00000095 RMS(Int)=  0.76318409
 Iteration  1 RMS(Cart)=  0.00000037 RMS(Int)=  0.76318404
 Iteration  1 RMS(Cart)=  0.00000015 RMS(Int)=  0.76318401
 Iteration  1 RMS(Cart)=  0.00000006 RMS(Int)=  0.76318400
 Iteration  1 RMS(Cart)=  0.00000002 RMS(Int)=  0.76318400
 Iteration  1 RMS(Cart)=  0.00000001 RMS(Int)=  0.76318400
 Iteration  1 RMS(Cart)=  0.00000000 RMS(Int)=  0.76318400
 Iteration  1 RMS(Cart)=  0.00000000 RMS(Int)=  0.76318400
 Iteration  1 RMS(Cart)=  0.00000000 RMS(Int)=  0.76318400
 Iteration  1 RMS(Cart)=  0.00000000 RMS(Int)=  0.76318400
   Var     Old X     New X   DQ Goal   DQ Act.  Rel. Err.   Overall
     1    4.1215    4.2136    0.0765    0.0922    1.2046
     2    4.3779    4.3220    0.0309   -0.0559   -1.8079
     3    4.4141    4.4246    0.0306    0.0105    0.3449
     4    4.4221    4.4208   -0.0013   -0.0013
     5    5.1257    5.1434   -0.0105    0.0176   -1.6810
     6    5.5345    5.3902   -0.1309   -0.1444    1.1031
     7    4.8793    4.6207   -0.2690   -0.2586    0.9615
     8    4.3678    4.3852   -0.0271    0.0174   -0.6404
     9    4.4612    4.4677   -0.0087    0.0064
    10    4.8560    4.7577   -0.0968   -0.0984    1.0163
    11    2.5570    2.5523   -0.0047   -0.0047
    12    4.4256    4.4365    0.0109    0.0109    1.0000
    13    4.5736    4.4191   -0.1802   -0.1545    0.8573
    14    5.1781    5.2656    0.0894    0.0875    0.9785
    15    2.5526    2.5537    0.0012    0.0012
    16    2.5554    3.9707    1.3718    1.4153    1.0317
    17    4.8032    4.6681   -0.0829   -0.1351    1.6293
    18    5.9010    5.3246   -0.5543   -0.5764    1.0398
    19    4.8199    3.1499   -1.7005   -1.6700    0.9821
    20    4.4818    4.6032    0.1214    0.1214    1.0000
    21    4.5814    4.5401   -0.0413   -0.0413    1.0000
    22    3.1634    4.0093    0.8431    0.8459    1.0034
    23    2.5542    2.5551    0.0009    0.0009
    24    2.5568    2.5502   -0.0066   -0.0066
    25    1.9852    1.8522   -0.0757   -0.1331    1.7569
    26    1.8204    1.8991    0.0304    0.0787    2.5888
    27    1.8946    1.9931    0.0819    0.0985    1.2033
    28    1.9629    1.8397   -0.1043   -0.1232    1.1808
    29    1.8787    1.8611   -0.0301   -0.0176    0.5835
    30    1.9913    2.0493    0.0770    0.0579    0.7527
    31    1.6640    1.7577    0.0800    0.0937    1.1722
    32    1.8831    1.8008   -0.0969   -0.0824    0.8500
    33    2.4148    2.4383    0.0026    0.0235
    34    2.6251    2.4672   -0.1708   -0.1578    0.9243
    35    1.7083    1.7881    0.0798    0.0798    1.0000
    36    2.3221    2.3746    0.0735    0.0525    0.7146
    37    2.0456    1.9091   -0.1254   -0.1365    1.0882
    38    1.8672    1.8293   -0.0009   -0.0379
    39    2.1987    2.1081   -0.1030   -0.0907    0.8805
    40    1.9542    1.9046   -0.0585   -0.0496    0.8490
    41    1.7579    1.7766    0.0370    0.0186    0.5034
    42    1.6333    1.7116    0.0976    0.0783    0.8019
    43    1.9395    1.9266   -0.0097   -0.0129
    44    1.8409    1.9638    0.0873    0.1228    1.4073
    45    2.3075    2.3741    0.0712    0.0667    0.9370
    46    1.8501    1.7351   -0.1150   -0.1150    1.0000
    47    1.6652    1.6878   -0.0013    0.0226
    48    1.7851    1.3198   -0.3933   -0.4653    1.1829
    49    1.8553    1.7754   -0.1007   -0.0799    0.7930
    50    2.0157    2.2605    0.2348    0.2448    1.0427
    51    2.0561    2.1835    0.1269    0.1274    1.0042
    52    1.8779    1.9053    0.0216    0.0273    1.2630
    53    2.3001    2.3243    0.0390    0.0242    0.6203
    54    1.5300    1.6932    0.1375    0.1632    1.1863
    55    1.7455    1.7079   -0.0362   -0.0377    1.0396
    56    2.2825    1.9663   -0.2788   -0.3162    1.1341
    57    2.6791    2.7671    0.0483    0.0880    1.8203
    58    1.4690    1.4029   -0.0232   -0.0661    2.8500
    59    1.4904    1.6419    0.1760    0.1515    0.8607
    60    2.9619    3.1253    0.1551    0.1634    1.0536
    61    3.6292    3.4090   -0.2167   -0.2202    1.0159
    62    1.7622    1.7706   -0.0136    0.0084   -0.6141
    63    1.5654    1.6110    0.0484    0.0456    0.9414
    64    2.9990    3.0961    0.1143    0.0971    0.8491
    65    3.3266    3.2036   -0.1204   -0.1230    1.0221
    66    1.5504    1.6027   -0.0154    0.0523   -3.4033
    67    1.4319    1.4321    0.0176    0.0003    0.0159
    68    1.0200    1.2686    0.2585    0.2486    0.9619
    69    2.0681    2.1646    0.1105    0.0965    0.8730
    70    2.4510    2.5053   -0.0246    0.0544   -2.2096
    71    1.6704    1.6342   -0.0397   -0.0362    0.9128
    72    0.4369    0.8072    0.3781    0.3703    0.9794
    73    1.3397    1.3353    0.0523   -0.0044   -0.0837
    74    2.4851    2.5840    0.0890    0.0990    1.1119
    75    1.3738    1.4364    0.0350    0.0626    1.7851
    76    1.6214    1.5535   -0.1086   -0.0679    0.6250
    77    2.1105    1.8315   -0.3170   -0.2790    0.8800
    78    1.7629    1.6033   -0.1085   -0.1597    1.4719
    79    1.9213    1.7695   -0.1678   -0.1517    0.9046
    80    1.1640    1.2360    0.0411    0.0720    1.7536
    81    1.7592    1.7522   -0.0070   -0.0070
    82    1.7887    1.8083    0.0196    0.0196    1.0000
    83    3.0585   -2.9971   -2.7768   -6.0556    2.1808
    84    0.8248    1.1014    0.3129    0.2766    0.8840
    85   -1.2618   -0.9390    0.3807    0.3227    0.8478
    86   -0.2619   -0.0544    0.2470    0.2076    0.8404
    87   -2.2052   -1.8619    0.4097    0.3434    0.8381
    88    2.5777    2.8383    0.2185    0.2606    1.1927
    89   -0.0921    0.0140    0.0358    0.1061    2.9659
    90   -0.3804   -0.1153    0.3119    0.2651    0.8500
    91   -3.0502   -2.9396    0.1292    0.1106    0.8562
    92   -0.2947   -0.1330    0.1525    0.1617    1.0600
    93   -0.7308   -0.8643   -0.1539   -0.1335    0.8670
    94    1.1603    1.2919    0.1627    0.1316    0.8090
    95    3.1358   -3.1301   -3.0303   -6.2659    2.0677
    96   -1.8533   -1.7108    0.1949    0.1425    0.7313
    97    2.7447    2.8477    0.0719    0.1030    1.4327
    98    2.3085    2.1164   -0.2346   -0.1922    0.8191
    99   -2.0835   -2.0106    0.0820    0.0729    0.8889
   100   -0.1080   -0.1495    0.0306   -0.0414   -1.3518
   101    1.1860    1.2699    0.1143    0.0838    0.7339
   102    1.3837    1.3463   -0.0356   -0.0374    1.0478
   103   -1.1989   -1.9113   -0.7980   -0.7125    0.8928
   104   -2.4537   -3.0858    2.4096   -0.6322   -0.2623
   105   -0.4636   -1.1199   -0.7097   -0.6563    0.9247
   106    1.5100    0.9060   -0.6391   -0.6039    0.9450
   107    0.4377   -0.2276   -0.6912   -0.6653    0.9626
   108    2.2784    1.8737   -0.3141   -0.4047    1.2885
   109   -2.9595    2.8625    2.8049    5.8220    2.0757
   110    1.2369    0.8611   -0.2952   -0.3758    1.2731
   111   -0.5114   -1.0314   -0.4534   -0.5200    1.1469
   112    0.4238    0.1283   -0.2293   -0.2954    1.2885
   113   -2.4272   -2.6683   -0.1945   -0.2411    1.2398
   114   -1.1255   -1.3319   -0.1863   -0.2064    1.1082
   115    2.0803    2.0116   -0.0031   -0.0687
   116    3.1237    3.0951   -3.1150   -0.0285    0.0092
   117   -2.5125   -2.7654   -0.2524   -0.2529    1.0021
   118    0.9197    0.7212   -0.2176   -0.1986    0.9127
   119    2.2215    2.0576   -0.2094   -0.1639    0.7828
   120   -0.8560   -0.8822   -0.0262   -0.0262    0.9988
   121    0.1874    0.2014    0.0035    0.0140
   122   -2.0192   -2.3476   -0.2585   -0.3284    1.2705
   123   -2.8120    3.0577    2.8263    5.8697    2.0768
   124   -1.1286   -1.4333   -0.2380   -0.3047    1.2799
   125    2.2482    1.7774   -0.4036   -0.4708    1.1665
   126    0.6614    0.5341   -0.2435   -0.1273    0.5226
   127    0.2586   -0.0330   -0.2099   -0.2916    1.3893
   128    1.2449    1.5197    0.3631    0.2748    0.7568
   129    0.6749    1.1481    0.5585    0.4732    0.8472
   130    2.3896    2.7718   -2.6517    0.3821   -0.1441
   131    3.0190   -3.1058   -2.8815   -6.1248    2.1256
   132   -2.9277   -2.3204    0.6955    0.6073    0.8732
   133   -0.7936   -0.4893    0.3680    0.3043    0.8267
   134   -1.9982   -1.7251    0.3475    0.2731    0.7858
   135   -0.6604   -0.0038    0.6757    0.6566    0.9717
   136    0.0542    0.8316    0.7925    0.7774    0.9810
   137   -1.4774   -0.8643    0.6583    0.6131    0.9313
   138   -1.6939   -1.0723    0.6408    0.6216    0.9700
   139    2.9457   -2.8757   -2.4684   -5.8214    2.3584
   140   -3.0297   -2.4853    0.6006    0.5444    0.9064
   141    1.5051    2.2363    0.7719    0.7312    0.9472
   142   -2.9056   -2.2769    0.6332    0.6287    0.9930

 GradGradGradGradGradGradGradGradGradGradGradGradGradGradGradGradGradGrad
 Berny optimization.
 Initialization pass.
                           ----------------------------
                           !    Initial Parameters    !
                           ! (Angstroms and Degrees)  !
 --------------------------                            --------------------------
 ! Name  Definition         TS        Reactant Product Derivative Info.         !
 --------------------------------------------------------------------------------
 ! R1    R(1,2)             2.2298    2.181     2.262  estimate D2E/DX2         !
 ! R2    R(1,3)             2.2871    2.3167    2.3494 estimate D2E/DX2         !
 ! R3    R(1,4)             2.3414    2.3358    2.3682 estimate D2E/DX2         !
 ! R4    R(1,5)             2.3394    2.3401    2.3387 estimate D2E/DX2         !
 ! R5    R(1,7)             2.7218    2.7124    2.7013 estimate D2E/DX2         !
 ! R6    R(1,12)            2.8524    2.9288    2.7902 estimate D2E/DX2         !
 ! R7    R(2,12)            2.4452    2.582     2.2974 estimate D2E/DX2         !
 ! R8    R(3,7)             2.3205    2.3113    2.2826 estimate D2E/DX2         !
 ! R9    R(4,7)             2.3642    2.3608    2.3515 estimate D2E/DX2         !
 ! R10   R(4,12)            2.5177    2.5697    2.4673 estimate D2E/DX2         !
 ! R11   R(5,6)             1.3506    1.3531    1.3481 estimate D2E/DX2         !
 ! R12   R(7,8)             2.3477    2.3419    2.3535 estimate D2E/DX2         !
 ! R13   R(7,10)            2.3385    2.4202    2.2295 estimate D2E/DX2         !
 ! R14   R(7,12)            2.7864    2.7401    2.8348 estimate D2E/DX2         !
 ! R15   R(8,9)             1.3514    1.3508    1.352  estimate D2E/DX2         !
 ! R16   R(10,11)           2.1012    1.3523    2.8042 estimate D2E/DX2         !
 ! R17   R(10,12)           2.4703    2.5417    2.454  estimate D2E/DX2         !
 ! R18   R(11,12)           2.8177    3.1227    2.536  estimate D2E/DX2         !
 ! R19   R(11,16)           1.6669    2.5506    0.7509 estimate D2E/DX2         !
 ! R20   R(12,13)           2.4359    2.3717    2.5002 estimate D2E/DX2         !
 ! R21   R(12,15)           2.4025    2.4244    2.3807 estimate D2E/DX2         !
 ! R22   R(12,16)           2.1216    1.674     2.5663 estimate D2E/DX2         !
 ! R23   R(13,14)           1.3521    1.3516    1.3526 estimate D2E/DX2         !
 ! R24   R(15,17)           1.3495    1.353     1.346  estimate D2E/DX2         !
 ! A1    A(2,1,3)         106.1226  113.7464  105.0676 estimate D2E/DX2         !
 ! A2    A(2,1,4)         108.809   104.3002  107.7835 estimate D2E/DX2         !
 ! A3    A(2,1,5)         114.197   108.5524  117.9339 estimate D2E/DX2         !
 ! A4    A(2,1,7)         105.4086  112.4668  100.5119 estimate D2E/DX2         !
 ! A5    A(3,1,4)         106.6329  107.6392  104.1899 estimate D2E/DX2         !
 ! A6    A(3,1,5)         117.4143  114.0942  122.9157 estimate D2E/DX2         !
 ! A7    A(3,1,12)        100.7108   95.3398  104.5036 estimate D2E/DX2         !
 ! A8    A(4,1,5)         103.1759  107.8953   96.7915 estimate D2E/DX2         !
 ! A9    A(5,1,7)         139.7024  138.3566  138.6598 estimate D2E/DX2         !
 ! A10   A(5,1,12)        141.362   150.4047  130.8374 estimate D2E/DX2         !
 ! A11   A(1,5,6)         102.45     97.8785  107.0214 estimate D2E/DX2         !
 ! A12   A(1,7,8)         136.0571  133.0485  141.4693 estimate D2E/DX2         !
 ! A13   A(1,7,10)        109.3857  117.2042  102.8342 estimate D2E/DX2         !
 ! A14   A(3,7,4)         104.8087  106.9801  106.8715 estimate D2E/DX2         !
 ! A15   A(3,7,8)         120.7847  125.9791  114.1797 estimate D2E/DX2         !
 ! A16   A(3,7,10)        109.1246  111.9684  105.269  estimate D2E/DX2         !
 ! A17   A(3,7,12)        101.7912  100.7227  104.9674 estimate D2E/DX2         !
 ! A18   A(4,7,8)          98.0679   93.5839  104.7667 estimate D2E/DX2         !
 ! A19   A(4,7,10)        110.3843  111.1226  110.0074 estimate D2E/DX2         !
 ! A20   A(8,7,10)        112.5152  105.4786  115.4785 estimate D2E/DX2         !
 ! A21   A(8,7,12)        136.0285  132.208   140.3628 estimate D2E/DX2         !
 ! A22   A(7,8,9)          99.4167  106.0039   92.8294 estimate D2E/DX2         !
 ! A23   A(7,10,11)        96.704    95.4101   95.2622 estimate D2E/DX2         !
 ! A24   A(11,10,12)       75.6207  102.2798   57.2064 estimate D2E/DX2         !
 ! A25   A(1,12,10)       101.7243  106.3016   94.757  estimate D2E/DX2         !
 ! A26   A(1,12,11)       129.5174  115.4923  142.3935 estimate D2E/DX2         !
 ! A27   A(1,12,13)       125.1076  117.8071  132.3465 estimate D2E/DX2         !
 ! A28   A(1,12,15)       109.1636  107.598   110.0772 estimate D2E/DX2         !
 ! A29   A(1,12,16)       133.1703  131.7832  136.2556 estimate D2E/DX2         !
 ! A30   A(2,12,4)         97.0127   87.6649  103.424  estimate D2E/DX2         !
 ! A31   A(2,12,7)         97.8528  100.0119   95.8581 estimate D2E/DX2         !
 ! A32   A(2,12,10)       112.6616  130.776    98.8311 estimate D2E/DX2         !
 ! A33   A(2,12,11)       158.5415  153.5003  159.0392 estimate D2E/DX2         !
 ! A34   A(2,12,13)        80.3827   84.1677   81.5116 estimate D2E/DX2         !
 ! A35   A(2,12,15)        94.0741   85.3931  105.5641 estimate D2E/DX2         !
 ! A36   L(2,12,16,4,-1)  179.0683  169.7044  187.4798 estimate D2E/DX2         !
 ! A37   L(2,12,16,4,-2)  195.3221  207.9376  183.1005 estimate D2E/DX2         !
 ! A38   A(4,12,10)       101.4468  100.9667   99.403  estimate D2E/DX2         !
 ! A39   A(4,12,11)        92.3045   89.6918   95.2424 estimate D2E/DX2         !
 ! A40   L(4,12,13,2,-1)  177.3954  171.8326  184.9356 estimate D2E/DX2         !
 ! A41   L(4,12,13,2,-2)  183.551   190.5994  176.8071 estimate D2E/DX2         !
 ! A42   A(4,12,15)        91.8307   88.8329   87.0712 estimate D2E/DX2         !
 ! A43   A(4,12,16)        82.0556   82.0395   84.0558 estimate D2E/DX2         !
 ! A44   A(7,12,11)        72.688    58.4429   88.0616 estimate D2E/DX2         !
 ! A45   A(7,12,13)       124.021   118.494   131.1566 estimate D2E/DX2         !
 ! A46   A(7,12,15)       143.5457  140.4312  137.6121 estimate D2E/DX2         !
 ! A47   A(7,12,16)        93.63     95.7068   91.1563 estimate D2E/DX2         !
 ! A48   A(10,12,11)       46.2497   25.033    68.3595 estimate D2E/DX2         !
 ! A49   A(10,12,13)       76.5072   76.7581   82.7535 estimate D2E/DX2         !
 ! A50   A(10,12,15)      148.053   142.3832  152.5814 estimate D2E/DX2         !
 ! A51   A(10,12,16)       82.2979   78.7134   82.7293 estimate D2E/DX2         !
 ! A52   A(11,12,13)       89.0102   92.9006   80.4523 estimate D2E/DX2         !
 ! A53   A(11,12,15)      104.9388  120.923    84.5954 estimate D2E/DX2         !
 ! A54   A(13,12,15)       91.8599  101.0076   88.5776 estimate D2E/DX2         !
 ! A55   A(13,12,16)      101.3861  110.0803   90.8574 estimate D2E/DX2         !
 ! A56   A(15,12,16)       70.8197   66.6939   71.3994 estimate D2E/DX2         !
 ! A57   A(12,13,14)      100.3939  100.7969   99.991  estimate D2E/DX2         !
 ! A58   A(12,15,17)      103.6071  102.4831  104.7311 estimate D2E/DX2         !
 ! D1    D(2,1,5,6)      -171.7223  175.2377 -142.9576 estimate D2E/DX2         !
 ! D2    D(3,1,5,6)        63.1066   47.2575   83.1158 estimate D2E/DX2         !
 ! D3    D(4,1,5,6)       -53.8033  -72.2949  -28.6719 estimate D2E/DX2         !
 ! D4    D(7,1,5,6)        -3.115   -15.0075   13.294  estimate D2E/DX2         !
 ! D5    D(12,1,5,6)     -106.6768 -126.35    -79.4018 estimate D2E/DX2         !
 ! D6    D(2,1,7,8)       162.6216  147.6926  172.7275 estimate D2E/DX2         !
 ! D7    D(2,1,7,10)        0.8004   -5.2775   -1.179  estimate D2E/DX2         !
 ! D8    D(5,1,7,8)        -6.6067  -21.7939   13.9428 estimate D2E/DX2         !
 ! D9    D(5,1,7,10)     -168.4279 -174.764  -159.9637 estimate D2E/DX2         !
 ! D10   D(3,1,12,10)      -7.6198  -16.8824    0.5949 estimate D2E/DX2         !
 ! D11   D(3,1,12,11)     -49.5187  -41.8711  -59.512  estimate D2E/DX2         !
 ! D12   D(3,1,12,13)      74.0202   66.4806   85.1198 estimate D2E/DX2         !
 ! D13   D(3,1,12,15)    -179.3424  179.6685 -167.5811 estimate D2E/DX2         !
 ! D14   D(3,1,12,16)     -98.0211 -106.187   -83.8548 estimate D2E/DX2         !
 ! D15   D(5,1,12,10)     163.1592  157.2585  165.4959 estimate D2E/DX2         !
 ! D16   D(5,1,12,11)     121.2604  132.2698  105.3889 estimate D2E/DX2         !
 ! D17   D(5,1,12,13)    -115.2007 -119.3784 -109.9792 estimate D2E/DX2         !
 ! D18   D(5,1,12,15)      -8.5633   -6.1906   -2.6801 estimate D2E/DX2         !
 ! D19   D(5,1,12,16)      72.7579   67.9539   81.0462 estimate D2E/DX2         !
 ! D20   D(1,4,7,12)       77.1374   79.2775   75.1926 estimate D2E/DX2         !
 ! D21   D(1,7,8,9)      -109.5116  -68.6891 -160.1369 estimate D2E/DX2         !
 ! D22   D(3,7,8,9)      -176.8055 -140.5853  135.5375 estimate D2E/DX2         !
 ! D23   D(4,7,8,9)       -64.1658  -26.5648 -107.8884 estimate D2E/DX2         !
 ! D24   D(10,7,8,9)       51.9114   86.5144   13.2797 estimate D2E/DX2         !
 ! D25   D(12,7,8,9)      -13.0392   25.0804  -54.124  estimate D2E/DX2         !
 ! D26   D(1,7,10,11)     107.3531  130.5421   94.5479 estimate D2E/DX2         !
 ! D27   D(3,7,10,11)     164.0082 -169.5676  151.8491 estimate D2E/DX2         !
 ! D28   D(4,7,10,11)      49.3347   70.8666   37.0417 estimate D2E/DX2         !
 ! D29   D(8,7,10,11)     -59.0929  -29.3003  -81.2515 estimate D2E/DX2         !
 ! D30   D(3,7,12,2)        7.3514   24.2792   -1.9959 estimate D2E/DX2         !
 ! D31   D(3,7,12,11)    -152.8829 -139.0688 -161.3524 estimate D2E/DX2         !
 ! D32   D(3,7,12,13)     -76.3117  -64.4843  -85.8306 estimate D2E/DX2         !
 ! D33   D(3,7,12,15)     115.2543  119.1898  118.8352 estimate D2E/DX2         !
 ! D34   D(3,7,12,16)     177.3389  178.9739 -177.9808 estimate D2E/DX2         !
 ! D35   D(8,7,12,2)     -158.4466 -143.9552 -172.8772 estimate D2E/DX2         !
 ! D36   D(8,7,12,11)      41.3192   52.6968   27.7662 estimate D2E/DX2         !
 ! D37   D(8,7,12,13)     117.8903  127.2814  103.2881 estimate D2E/DX2         !
 ! D38   D(8,7,12,15)     -50.5436  -49.0446  -52.0461 estimate D2E/DX2         !
 ! D39   D(8,7,12,16)      11.541    10.7396   11.1379 estimate D2E/DX2         !
 ! D40   D(11,10,12,1)   -134.5055 -115.691  -145.308  estimate D2E/DX2         !
 ! D41   D(11,10,12,2)    175.1953 -161.1157  162.7556 estimate D2E/DX2         !
 ! D42   D(11,10,12,4)    -82.1232  -64.6668  -91.9446 estimate D2E/DX2         !
 ! D43   D(11,10,12,13)   101.8358  128.8102   82.5631 estimate D2E/DX2         !
 ! D44   D(11,10,12,15)    30.6022   37.8943    9.9878 estimate D2E/DX2         !
 ! D45   D(11,10,12,16)    -1.8927   14.8166   -9.238  estimate D2E/DX2         !
 ! D46   D(1,12,13,14)     87.0714   71.3266  112.9361 estimate D2E/DX2         !
 ! D47   D(2,12,13,14)     65.783    38.6703  102.672  estimate D2E/DX2         !
 ! D48   D(7,12,13,14)    158.8101  136.9148 -166.9494 estimate D2E/DX2         !
 ! D49   D(10,12,13,14)  -177.9516  172.9747 -157.2232 estimate D2E/DX2         !
 ! D50   D(11,12,13,14)  -132.9514 -167.7477  -88.0526 estimate D2E/DX2         !
 ! D51   D(15,12,13,14)   -28.0355  -45.4685   -3.2946 estimate D2E/DX2         !
 ! D52   D(16,12,13,14)   -98.8411 -114.4888  -74.6635 estimate D2E/DX2         !
 ! D53   D(1,12,15,17)     -0.2168  -37.8362   39.5949 estimate D2E/DX2         !
 ! D54   D(2,12,15,17)     47.6455    3.1033   93.913  estimate D2E/DX2         !
 ! D55   D(4,12,15,17)    -49.5201  -84.6477   -9.2109 estimate D2E/DX2         !
 ! D56   D(7,12,15,17)    -61.4379  -97.0508  -23.624  estimate D2E/DX2         !
 ! D57   D(10,12,15,17)  -164.7664  168.7756 -114.0814 estimate D2E/DX2         !
 ! D58   D(11,12,15,17)  -142.3956 -173.589  -104.7622 estimate D2E/DX2         !
 ! D59   D(13,12,15,17)   128.1329   86.2382  174.695  estimate D2E/DX2         !
 ! D60   D(16,12,15,17)  -130.4566 -166.4813  -93.9212 estimate D2E/DX2         !
 --------------------------------------------------------------------------------
 Trust Radius=3.00D-01 FncErr=1.00D-07 GrdErr=1.00D-06 EigMax=2.50D+02 EigMin=1.00D-04
 Number of steps in this run=    102 maximum allowed number of steps=    102.
 Search for a saddle point of order  1.
 GradGradGradGradGradGradGradGradGradGradGradGradGradGradGradGradGradGrad

                          Input orientation:                          
 ---------------------------------------------------------------------
 Center     Atomic      Atomic             Coordinates (Angstroms)
 Number     Number       Type             X           Y           Z
 ---------------------------------------------------------------------
      1         42           0       -0.446606    2.184316   11.651174
      2         16           0       -0.124536    4.323381   11.110343
      3         16           0       -2.593599    2.041531   12.426360
      4         16           0       -0.350248    0.890150    9.702301
      5         16           0        1.243070    1.267442   12.984225
      6          1           0        0.917127   -0.043061   13.006988
      7         42           0       -2.607135    1.388765   10.199564
      8         16           0       -3.547752   -0.663310    9.554666
      9          1           0       -3.261803   -0.632375    8.234256
     10         16           0       -3.356748    3.170455    8.883437
     11          1           0       -2.683549    2.415257    7.041832
     12         42           0       -0.893532    3.259637    9.047354
     13         16           0       -1.515407    5.566382    8.572081
     14          1           0       -0.292800    6.140039    8.506347
     15         16           0        1.216275    3.515206    7.926810
     16          1           0       -1.018675    2.386064    7.117949
     17          1           0        2.113339    3.078583    8.835538
 ---------------------------------------------------------------------
                    Distance matrix (angstroms):
                    1          2          3          4          5
     1  Mo   0.000000
     2  S    2.229760   0.000000
     3  S    2.287111   3.610403   0.000000
     4  S    2.341422   3.717608   3.711981   0.000000
     5  S    2.339378   3.836736   3.953537   3.667702   0.000000
     6  H    2.942653   4.873206   4.124057   3.660339   1.350620
     7  Mo   2.721756   3.950290   2.320540   2.364197   4.753224
     8  S    4.703342   6.245449   4.058720   3.557958   6.200133
     9  H    5.247324   6.532522   5.016972   3.598665   6.816552
    10  S    4.135428   4.090910   3.795941   3.861266   6.449515
    11  H    5.128672   5.171293   5.398231   3.853354   7.214419
    12  Mo   2.852357   2.445165   3.973876   2.517654   4.902332
    13  S    4.696969   3.149975   5.333154   4.949963   6.749599
    14  H    5.055823   3.179522   6.120290   5.384695   6.793563
    15  S    4.290376   3.547647   6.077236   3.535149   5.534492
    16  H    4.573630   4.526797   5.547820   3.059972   6.385922
    17  H    3.909072   3.425251   6.010386   3.407312   4.609686
                    6          7          8          9         10
     6  H    0.000000
     7  Mo   4.727809   0.000000
     8  S    5.677885   2.347694   0.000000
     9  H    6.371005   2.894138   1.351371   0.000000
    10  S    6.752508   2.338488   3.896766   3.859011   0.000000
    11  H    7.388590   3.321263   4.066786   3.323298   2.101197
    12  Mo   5.464888   2.786429   4.763587   4.627914   2.470274
    13  S    7.553242   4.614439   6.626082   6.448923   3.037753
    14  H    7.742766   5.549571   7.614411   7.399636   4.283504
    15  S    6.209586   4.930073   6.542619   6.111475   4.684712
    16  H    6.657984   3.607514   4.651075   3.922848   3.032952
    17  H    5.345706   5.196049   6.823991   6.559336   5.471068
                   11         12         13         14         15
    11  H    0.000000
    12  Mo   2.817668   0.000000
    13  S    3.692669   2.435916   0.000000
    14  H    4.662026   2.991703   1.352099   0.000000
    15  S    4.147493   2.402544   3.476461   3.082681   0.000000
    16  H    1.666868   2.121648   3.532090   4.067785   2.631391
    17  H    5.164060   3.019755   4.407533   3.907734   1.349500
                   16         17
    16  H    0.000000
    17  H    3.638572   0.000000
 Symmetry turned off by external request.
 Stoichiometry    H6Mo3S8
 Framework group  C1[X(H6Mo3S8)]
 Deg. of freedom    45
 Full point group                 C1      NOp   1
 Rotational constants (GHZ):           0.2801687           0.2463173           0.1760368
 General basis read from cards:  (5D, 7F)
 ======================================================================================================
                                       Pseudopotential Parameters
 ======================================================================================================
  Center     Atomic      Valence      Angular      Power
  Number     Number     Electrons     Momentum     of R      Exponent        Coefficient   SO-Coeffient
 ======================================================================================================
    1         42           14
                                      F and up 
                                                     0      537.9667807       -0.04694920    0.00000000
                                                     1      147.8982938      -20.20800840    0.00000000
                                                     2       45.7358898     -106.21163020    0.00000000
                                                     2       13.2911467      -41.81073680    0.00000000
                                                     2        4.7059961       -4.20541030    0.00000000
                                      S - F
                                                     0      110.2991760        2.80637170    0.00000000
                                                     1       23.2014645       44.51620120    0.00000000
                                                     2        5.3530131       82.77852270    0.00000000
                                      P - F
                                                     0       63.2901397        4.94208760    0.00000000
                                                     1       23.3315302       25.86049760    0.00000000
                                                     2       24.6759423      132.47087420    0.00000000
                                                     2        4.6493040       57.31497940    0.00000000
                                      D - F
                                                     0      104.4839977        3.00545910    0.00000000
                                                     1       66.2307245       26.36378510    0.00000000
                                                     2       39.1283176      183.38491990    0.00000000
                                                     2       13.1164437       98.44530680    0.00000000
                                                     2        3.6280263       22.49013770    0.00000000
    2         16
                                   No pseudopotential on this center.
    3         16
                                   No pseudopotential on this center.
    4         16
                                   No pseudopotential on this center.
    5         16
                                   No pseudopotential on this center.
    6          1
                                   No pseudopotential on this center.
    7         42           14
                                      F and up 
                                                     0      537.9667807       -0.04694920    0.00000000
                                                     1      147.8982938      -20.20800840    0.00000000
                                                     2       45.7358898     -106.21163020    0.00000000
                                                     2       13.2911467      -41.81073680    0.00000000
                                                     2        4.7059961       -4.20541030    0.00000000
                                      S - F
                                                     0      110.2991760        2.80637170    0.00000000
                                                     1       23.2014645       44.51620120    0.00000000
                                                     2        5.3530131       82.77852270    0.00000000
                                      P - F
                                                     0       63.2901397        4.94208760    0.00000000
                                                     1       23.3315302       25.86049760    0.00000000
                                                     2       24.6759423      132.47087420    0.00000000
                                                     2        4.6493040       57.31497940    0.00000000
                                      D - F
                                                     0      104.4839977        3.00545910    0.00000000
                                                     1       66.2307245       26.36378510    0.00000000
                                                     2       39.1283176      183.38491990    0.00000000
                                                     2       13.1164437       98.44530680    0.00000000
                                                     2        3.6280263       22.49013770    0.00000000
    8         16
                                   No pseudopotential on this center.
    9          1
                                   No pseudopotential on this center.
   10         16
                                   No pseudopotential on this center.
   11          1
                                   No pseudopotential on this center.
   12         42           14
                                      F and up 
                                                     0      537.9667807       -0.04694920    0.00000000
                                                     1      147.8982938      -20.20800840    0.00000000
                                                     2       45.7358898     -106.21163020    0.00000000
                                                     2       13.2911467      -41.81073680    0.00000000
                                                     2        4.7059961       -4.20541030    0.00000000
                                      S - F
                                                     0      110.2991760        2.80637170    0.00000000
                                                     1       23.2014645       44.51620120    0.00000000
                                                     2        5.3530131       82.77852270    0.00000000
                                      P - F
                                                     0       63.2901397        4.94208760    0.00000000
                                                     1       23.3315302       25.86049760    0.00000000
                                                     2       24.6759423      132.47087420    0.00000000
                                                     2        4.6493040       57.31497940    0.00000000
                                      D - F
                                                     0      104.4839977        3.00545910    0.00000000
                                                     1       66.2307245       26.36378510    0.00000000
                                                     2       39.1283176      183.38491990    0.00000000
                                                     2       13.1164437       98.44530680    0.00000000
                                                     2        3.6280263       22.49013770    0.00000000
   13         16
                                   No pseudopotential on this center.
   14          1
                                   No pseudopotential on this center.
   15         16
                                   No pseudopotential on this center.
   16          1
                                   No pseudopotential on this center.
   17          1
                                   No pseudopotential on this center.
 ======================================================================================================
   240 basis functions,   605 primitive gaussians,   254 cartesian basis functions
    88 alpha electrons       88 beta electrons
       nuclear repulsion energy      2082.1344775466 Hartrees.
 NAtoms=   17 NActive=   17 NUniq=   17 SFac= 1.00D+00 NAtFMM=   60 NAOKFM=F Big=F
 Integral buffers will be    131072 words long.
 Raffenetti 2 integral format.
 Two-electron integral symmetry is turned off.
 One-electron integrals computed using PRISM.
   1 Symmetry operations used in ECPInt.
 ECPInt:  NShTT=    3403 NPrTT=   23974 LenC2=    3157 LenP2D=   15282.
 LDataN:  DoStor=T MaxTD1= 5 Len=  102
 NBasis=   240 RedAO= T EigKep=  1.35D-03  NBF=   240
 NBsUse=   240 1.00D-06 EigRej= -1.00D+00 NBFU=   240
 Defaulting to unpruned grid for atomic number  42.
 Defaulting to unpruned grid for atomic number  42.
 Defaulting to unpruned grid for atomic number  42.
 ExpMin= 2.47D-02 ExpMax= 2.19D+04 ExpMxC= 3.30D+03 IAcc=3 IRadAn=         5 AccDes= 0.00D+00
 Harris functional with IExCor=  402 and IRadAn=       5 diagonalized for initial guess.
 HarFok:  IExCor=  402 AccDes= 0.00D+00 IRadAn=         5 IDoV= 1 UseB2=F ITyADJ=14
 ICtDFT=  3500011 ScaDFX=  1.000000  1.000000  1.000000  1.000000
 Defaulting to unpruned grid for atomic number  42.
 FoFCou: FMM=F IPFlag=           0 FMFlag=      100000 FMFlg1=           0
         NFxFlg=           0 DoJE=T BraDBF=F KetDBF=T FulRan=T
         wScrn=  0.000000 ICntrl=       500 IOpCl=  0 I1Cent=   200000004 NGrid=           0
         NMat0=    1 NMatS0=      1 NMatT0=    0 NMatD0=    1 NMtDS0=    0 NMtDT0=    0
 Symmetry not used in FoFCou.
 Requested convergence on RMS density matrix=1.00D-08 within 128 cycles.
 Requested convergence on MAX density matrix=1.00D-06.
 Requested convergence on             energy=1.00D-06.
 No special actions if energy rises.
 Defaulting to unpruned grid for atomic number  42.
 Defaulting to unpruned grid for atomic number  42.
 Defaulting to unpruned grid for atomic number  42.
 Defaulting to unpruned grid for atomic number  42.
 Defaulting to unpruned grid for atomic number  42.
 Defaulting to unpruned grid for atomic number  42.
 Defaulting to unpruned grid for atomic number  42.
 Defaulting to unpruned grid for atomic number  42.
 Defaulting to unpruned grid for atomic number  42.
 Defaulting to unpruned grid for atomic number  42.
 Defaulting to unpruned grid for atomic number  42.
 Defaulting to unpruned grid for atomic number  42.
 Defaulting to unpruned grid for atomic number  42.
 Defaulting to unpruned grid for atomic number  42.
 Defaulting to unpruned grid for atomic number  42.
 Defaulting to unpruned grid for atomic number  42.
 Defaulting to unpruned grid for atomic number  42.
 Defaulting to unpruned grid for atomic number  42.
 Defaulting to unpruned grid for atomic number  42.
 Defaulting to unpruned grid for atomic number  42.
 Defaulting to unpruned grid for atomic number  42.
 Defaulting to unpruned grid for atomic number  42.
 Defaulting to unpruned grid for atomic number  42.
 Defaulting to unpruned grid for atomic number  42.
 EnCoef did     3 forward-backward iterations
 EnCoef did   100 forward-backward iterations
 EnCoef did   100 forward-backward iterations
 EnCoef did     3 forward-backward iterations
 EnCoef did     7 forward-backward iterations
 EnCoef did   100 forward-backward iterations
 EnCoef did     3 forward-backward iterations
 EnCoef did     3 forward-backward iterations
 Restarting incremental Fock formation.
 SCF Done:  E(RB3LYP) =  -3391.90270566     A.U. after   27 cycles
            NFock= 27  Conv=0.34D-08     -V/T= 2.0440

 **********************************************************************

            Population analysis using the SCF Density.

 **********************************************************************

 Alpha  occ. eigenvalues --  -88.90993 -88.90953 -88.90261 -88.90227 -88.89273
 Alpha  occ. eigenvalues --  -88.88913 -88.86482 -88.86318  -7.98661  -7.98435
 Alpha  occ. eigenvalues --   -7.98130  -7.98009  -7.97122  -7.96778  -7.94121
 Alpha  occ. eigenvalues --   -7.94016  -5.94670  -5.94649  -5.94533  -5.94517
 Alpha  occ. eigenvalues --   -5.94359  -5.94306  -5.94102  -5.94082  -5.94031
 Alpha  occ. eigenvalues --   -5.94014  -5.93963  -5.93870  -5.93377  -5.93041
 Alpha  occ. eigenvalues --   -5.92994  -5.92832  -5.92677  -5.92449  -5.90391
 Alpha  occ. eigenvalues --   -5.90313  -5.90028  -5.89939  -5.89815  -5.89655
 Alpha  occ. eigenvalues --   -2.56275  -2.55984  -2.55356  -1.59829  -1.59089
 Alpha  occ. eigenvalues --   -1.58703  -1.58354  -1.58173  -1.57744  -1.57369
 Alpha  occ. eigenvalues --   -1.56921  -1.56276  -0.75381  -0.74656  -0.74137
 Alpha  occ. eigenvalues --   -0.73334  -0.72929  -0.72379  -0.71331  -0.70766
 Alpha  occ. eigenvalues --   -0.45333  -0.44550  -0.43219  -0.42803  -0.41238
 Alpha  occ. eigenvalues --   -0.40364  -0.39884  -0.39570  -0.39185  -0.38811
 Alpha  occ. eigenvalues --   -0.38104  -0.36814  -0.36230  -0.35288  -0.34668
 Alpha  occ. eigenvalues --   -0.34088  -0.33457  -0.32315  -0.31502  -0.31289
 Alpha  occ. eigenvalues --   -0.30451  -0.29657  -0.28987  -0.28115  -0.26653
 Alpha  occ. eigenvalues --   -0.26522  -0.23857  -0.23603
 Alpha virt. eigenvalues --   -0.16326  -0.15453  -0.14699  -0.14599  -0.13376
 Alpha virt. eigenvalues --   -0.13181  -0.11962  -0.10665  -0.09851  -0.08914
 Alpha virt. eigenvalues --   -0.07756  -0.05159  -0.04340  -0.02035  -0.01053
 Alpha virt. eigenvalues --    0.00982   0.01438   0.02648   0.03134   0.03803
 Alpha virt. eigenvalues --    0.04254   0.04744   0.05896   0.06157   0.06436
 Alpha virt. eigenvalues --    0.07390   0.09063   0.11964   0.12606   0.15053
 Alpha virt. eigenvalues --    0.15827   0.16459   0.17746   0.18232   0.20327
 Alpha virt. eigenvalues --    0.20878   0.24709   0.26503   0.27343   0.28202
 Alpha virt. eigenvalues --    0.28770   0.29717   0.30597   0.30972   0.31395
 Alpha virt. eigenvalues --    0.32584   0.32960   0.33402   0.33745   0.34728
 Alpha virt. eigenvalues --    0.34930   0.35414   0.35702   0.36853   0.38048
 Alpha virt. eigenvalues --    0.38876   0.39549   0.40048   0.41376   0.42291
 Alpha virt. eigenvalues --    0.42378   0.43018   0.44107   0.45358   0.46180
 Alpha virt. eigenvalues --    0.47007   0.48025   0.49039   0.50444   0.51342
 Alpha virt. eigenvalues --    0.51685   0.53350   0.54346   0.55770   0.56330
 Alpha virt. eigenvalues --    0.57272   0.58773   0.59886   0.60002   0.61955
 Alpha virt. eigenvalues --    0.62909   0.65438   0.65769   0.68591   0.69372
 Alpha virt. eigenvalues --    0.71402   0.72229   0.72387   0.73805   0.74376
 Alpha virt. eigenvalues --    0.74745   0.74943   0.75803   0.76686   0.77100
 Alpha virt. eigenvalues --    0.77504   0.78812   0.79466   0.80566   0.81066
 Alpha virt. eigenvalues --    0.82597   0.83732   0.84075   0.85181   0.85399
 Alpha virt. eigenvalues --    0.87235   0.88499   0.89452   0.90456   0.93068
 Alpha virt. eigenvalues --    0.93590   0.95321   0.95687   0.96549   0.97007
 Alpha virt. eigenvalues --    0.98733   1.00420   1.00746   1.02026   1.02574
 Alpha virt. eigenvalues --    1.04275   1.05199   1.06158   1.08402   1.12414
 Alpha virt. eigenvalues --    1.13359   1.13717   1.16746   1.17754   1.18933
 Alpha virt. eigenvalues --    1.25620   2.00465   2.03888   2.05126   2.05245
 Alpha virt. eigenvalues --    2.06254   2.07184   2.08231   2.08845   2.10109
 Alpha virt. eigenvalues --    2.10438   2.14592   2.17058   2.29275   2.36708
 Alpha virt. eigenvalues --    2.70349   2.70435   2.73771   2.74596   6.43029
 Alpha virt. eigenvalues --    8.48459  10.28620
          Condensed to atoms (all electrons):
               1          2          3          4          5          6
     1  Mo  13.378920   0.248285   0.208501   0.176969   0.293293  -0.027219
     2  S    0.248285  15.597023   0.005254  -0.023222   0.007401  -0.000177
     3  S    0.208501   0.005254  15.617005  -0.010829   0.013882  -0.000995
     4  S    0.176969  -0.023222  -0.010829  15.531972   0.003314  -0.001670
     5  S    0.293293   0.007401   0.013882   0.003314  15.588926   0.266983
     6  H   -0.027219  -0.000177  -0.000995  -0.001670   0.266983   0.650713
     7  Mo  -0.218778  -0.015835   0.217368   0.175001  -0.016447   0.006303
     8  S   -0.011912   0.000064   0.005652  -0.008185   0.000146  -0.000003
     9  H    0.001769  -0.000000  -0.000165  -0.001219  -0.000000   0.000000
    10  S    0.001125   0.006073   0.006699  -0.014257  -0.000026   0.000001
    11  H    0.004029  -0.000683  -0.000060  -0.002552   0.000000  -0.000000
    12  Mo  -0.135813   0.191834  -0.013165   0.035776  -0.016535   0.000302
    13  S    0.004832  -0.040560   0.001109  -0.007907   0.000001  -0.000000
    14  H    0.001018  -0.002277  -0.000007   0.000154   0.000001   0.000000
    15  S   -0.011781  -0.030604  -0.000135  -0.021326  -0.000107  -0.000001
    16  H    0.003025  -0.001891  -0.000025   0.003257   0.000007   0.000000
    17  H    0.001308  -0.001427   0.000000  -0.003064  -0.000297   0.000001
               7          8          9         10         11         12
     1  Mo  -0.218778  -0.011912   0.001769   0.001125   0.004029  -0.135813
     2  S   -0.015835   0.000064  -0.000000   0.006073  -0.000683   0.191834
     3  S    0.217368   0.005652  -0.000165   0.006699  -0.000060  -0.013165
     4  S    0.175001  -0.008185  -0.001219  -0.014257  -0.002552   0.035776
     5  S   -0.016447   0.000146  -0.000000  -0.000026   0.000000  -0.016535
     6  H    0.006303  -0.000003   0.000000   0.000001  -0.000000   0.000302
     7  Mo  13.460841   0.284858  -0.028549   0.238715  -0.017960  -0.149636
     8  S    0.284858  15.614283   0.265527   0.005560  -0.002460  -0.012911
     9  H   -0.028549   0.265527   0.651399  -0.001517   0.000006   0.005814
    10  S    0.238715   0.005560  -0.001517  15.664538   0.075754   0.112888
    11  H   -0.017960  -0.002460   0.000006   0.075754   0.694740   0.042104
    12  Mo  -0.149636  -0.012911   0.005814   0.112888   0.042104  13.745051
    13  S    0.009694  -0.000005   0.000001  -0.055236  -0.006993   0.243177
    14  H   -0.000507  -0.000000  -0.000000   0.002144   0.000001  -0.027825
    15  S   -0.007100   0.000065  -0.000004  -0.002615  -0.001833   0.351927
    16  H   -0.008447  -0.000491   0.000243  -0.039219   0.108233   0.218709
    17  H    0.002492  -0.000001   0.000000  -0.000070   0.000014  -0.034999
              13         14         15         16         17
     1  Mo   0.004832   0.001018  -0.011781   0.003025   0.001308
     2  S   -0.040560  -0.002277  -0.030604  -0.001891  -0.001427
     3  S    0.001109  -0.000007  -0.000135  -0.000025   0.000000
     4  S   -0.007907   0.000154  -0.021326   0.003257  -0.003064
     5  S    0.000001   0.000001  -0.000107   0.000007  -0.000297
     6  H   -0.000000   0.000000  -0.000001   0.000000   0.000001
     7  Mo   0.009694  -0.000507  -0.007100  -0.008447   0.002492
     8  S   -0.000005  -0.000000   0.000065  -0.000491  -0.000001
     9  H    0.000001  -0.000000  -0.000004   0.000243   0.000000
    10  S   -0.055236   0.002144  -0.002615  -0.039219  -0.000070
    11  H   -0.006993   0.000001  -0.001833   0.108233   0.000014
    12  Mo   0.243177  -0.027825   0.351927   0.218709  -0.034999
    13  S   15.640393   0.263197  -0.027591   0.001979   0.000885
    14  H    0.263197   0.675377  -0.003880  -0.000007  -0.000004
    15  S   -0.027591  -0.003880  15.541778  -0.035035   0.262290
    16  H    0.001979  -0.000007  -0.035035   0.686813   0.001002
    17  H    0.000885  -0.000004   0.262290   0.001002   0.696305
 Mulliken charges:
               1
     1  Mo   0.082429
     2  S    0.060742
     3  S   -0.050088
     4  S    0.167788
     5  S   -0.140541
     6  H    0.105763
     7  Mo   0.067986
     8  S   -0.140188
     9  H    0.106694
    10  S   -0.000558
    11  H    0.107659
    12  Mo  -0.556697
    13  S   -0.026974
    14  H    0.092616
    15  S   -0.014048
    16  H    0.061849
    17  H    0.075568
 Sum of Mulliken charges =  -0.00000
 Mulliken charges with hydrogens summed into heavy atoms:
               1
     1  Mo   0.082429
     2  S    0.060742
     3  S   -0.050088
     4  S    0.167788
     5  S   -0.034778
     7  Mo   0.067986
     8  S   -0.033494
    10  S    0.107102
    12  Mo  -0.494849
    13  S    0.065642
    15  S    0.061520
 Electronic spatial extent (au):  <R**2>=          74744.9258
 Charge=             -0.0000 electrons
 Dipole moment (field-independent basis, Debye):
    X=              0.0629    Y=             -2.5980    Z=              1.3005  Tot=              2.9060
 Quadrupole moment (field-independent basis, Debye-Ang):
   XX=           -180.2392   YY=           -191.4937   ZZ=           -153.6075
   XY=              4.4013   XZ=              3.7439   YZ=            -20.4101
 Traceless Quadrupole moment (field-independent basis, Debye-Ang):
   XX=             -5.1258   YY=            -16.3802   ZZ=             21.5060
   XY=              4.4013   XZ=              3.7439   YZ=            -20.4101
 Octapole moment (field-independent basis, Debye-Ang**2):
  XXX=            650.9322  YYY=          -1349.8838  ZZZ=          -5074.8037  XYY=            259.5386
  XXY=           -440.9890  XXZ=          -1839.8132  XZZ=            260.7090  YZZ=           -609.2277
  YYZ=          -1912.7805  XYZ=             37.6819
 Hexadecapole moment (field-independent basis, Debye-Ang**3):
 XXXX=          -4342.6080 YYYY=          -9372.5646 ZZZZ=        -108504.5168 XXXY=           1212.8032
 XXXZ=           6390.2114 YYYX=           1469.3606 YYYZ=         -13142.2547 ZZZX=           6684.3904
 ZZZY=         -14484.3135 XXYY=          -2348.4182 XXZZ=         -19941.4068 YYZZ=         -21178.6087
 XXYZ=          -4312.3296 YYXZ=           2526.4636 ZZXY=            697.7053
 N-N= 2.082134477547D+03 E-N=-1.215530199779D+04  KE= 3.249062872479D+03
   1 Symmetry operations used in ECPInt.
 ECPInt:  NShTT=    3403 NPrTT=   23974 LenC2=    3157 LenP2D=   15282.
 LDataN:  DoStor=T MaxTD1= 6 Len=  172
 Calling FoFJK, ICntrl=      2127 FMM=F ISym2X=0 I1Cent= 0 IOpClX= 0 NMat=1 NMatS=1 NMatT=0.
 Defaulting to unpruned grid for atomic number  42.
 Defaulting to unpruned grid for atomic number  42.
 Defaulting to unpruned grid for atomic number  42.
 Defaulting to unpruned grid for atomic number  42.
 Defaulting to unpruned grid for atomic number  42.
 Defaulting to unpruned grid for atomic number  42.
 Defaulting to unpruned grid for atomic number  42.
 Defaulting to unpruned grid for atomic number  42.
 Defaulting to unpruned grid for atomic number  42.
 Defaulting to unpruned grid for atomic number  42.
 Defaulting to unpruned grid for atomic number  42.
 Defaulting to unpruned grid for atomic number  42.
 Defaulting to unpruned grid for atomic number  42.
 Defaulting to unpruned grid for atomic number  42.
 Defaulting to unpruned grid for atomic number  42.
 Defaulting to unpruned grid for atomic number  42.
 Defaulting to unpruned grid for atomic number  42.
 Defaulting to unpruned grid for atomic number  42.
 Defaulting to unpruned grid for atomic number  42.
 Defaulting to unpruned grid for atomic number  42.
 Defaulting to unpruned grid for atomic number  42.
 Defaulting to unpruned grid for atomic number  42.
 Defaulting to unpruned grid for atomic number  42.
 Defaulting to unpruned grid for atomic number  42.
 -------------------------------------------------------------------
 Center     Atomic                   Forces (Hartrees/Bohr)
 Number     Number              X              Y              Z
 -------------------------------------------------------------------
      1       42           0.007557946    0.005523736    0.002833756
      2       16           0.001726957   -0.012747209   -0.002048938
      3       16          -0.008862533   -0.002942868   -0.001619681
      4       16          -0.000496299   -0.000815383   -0.003489497
      5       16          -0.000074599    0.000535512   -0.000952186
      6        1          -0.000614346   -0.000402006   -0.000000250
      7       42           0.001910866    0.005530706   -0.004620599
      8       16          -0.002744560    0.002028151    0.000960807
      9        1           0.000913251   -0.000786193   -0.000161083
     10       16           0.004948330   -0.021045173   -0.008362549
     11        1           0.033254438    0.009939376    0.026655189
     12       42          -0.009613770    0.009934167   -0.013986283
     13       16           0.002629438    0.000767337   -0.008057514
     14        1          -0.000245522   -0.000371543   -0.000336922
     15       16           0.001119116    0.003248944   -0.002662641
     16        1          -0.030421474    0.004545431    0.014260722
     17        1          -0.000987240   -0.002942983    0.001587671
 -------------------------------------------------------------------
 Cartesian Forces:  Max     0.033254438 RMS     0.009426817

 GradGradGradGradGradGradGradGradGradGradGradGradGradGradGradGradGradGrad
 Berny optimization.
 FormGI is forming the generalized inverse of G from B-inverse, IUseBI=4.
 Internal  Forces:  Max     0.023249530 RMS     0.003883525
 Search for a saddle point.
 Step number   1 out of a maximum of  102
 All quantities printed in internal units (Hartrees-Bohrs-Radians)
 Second derivative matrix not updated -- first step.
 ITU=  0
 LST/QST climbing along tangent vector
     Eigenvalues ---    0.00230   0.00230   0.00230   0.02088   0.02591
     Eigenvalues ---    0.02872   0.03104   0.03408   0.03998   0.04401
     Eigenvalues ---    0.04976   0.05358   0.05505   0.06178   0.06480
     Eigenvalues ---    0.07033   0.07554   0.08652   0.08845   0.10241
     Eigenvalues ---    0.10321   0.11049   0.11266   0.11306   0.12177
     Eigenvalues ---    0.12654   0.13090   0.13737   0.13884   0.14090
     Eigenvalues ---    0.14170   0.14452   0.14886   0.15986   0.16000
     Eigenvalues ---    0.16000   0.16000   0.16183   0.16423   0.17711
     Eigenvalues ---    0.18276   0.25477   0.25533   0.25590   0.25676
     Eigenvalues --- 1000.000001000.000001000.000001000.000001000.00000
     Eigenvalues --- 1000.000001000.000001000.000001000.000001000.00000
     Eigenvalues --- 1000.000001000.000001000.000001000.000001000.00000
     Eigenvalues --- 1000.000001000.000001000.000001000.000001000.00000
     Eigenvalues --- 1000.000001000.000001000.000001000.000001000.00000
     Eigenvalues --- 1000.000001000.000001000.000001000.000001000.00000
     Eigenvalues --- 1000.000001000.000001000.000001000.000001000.00000
     Eigenvalues --- 1000.000001000.000001000.000001000.000001000.00000
     Eigenvalues --- 1000.000001000.000001000.000001000.000001000.00000
     Eigenvalues --- 1000.000001000.000001000.000001000.000001000.00000
     Eigenvalues --- 1000.000001000.000001000.000001000.000001000.00000
     Eigenvalues --- 1000.000001000.000001000.000001000.000001000.00000
     Eigenvalues --- 1000.000001000.000001000.000001000.000001000.00000
     Eigenvalues --- 1000.000001000.000001000.000001000.000001000.00000
     Eigenvalues --- 1000.000001000.000001000.000001000.000001000.00000
     Eigenvalues --- 1000.000001000.000001000.000001000.000001000.00000
     Eigenvalues --- 1000.000001000.000001000.000001000.000001000.00000
     Eigenvalues --- 1000.000001000.000001000.000001000.000001000.00000
     Eigenvalues --- 1000.000001000.000001000.000001000.000001000.00000
     Eigenvalues --- 1000.000001000.00000
 Eigenvectors required to have negative eigenvalues:
                          D60       D57       D54       D55       D58
   1                    0.26118   0.26118   0.26118   0.26118   0.26118
                          D59       D53       D56       D25       D24
   1                    0.26118   0.26118   0.26118   0.22792   0.22792
 QST in optimization variable space.
 Eigenvectors 1 and   6 swapped, overlap=  1.0000
                        Tangent   TS vect  // Eig F  Eigenval
   1         R1         0.02053  -0.02053  -0.00706   0.02872
   2         R2         0.00495  -0.00495  -0.00037   0.00230
   3         R3         0.00741  -0.00741   0.00037   0.00230
   4         R4        -0.00032   0.00032  -0.00743   0.02088
   5         R5        -0.00186   0.00186   0.00281   0.02591
   6         R6        -0.03509   0.03509   0.00101   0.00230
   7         R7        -0.06461   0.06461  -0.00590   0.03104
   8         R8        -0.00608   0.00608   0.00017   0.03408
   9         R9        -0.00195   0.00195  -0.00671   0.03998
  10         R10       -0.02271   0.02271  -0.00865   0.04401
  11         R11       -0.00115   0.00115  -0.00662   0.04976
  12         R12        0.00265  -0.00265  -0.00818   0.05358
  13         R13       -0.04523   0.04523   0.00303   0.05505
  14         R14        0.02391  -0.02391  -0.00146   0.06178
  15         R15        0.00028  -0.00028  -0.00384   0.06480
  16         R16        0.33516  -0.33516  -0.00011   0.07033
  17         R17       -0.01499   0.01499  -0.00195   0.07554
  18         R18       -0.13583   0.13583  -0.00099   0.08652
  19         R19       -0.42029   0.42029  -0.00113   0.08845
  20         R20        0.02954  -0.02954   0.00033   0.10241
  21         R21       -0.01003   0.01003  -0.00436   0.10321
  22         R22        0.20442  -0.20442   0.00632   0.11049
  23         R23        0.00023  -0.00023   0.00006   0.11266
  24         R24       -0.00161   0.00161   0.00441   0.11306
  25         A1        -0.01855   0.01855   0.00027   0.12177
  26         A2         0.00687  -0.00687  -0.00027   0.12654
  27         A3         0.02225  -0.02225  -0.00445   0.13090
  28         A4        -0.02697   0.02697   0.00037   0.13737
  29         A5        -0.00761   0.00761  -0.00030   0.13884
  30         A6         0.01776  -0.01776  -0.00120   0.14090
  31         A7         0.02045  -0.02045  -0.00054   0.14170
  32         A8        -0.02239   0.02239  -0.00243   0.14452
  33         A9         0.00169  -0.00169  -0.00118   0.14886
  34         A10       -0.04078   0.04078   0.00100   0.15986
  35         A11        0.01941  -0.01941  -0.00038   0.16000
  36         A12        0.01854  -0.01854  -0.00242   0.16000
  37         A13       -0.02895   0.02895  -0.00144   0.16000
  38         A14       -0.00134   0.00134  -0.00337   0.16183
  39         A15       -0.02503   0.02503   0.00443   0.16423
  40         A16       -0.01231   0.01231  -0.00034   0.17711
  41         A17        0.00721  -0.00721   0.00352   0.18276
  42         A18        0.02484  -0.02484  -0.00018   0.25477
  43         A19       -0.00281   0.00281   0.00017   0.25533
  44         A20        0.02019  -0.02019   0.00027   0.25590
  45         A21        0.01953  -0.01953   0.00069   0.25676
  46         A22       -0.02796   0.02796  -0.000001000.00000
  47         A23        0.00414  -0.00414   0.000001000.00000
  48         A24       -0.08969   0.08969  -0.000001000.00000
  49         A25       -0.02440   0.02440  -0.000001000.00000
  50         A26        0.06124  -0.06124   0.000001000.00000
  51         A27        0.03063  -0.03063   0.000001000.00000
  52         A28        0.00400  -0.00400  -0.000001000.00000
  53         A29        0.00900  -0.00900   0.000001000.00000
  54         A30        0.03377  -0.03377  -0.000001000.00000
  55         A31       -0.01064   0.01064   0.000001000.00000
  56         A32       -0.06830   0.06830   0.000001000.00000
  57         A33        0.01033  -0.01033   0.000001000.00000
  58         A34       -0.00556   0.00556   0.000001000.00000
  59         A35        0.04136  -0.04136   0.000001000.00000
  60         A36        0.03628  -0.03628  -0.000001000.00000
  61         A37       -0.05071   0.05071  -0.000001000.00000
  62         A38       -0.00555   0.00555  -0.000001000.00000
  63         A39        0.01517  -0.01517   0.000001000.00000
  64         A40        0.02821  -0.02821  -0.000001000.00000
  65         A41       -0.02848   0.02848   0.000001000.00000
  66         A42       -0.00312   0.00312   0.000001000.00000
  67         A43        0.00251  -0.00251  -0.000001000.00000
  68         A44        0.06640  -0.06640   0.000001000.00000
  69         A45        0.02653  -0.02653   0.000001000.00000
  70         A46       -0.00527   0.00527  -0.000001000.00000
  71         A47       -0.00783   0.00783  -0.000001000.00000
  72         A48        0.09080  -0.09080   0.000001000.00000
  73         A49        0.01429  -0.01429   0.000001000.00000
  74         A50        0.02203  -0.02203   0.000001000.00000
  75         A51        0.01060  -0.01060   0.000001000.00000
  76         A52       -0.03012   0.03012  -0.000001000.00000
  77         A53       -0.07785   0.07785  -0.000001000.00000
  78         A54       -0.02537   0.02537  -0.000001000.00000
  79         A55       -0.03958   0.03958  -0.000001000.00000
  80         A56        0.00720  -0.00720   0.000001000.00000
  81         A57       -0.00171   0.00171   0.000001000.00000
  82         A58        0.00477  -0.00477   0.000001000.00000
  83         D1         0.08634  -0.08634   0.000001000.00000
  84         D2         0.07584  -0.07584  -0.000001000.00000
  85         D3         0.09165  -0.09165   0.000001000.00000
  86         D4         0.05937  -0.05937   0.000001000.00000
  87         D5         0.09743  -0.09743   0.000001000.00000
  88         D6         0.05340  -0.05340  -0.000001000.00000
  89         D7         0.00988  -0.00988  -0.000001000.00000
  90         D8         0.07554  -0.07554   0.000001000.00000
  91         D9         0.03203  -0.03203  -0.000001000.00000
  92         D10        0.03491  -0.03491   0.000001000.00000
  93         D11       -0.03335   0.03335  -0.000001000.00000
  94         D12        0.03912  -0.03912   0.000001000.00000
  95         D13        0.02576  -0.02576  -0.000001000.00000
  96         D14        0.04121  -0.04121  -0.000001000.00000
  97         D15        0.01634  -0.01634  -0.000001000.00000
  98         D16       -0.05193   0.05193  -0.000001000.00000
  99         D17        0.02054  -0.02054  -0.000001000.00000
 100         D18        0.00719  -0.00719  -0.000001000.00000
 101         D19        0.02263  -0.02263  -0.000001000.00000
 102         D20       -0.00980   0.00980  -0.000001000.00000
 103         D21       -0.19235   0.19235  -0.000001000.00000
 104         D22       -0.17710   0.17710  -0.000001000.00000
 105         D23       -0.17131   0.17131   0.000001000.00000
 106         D24       -0.15405   0.15405  -0.000001000.00000
 107         D25       -0.16765   0.16765  -0.000001000.00000
 108         D26       -0.07394   0.07394  -0.000001000.00000
 109         D27       -0.07961   0.07961  -0.000001000.00000
 110         D28       -0.06945   0.06945   0.000001000.00000
 111         D29       -0.10850   0.10850  -0.000001000.00000
 112         D30       -0.05732   0.05732   0.000001000.00000
 113         D31       -0.04435   0.04435   0.000001000.00000
 114         D32       -0.04523   0.04523  -0.000001000.00000
 115         D33       -0.00235   0.00235  -0.000001000.00000
 116         D34        0.00230  -0.00230  -0.000001000.00000
 117         D35       -0.06138   0.06138   0.000001000.00000
 118         D36       -0.04841   0.04841  -0.000001000.00000
 119         D37       -0.04929   0.04929   0.000001000.00000
 120         D38       -0.00641   0.00641   0.000001000.00000
 121         D39       -0.00176   0.00176   0.000001000.00000
 122         D40       -0.06242   0.06242  -0.000001000.00000
 123         D41       -0.07248   0.07248   0.000001000.00000
 124         D42       -0.05771   0.05771   0.000001000.00000
 125         D43       -0.09898   0.09898  -0.000001000.00000
 126         D44       -0.05472   0.05472   0.000001000.00000
 127         D45       -0.05174   0.05174   0.000001000.00000
 128         D46        0.08543  -0.08543   0.000001000.00000
 129         D47        0.13531  -0.13531   0.000001000.00000
 130         D48        0.11513  -0.11513  -0.000001000.00000
 131         D49        0.05956  -0.05956  -0.000001000.00000
 132         D50        0.16775  -0.16775  -0.000001000.00000
 133         D51        0.08922  -0.08922   0.000001000.00000
 134         D52        0.08558  -0.08558  -0.000001000.00000
 135         D53        0.16399  -0.16399  -0.000001000.00000
 136         D54        0.19361  -0.19361  -0.000001000.00000
 137         D55        0.15826  -0.15826  -0.000001000.00000
 138         D56        0.15504  -0.15504  -0.000001000.00000
 139         D57        0.15777  -0.15777   0.000001000.00000
 140         D58        0.14692  -0.14692   0.000001000.00000
 141         D59        0.18721  -0.18721  -0.000001000.00000
 142         D60        0.15385  -0.15385   0.000001000.00000
 RFO step:  Lambda0=3.036128900D-02 Lambda=-8.84456839D-03.
 Linear search not attempted -- option 19 set.
 Maximum step size (   0.300) exceeded in Quadratic search.
    -- Step size scaled by   0.109
 Iteration  1 RMS(Cart)=  0.03815328 RMS(Int)=  0.00133753
 Iteration  2 RMS(Cart)=  0.00124680 RMS(Int)=  0.00021654
 Iteration  3 RMS(Cart)=  0.00000106 RMS(Int)=  0.00021654
 Iteration  4 RMS(Cart)=  0.00000000 RMS(Int)=  0.00021654
 Variable       Old X    -DE/DX   Delta X   Delta X   Delta X     New X
                                 (Linear)    (Quad)   (Total)
    R1        4.21364  -0.00592   0.00000  -0.01157  -0.01145   4.20218
    R2        4.32201   0.00691   0.00000   0.00007   0.00007   4.32209
    R3        4.42465   0.00073   0.00000  -0.00271  -0.00265   4.42200
    R4        4.42078  -0.00109   0.00000  -0.00025  -0.00025   4.42054
    R5        5.14337   0.00041   0.00000   0.00084   0.00088   5.14425
    R6        5.39017   0.00268   0.00000   0.01826   0.01797   5.40814
    R7        4.62069  -0.00410   0.00000   0.02866   0.02878   4.64947
    R8        4.38519  -0.00271   0.00000   0.00174   0.00165   4.38684
    R9        4.46769  -0.00005   0.00000   0.00087   0.00091   4.46860
   R10        4.75768   0.00028   0.00000   0.01116   0.01122   4.76890
   R11        2.55230   0.00054   0.00000   0.00065   0.00065   2.55295
   R12        4.43650  -0.00057   0.00000  -0.00146  -0.00146   4.43504
   R13        4.41910  -0.00991   0.00000   0.01705   0.01686   4.43597
   R14        5.26559   0.00057   0.00000  -0.01050  -0.01037   5.25522
   R15        2.55372   0.00033   0.00000  -0.00006  -0.00006   2.55366
   R16        3.97069  -0.01428   0.00000  -0.17411  -0.17409   3.79660
   R17        4.66814  -0.00141   0.00000   0.00619   0.00665   4.67480
   R18        5.32462  -0.01720   0.00000   0.03863   0.03848   5.36310
   R19        3.14992  -0.02325   0.00000   0.17302   0.17266   3.32259
   R20        4.60321   0.00140   0.00000  -0.01327  -0.01327   4.58995
   R21        4.54015   0.00065   0.00000   0.00499   0.00499   4.54514
   R22        4.00933  -0.01521   0.00000  -0.10985  -0.10988   3.89945
   R23        2.55510  -0.00036   0.00000  -0.00018  -0.00018   2.55491
   R24        2.55018   0.00137   0.00000   0.00103   0.00103   2.55122
    A1        1.85219   0.00191   0.00000   0.00961   0.00982   1.86201
    A2        1.89907  -0.00225   0.00000  -0.00446  -0.00469   1.89438
    A3        1.99311   0.00017   0.00000  -0.01035  -0.01032   1.98279
    A4        1.83973   0.00030   0.00000   0.01294   0.01293   1.85266
    A5        1.86110  -0.00103   0.00000   0.00331   0.00324   1.86434
    A6        2.04927   0.00033   0.00000  -0.00801  -0.00810   2.04117
    A7        1.75774  -0.00147   0.00000  -0.01031  -0.01029   1.74744
    A8        1.80076   0.00037   0.00000   0.01045   0.01054   1.81130
    A9        2.43827  -0.00068   0.00000  -0.00133  -0.00141   2.43685
   A10        2.46723   0.00099   0.00000   0.01945   0.01949   2.48672
   A11        1.78809  -0.00105   0.00000  -0.00946  -0.00946   1.77863
   A12        2.37465  -0.00040   0.00000  -0.00856  -0.00854   2.36610
   A13        1.90914   0.00154   0.00000   0.01415   0.01417   1.92331
   A14        1.82926   0.00207   0.00000   0.00165   0.00161   1.83087
   A15        2.10809  -0.00196   0.00000   0.01119   0.01118   2.11927
   A16        1.90458   0.00073   0.00000   0.00573   0.00582   1.91040
   A17        1.77659   0.00137   0.00000  -0.00298  -0.00310   1.77349
   A18        1.71161   0.00068   0.00000  -0.01112  -0.01106   1.70055
   A19        1.92657  -0.00022   0.00000   0.00115   0.00108   1.92765
   A20        1.96376  -0.00092   0.00000  -0.01001  -0.01016   1.95361
   A21        2.37415   0.00100   0.00000  -0.00871  -0.00859   2.36556
   A22        1.73515   0.00080   0.00000   0.01340   0.01340   1.74855
   A23        1.68780  -0.00012   0.00000  -0.00279  -0.00273   1.68507
   A24        1.31983  -0.00257   0.00000   0.03745   0.03793   1.35776
   A25        1.77542  -0.00138   0.00000   0.01063   0.01055   1.78598
   A26        2.26051  -0.00237   0.00000  -0.02968  -0.02919   2.23132
   A27        2.18354   0.00471   0.00000  -0.01214  -0.01229   2.17125
   A28        1.90526   0.00040   0.00000  -0.00147  -0.00147   1.90379
   A29        2.32426  -0.00170   0.00000  -0.00518  -0.00516   2.31910
   A30        1.69319  -0.00225   0.00000  -0.01687  -0.01690   1.67629
   A31        1.70785  -0.00024   0.00000   0.00498   0.00487   1.71272
   A32        1.96632   0.00296   0.00000   0.03344   0.03352   1.99984
   A33        2.76707   0.00242   0.00000  -0.00405  -0.00510   2.76197
   A34        1.40294   0.00572   0.00000   0.00539   0.00556   1.40850
   A35        1.64190  -0.00139   0.00000  -0.01926  -0.01925   1.62265
   A36        3.12533  -0.00349   0.00000  -0.01872  -0.01879   3.10654
   A37        3.40901  -0.00257   0.00000   0.02161   0.02174   3.43075
   A38        1.77058  -0.00263   0.00000   0.00138   0.00116   1.77174
   A39        1.61102  -0.00212   0.00000  -0.00760  -0.00716   1.60386
   A40        3.09613   0.00347   0.00000  -0.01148  -0.01134   3.08479
   A41        3.20357  -0.00383   0.00000   0.01180   0.01207   3.21564
   A42        1.60275   0.00051   0.00000   0.00091   0.00099   1.60373
   A43        1.43214  -0.00124   0.00000  -0.00184  -0.00188   1.43026
   A44        1.26865  -0.00195   0.00000  -0.03187  -0.03126   1.23739
   A45        2.16458   0.00373   0.00000  -0.01084  -0.01093   2.15364
   A46        2.50535   0.00041   0.00000   0.00164   0.00171   2.50706
   A47        1.63415  -0.00387   0.00000   0.00096   0.00113   1.63528
   A48        0.80721  -0.00107   0.00000  -0.04335  -0.04308   0.76413
   A49        1.33530   0.00457   0.00000  -0.00484  -0.00439   1.33091
   A50        2.58401   0.00042   0.00000  -0.01047  -0.01045   2.57357
   A51        1.43637  -0.00445   0.00000  -0.00800  -0.00788   1.42848
   A52        1.55352   0.00008   0.00000   0.01346   0.01256   1.56609
   A53        1.83153   0.00089   0.00000   0.03637   0.03608   1.86761
   A54        1.60326  -0.00454   0.00000   0.01082   0.01079   1.61404
   A55        1.76952  -0.00322   0.00000   0.01704   0.01719   1.78671
   A56        1.23604   0.00413   0.00000  -0.00129  -0.00145   1.23459
   A57        1.75220  -0.00041   0.00000   0.00067   0.00067   1.75288
   A58        1.80829  -0.00588   0.00000  -0.00414  -0.00414   1.80415
    D1       -2.99712   0.00164   0.00000  -0.04181  -0.04151  -3.03863
    D2        1.10142  -0.00160   0.00000  -0.03857  -0.03867   1.06275
    D3       -0.93905  -0.00076   0.00000  -0.04579  -0.04577  -0.98481
    D4       -0.05437  -0.00003   0.00000  -0.03047  -0.03045  -0.08482
    D5       -1.86186   0.00005   0.00000  -0.04786  -0.04810  -1.90996
    D6        2.83828  -0.00082   0.00000  -0.02558  -0.02568   2.81260
    D7        0.01397  -0.00171   0.00000  -0.00580  -0.00598   0.00799
    D8       -0.11531   0.00075   0.00000  -0.03472  -0.03465  -0.14996
    D9       -2.93962  -0.00014   0.00000  -0.01494  -0.01494  -2.95456
   D10       -0.13299  -0.00200   0.00000  -0.01744  -0.01764  -0.15063
   D11       -0.86426  -0.00053   0.00000   0.01591   0.01552  -0.84874
   D12        1.29190   0.00317   0.00000  -0.01744  -0.01734   1.27456
   D13       -3.13012   0.00009   0.00000  -0.01103  -0.01108  -3.14119
   D14       -1.71079   0.00583   0.00000  -0.01521  -0.01545  -1.72625
   D15        2.84767  -0.00341   0.00000  -0.00944  -0.00950   2.83817
   D16        2.11639  -0.00194   0.00000   0.02392   0.02367   2.14006
   D17       -2.01063   0.00176   0.00000  -0.00943  -0.00919  -2.01982
   D18       -0.14946  -0.00133   0.00000  -0.00302  -0.00293  -0.15239
   D19        1.26987   0.00441   0.00000  -0.00721  -0.00731   1.26256
   D20        1.34630   0.00059   0.00000   0.00492   0.00480   1.35110
   D21       -1.91134  -0.00012   0.00000   0.09606   0.09587  -1.81547
   D22       -3.08584  -0.00093   0.00000   0.08840   0.08848  -2.99736
   D23       -1.11990   0.00131   0.00000   0.08709   0.08707  -1.03284
   D24        0.90603   0.00109   0.00000   0.07888   0.07900   0.98502
   D25       -0.22758   0.00148   0.00000   0.08576   0.08577  -0.14181
   D26        1.87366  -0.00331   0.00000   0.02997   0.03027   1.90394
   D27        2.86248  -0.00096   0.00000   0.03343   0.03379   2.89627
   D28        0.86105  -0.00374   0.00000   0.02757   0.02792   0.88897
   D29       -1.03137  -0.00395   0.00000   0.04563   0.04591  -0.98545
   D30        0.12831   0.00429   0.00000   0.02916   0.02913   0.15744
   D31       -2.66831   0.00050   0.00000   0.02182   0.02212  -2.64619
   D32       -1.33189  -0.00269   0.00000   0.02004   0.02001  -1.31188
   D33        2.01157   0.00170   0.00000   0.00312   0.00300   2.01457
   D34        3.09515   0.00309   0.00000   0.00117   0.00098   3.09613
   D35       -2.76541   0.00258   0.00000   0.02961   0.02960  -2.73581
   D36        0.72116  -0.00122   0.00000   0.02227   0.02259   0.74375
   D37        2.05757  -0.00441   0.00000   0.02049   0.02048   2.07806
   D38       -0.88215  -0.00002   0.00000   0.00357   0.00347  -0.87868
   D39        0.20143   0.00137   0.00000   0.00162   0.00145   0.20287
   D40       -2.34756   0.00137   0.00000   0.02931   0.02957  -2.31800
   D41        3.05774   0.00365   0.00000   0.03505   0.03544   3.09317
   D42       -1.43332   0.00077   0.00000   0.02681   0.02706  -1.40626
   D43        1.77737  -0.00411   0.00000   0.04387   0.04427   1.82164
   D44        0.53411  -0.00259   0.00000   0.02191   0.02199   0.55610
   D45       -0.03303  -0.00108   0.00000   0.02283   0.02308  -0.00995
   D46        1.51968  -0.00057   0.00000  -0.04129  -0.04148   1.47821
   D47        1.14813   0.00025   0.00000  -0.06477  -0.06469   1.08344
   D48        2.77176   0.00328   0.00000  -0.05368  -0.05375   2.71801
   D49       -3.10584   0.00001   0.00000  -0.02929  -0.02926  -3.13510
   D50       -2.32044  -0.00015   0.00000  -0.08022  -0.08010  -2.40054
   D51       -0.48931   0.00079   0.00000  -0.04354  -0.04355  -0.53286
   D52       -1.72510  -0.00263   0.00000  -0.04380  -0.04376  -1.76886
   D53       -0.00378  -0.00039   0.00000  -0.07786  -0.07777  -0.08155
   D54        0.83157  -0.00259   0.00000  -0.09240  -0.09239   0.73918
   D55       -0.86429  -0.00031   0.00000  -0.07474  -0.07474  -0.93903
   D56       -1.07229  -0.00036   0.00000  -0.07403  -0.07392  -1.14622
[...]
   zx        -0.425969D+02     -0.631221D+01     -0.702328D+01
   zy         0.452662D+02      0.670776D+01      0.746339D+01
   zz         0.329215D+03      0.487847D+02      0.542802D+02

 ----------------------------------------------------------------------
 Unable to Open any file for archive entry.
 1\1\GINC-NODE2\Freq\RB3LYP\Gen\H6Mo3S8\CHEGHO\08-Jul-2023\0\\#N Geom=A
 llCheck Guess=TCheck SCRF=Check GenChk RB3LYP/ChkBas Freq\\Title Card 
 Required\\0,1\Mo,-0.7620859576,2.1995468331,11.7386181984\S,-0.7757775
 159,4.4103095619,11.4288691755\S,-2.9044067719,1.6021075341,12.3879304
 937\S,-0.4208911,1.0847826501,9.6651543234\S,1.0641614936,1.2887853382
 ,12.8813848896\H,1.043294142,-0.0066895171,12.5008593382\Mo,-2.7264389
 444,1.4156828552,10.0985093774\S,-3.2880469305,-0.5770864131,9.0227673
 217\H,-2.1256475929,-1.2172880779,8.7797639335\S,-3.536772557,3.365491
 5353,9.173868275\H,-2.4684862169,3.3707829449,8.0527210671\Mo,-0.79522
 90127,3.4345961363,9.2163180081\S,-0.6731584186,5.7441118272,8.4314906
 077\H,-0.4901634148,5.5208002726,7.1132580226\S,1.3603489433,3.4226910
 873,8.3028554162\H,-1.4491241281,3.1022552798,7.6049784583\H,1.7458449
 825,2.1275811522,8.4018770937\\Version=ES64L-G16RevC.01\HF=-3391.99221
 22\RMSD=2.801e-09\RMSF=1.023e-05\ZeroPoint=0.0600717\Thermal=0.0798575
 \ETot=-3391.9123546\HTot=-3391.9114104\GTot=-3391.9820183\Dipole=0.071
 826,-1.6478505,0.038253\DipoleDeriv=0.8612371,-0.1823888,0.5052098,-0.
 2983707,0.6930913,-0.2938318,0.2626689,-0.15632,0.3581997,0.0577136,-0
 .0106902,0.0052441,-0.0893541,-0.3971908,-0.1113646,-0.0274985,-0.0277
 929,-0.2992337,-0.3566404,-0.0847006,0.0741902,-0.124328,-0.0007199,-0
 .0185642,0.191,0.030746,-0.517675,0.1044394,0.2009898,0.0091244,0.0607
 928,-0.2352544,-0.0292163,0.0657759,-0.0833229,0.1141976,-0.5890326,0.
 3906725,-0.5587749,0.3590746,-0.1747766,0.3560548,-0.2999017,0.3178702
 ,-0.4078611,0.0639048,-0.0524593,-0.0344704,-0.0224696,0.0576103,-0.04
 67776,-0.0249313,-0.1175848,0.0529118,0.1043846,-0.2663892,0.2507175,0
 .3816027,1.0782211,0.2215521,0.1893784,0.2093248,0.714664,-0.0517302,-
 0.3276452,-0.0377478,-0.3806776,-0.8763543,-0.3234426,-0.1554396,-0.31
 51172,-0.2482388,-0.0157545,0.1042281,-0.0072183,-0.029702,0.1593234,-
 0.0168595,-0.0440954,-0.0428788,0.0975547,-0.6120805,-0.0313978,-0.036
 6856,0.0038718,-0.3764312,0.300602,0.0605483,0.1018854,-0.0554713,0.33
 10097,-0.0969213,-0.0455069,-0.0354513,0.0223921,-0.0189093,-0.1858446
 ,0.0069093,0.1307534,0.9574826,0.4954028,-0.5324179,0.3348684,0.705523
 1,-0.2693311,-0.29994,-0.3180543,0.457257,-0.1713026,-0.0362658,0.0390
 605,-0.167317,-0.8133998,0.4457133,0.0675377,0.3667626,-0.0477247,0.07
 4012,0.0007082,-0.0006887,0.0182227,0.0035666,-0.0925957,0.0069678,-0.
 0216546,-0.0327853,-0.549989,-0.0581061,0.343875,-0.0955557,0.1930461,
 -0.0232555,0.2422572,-0.0161546,-0.2362429,-0.2554026,0.011081,-0.0112
 619,-0.0004364,0.0538914,-0.0911351,-0.0591304,-0.003888,-0.1689783,0.
 0477486,-0.0561182,0.037351,0.0852293,-0.0925384,0.011361,0.0106472,0.
 0692699,0.0886729\Polar=293.0727792,39.1995537,330.4891208,5.6480526,-
 47.9151912,284.480525\Quadrupole=4.0267229,-12.1405315,8.1138086,-1.12
 67718,0.738886,-30.4002476\PG=C01 [X(H6Mo3S8)]\NImag=1\\0.25685241,-0.
 00531591,0.26876901,0.02888490,-0.01639002,0.24299063,-0.01743588,-0.0
 0286489,0.00084632,0.02116582,0.00767378,-0.16188376,0.01185246,0.0022
 7909,0.20396865,0.00224659,0.01064887,-0.01540891,-0.00567980,0.026032
 89,0.07795475,-0.10324002,-0.01996366,0.03611067,0.00148174,-0.0075123
 1,-0.00038192,0.11415875,-0.01826407,-0.01526153,0.00880600,-0.0060483
 1,-0.00341764,0.00452793,0.02247191,0.02522160,0.04410767,0.01337089,-
 0.02380395,-0.00164411,0.00131820,0.00244070,-0.05922978,-0.00192255,0
 .14766966,-0.00969330,0.00779280,0.01479966,0.00462732,-0.00055001,-0.
 00362926,0.00011725,0.00081850,0.00135870,0.14043280,0.01130041,-0.023
 18968,-0.04160462,0.00160702,-0.00369407,0.00035925,-0.00362910,0.0017
 7576,0.00215674,-0.03298446,0.13029346,0.01704585,-0.04521529,-0.08610
 676,-0.00091809,-0.00048725,-0.00173746,0.00409197,-0.00114486,-0.0031
 6722,-0.03360870,0.03277521,0.10747993,-0.07455395,0.02464701,-0.03554
 408,0.00111953,0.00460626,-0.00309870,-0.00351843,-0.00150556,-0.00120
 810,0.00054500,-0.00190260,-0.00246486,0.07741785,0.02931508,-0.034493
 62,0.02046036,0.00281436,0.00205386,-0.00122297,0.00289145,0.00149840,
 -0.00189629,-0.00167357,0.00037450,0.00052863,-0.02762916,0.26709870,-
 0.03734000,0.01010694,-0.03909324,0.00254904,0.00369891,-0.00097334,-0
 .00241615,-0.00286336,0.00408355,-0.00534755,0.00023590,-0.00230345,0.
 04474795,0.05506175,0.06685764,-0.00170642,0.00820918,-0.00272302,-0.0
 0024844,-0.00166750,0.00154023,0.00049245,0.00042270,0.00132176,-0.000
 23616,0.00066119,-0.00005901,-0.00356971,-0.00762093,-0.00253063,0.006
 58191,0.00225307,-0.00555946,-0.00032014,0.00036533,0.00030982,0.00036
 392,-0.00011404,-0.00006891,0.00043238,-0.00043450,0.00059800,-0.00007
 975,-0.00340629,-0.23983580,-0.06933475,0.00119653,0.24406423,-0.00161
 059,0.00858104,0.00275501,-0.00095535,-0.00052497,-0.00012565,-0.00135
 931,-0.00018967,-0.00132908,0.00072086,0.00006187,-0.00087460,-0.00198
 227,-0.07623500,-0.02889298,0.00507899,0.06951950,0.02725548,-0.047701
 70,-0.02213607,-0.03871860,-0.00269750,-0.00340299,0.00185946,-0.01021
 826,0.00226681,0.01878070,-0.10919196,0.01666692,0.01875293,0.00157654
 ,0.00270310,0.00194192,-0.00146848,0.00041726,-0.00082200,0.23307181,-
 0.02158162,-0.01678494,-0.00887165,-0.00281699,-0.00418739,-0.00174625
 ,0.00465699,-0.00978412,-0.00952852,0.02043050,-0.00809440,-0.00664317
 ,0.00209451,0.00193747,0.00278147,-0.00030555,0.00063638,-0.00143825,-
 0.00972239,0.24700071,-0.05508541,-0.01972516,-0.02892022,0.00299136,-
 0.00153330,-0.00023904,0.02469832,-0.00959958,-0.12608162,0.02069170,-
 0.00743500,-0.00738882,0.00134907,0.00103757,0.00067168,-0.00108403,0.
 00003232,0.00038639,0.02397413,0.02768434,0.24903687,0.00227768,-0.000
 41261,0.00354217,0.00030707,0.00019260,-0.00031044,0.00080713,0.002059
 61,-0.00254308,-0.00315884,-0.00708685,-0.00457803,-0.00083053,-0.0006
 7126,-0.00078643,0.00047898,-0.00023058,0.00027539,-0.02806351,-0.0061
 7591,-0.00815497,0.22957166,0.00143856,0.00176460,-0.00136802,0.000209
 00,-0.00033209,0.00032188,-0.00111714,0.00135709,-0.00695328,-0.003014
 08,-0.00107069,-0.00118744,-0.00101011,0.00018423,-0.00057909,0.000162
 97,-0.00010644,0.00000596,-0.01939035,-0.08589828,-0.03806598,-0.08285
 611,0.14576912,-0.00212591,0.00016538,-0.00152723,0.00003062,-0.000170
 62,0.00042247,-0.00206550,-0.00135362,0.00117627,-0.00249432,0.0000897
 6,0.00093563,-0.00023111,0.00010037,0.00002327,0.00011286,0.00008669,-
 0.00025847,-0.00769831,-0.03837373,-0.03495400,-0.02776957,0.06506187,
 0.03801862,-0.00051883,0.00074049,-0.00132983,0.00001327,-0.00021528,0
 .00010404,-0.00045359,-0.00023587,-0.00031122,-0.00014512,-0.00110195,
 -0.00044812,0.00020193,0.00002317,0.00008672,-0.00004595,0.00004631,-0
 .00005638,0.00446553,-0.00350956,-0.00024725,-0.20372419,0.10658557,0.
 03967389,0.20059357,-0.00135595,-0.00010543,-0.00172164,-0.00002110,0.
 00002469,0.00018431,-0.00043910,-0.00060962,0.00061424,-0.00110794,0.0
 0017436,0.00064734,0.00040424,0.00040746,0.00041688,-0.00021916,0.0001
 2411,-0.00022454,0.00651178,-0.01017215,-0.00398017,0.09799059,-0.0575
 1654,-0.02135012,-0.10247964,0.06746588,0.00175533,0.00000744,0.000918
 55,-0.00001145,0.00001183,-0.00018229,0.00090879,-0.00001774,-0.000915
 97,0.00015775,-0.00005105,-0.00030428,-0.00006528,0.00005791,-0.000133
 99,-0.00010555,-0.00006790,0.00018665,0.00026666,-0.00665233,-0.002546
 50,0.03688636,-0.02047337,-0.00923586,-0.03799404,0.02594573,0.0120135
 2,-0.00081299,-0.00039087,-0.00191233,-0.00057561,0.00086758,-0.005981
 68,0.00274119,-0.00266185,-0.00235382,-0.00148992,-0.00175487,-0.00053
 312,-0.00045222,-0.00020395,-0.00004644,0.00014489,-0.00008518,0.00002
 993,-0.02931969,0.04847878,-0.01555682,0.00133338,-0.00182176,0.000107
 32,-0.00003384,0.00000564,-0.00037204,0.10749134,0.00126510,0.00055825
 ,0.00389696,-0.00126733,0.00107437,-0.00280036,0.00182120,0.00086682,0
 .00638244,-0.00018925,-0.00068290,0.00022292,-0.00038701,-0.00051408,-
 0.00030005,0.00012986,-0.00005504,0.00026934,0.03652414,-0.08988133,0.
 03223975,-0.00231527,-0.00273132,-0.00330136,0.00031025,-0.00005027,0.
 00174228,-0.05332192,0.09606374,-0.00211240,0.00278321,-0.00255590,-0.
 00282160,0.00115089,0.00275787,-0.00361604,0.00377178,-0.00209880,-0.0
 0018392,0.00055784,0.00017490,0.00040222,-0.00012046,0.00013595,0.0000
 7052,0.00010040,-0.00006700,-0.01742089,0.03071896,-0.03272968,0.00533
 551,0.00175660,0.00610194,-0.00029326,-0.00046549,-0.00136737,-0.02300
 850,-0.03046940,0.06853958,-0.00196960,0.00087108,0.00032659,-0.002458
 27,0.00207603,0.00496998,-0.00212936,0.00147853,-0.00214858,-0.0000895
 1,0.00260802,-0.00306299,0.00069617,-0.00006256,0.00042281,0.00011966,
 0.00014413,-0.00027219,0.01148905,-0.01974317,0.00642731,-0.00042952,0
 .00162010,0.00272254,0.00062711,0.00049837,-0.00075852,-0.01933294,0.0
 1812576,-0.01766326,-0.02032061,0.00143161,-0.00109889,-0.00197102,0.0
 0045303,0.00141172,-0.00211963,-0.00050232,-0.00062238,-0.00139217,-0.
 00032317,-0.00148792,0.00051545,-0.00015778,-0.00006476,0.00031319,0.0
 0010123,0.00003490,-0.00007987,0.00112670,-0.00379943,0.00983482,-0.00
 053116,-0.00065410,-0.00014229,0.00013445,0.00024784,-0.00044863,-0.00
 175726,-0.00550384,0.00130850,0.00688973,0.02036808,0.00097989,-0.0021
 2457,-0.00038437,0.00219650,-0.00084791,-0.00523822,0.00093774,0.00000
 260,0.00082687,0.00001032,-0.00119716,0.00073452,-0.00055399,0.0000030
 1,0.00002509,0.00006404,-0.00004032,0.00004194,-0.00343136,0.01110808,
 -0.00821651,-0.00089042,0.00014438,-0.00002034,0.00025490,0.00003323,0
 .00025562,0.02441669,-0.00694676,-0.02792659,0.02551018,-0.01206737,0.
 05681854,-0.00134145,0.01289629,-0.00498578,-0.00789829,-0.00338030,0.
 01408381,-0.00211917,-0.00033927,0.00214046,-0.01710772,0.02637283,-0.
 00188223,0.00028351,0.00024023,-0.00194578,-0.00051524,-0.00024781,0.0
 0101972,-0.01936180,-0.02794748,0.00893678,0.00261416,0.00008362,0.001
 28082,-0.00097180,0.00042222,-0.00133729,-0.01786901,0.01106924,0.0176
 0883,0.01670820,0.00051001,-0.03137575,0.18057680,-0.00759486,-0.01147
 221,0.03015208,0.00605630,-0.04231157,-0.04512376,-0.00153487,-0.00186
 191,-0.00515385,0.02094799,-0.09183847,0.00922209,0.00548317,0.0026353
 8,-0.00009229,-0.00181736,-0.00019636,0.00043922,-0.00917557,-0.019912
 44,0.00768337,0.00098146,-0.00031863,-0.00181251,-0.00088821,-0.000490
 53,0.00054171,0.01140464,-0.00124751,-0.00382954,-0.00751807,0.0005886
 3,0.00926905,-0.01421205,0.28436866,0.00088827,0.04241415,-0.05068167,
 -0.00273015,-0.04823926,-0.04345531,0.00327344,-0.00042460,0.00166445,
 0.00355108,0.00488727,-0.00617159,-0.00027117,0.00243963,-0.00008256,-
 0.00210580,-0.00076303,0.00116193,0.00049944,0.00033707,-0.00987223,-0
 .00225659,0.00102013,-0.00085126,0.00104413,0.00020463,0.00143293,0.01
 388891,-0.00279622,-0.01549666,-0.03371081,0.01277421,0.00234095,-0.00
 132611,-0.01033575,0.25148318,-0.00096648,-0.00290358,0.00157527,-0.00
 013064,0.00054002,-0.00064647,0.00111195,0.00095169,0.00027287,0.00085
 743,-0.00284260,0.00183251,0.00065078,0.00001011,0.00040682,-0.0000317
 7,0.00008364,-0.00003779,0.00212679,-0.00029196,-0.00240523,-0.0009992
 0,-0.00046801,-0.00025303,0.00006070,0.00025278,0.00015289,0.00118964,
 -0.00320851,-0.00032399,-0.00202761,-0.00304847,0.00104819,-0.01573816
 ,-0.00046959,0.00379004,0.02484675,-0.00080132,-0.00208864,0.00018288,
 0.00004012,0.00300511,0.00722480,0.00136902,0.00068083,0.00095601,0.00
 086173,-0.00290598,0.00253235,-0.00024822,-0.00087763,0.00055049,0.000
 43992,0.00009096,-0.00014011,-0.00108523,-0.00268621,0.00285049,-0.000
 30399,-0.00058107,0.00025072,0.00035643,0.00033105,-0.00051005,-0.0017
 7055,-0.00024787,-0.00482912,-0.00634176,-0.00279038,0.00331814,-0.002
 76763,-0.06774363,-0.00075674,-0.00570948,0.11057100,0.00106406,-0.000
 10232,0.00183160,0.00023999,0.00672577,-0.00671657,-0.00166186,0.00007
 984,-0.00089020,-0.00180341,0.00651579,-0.00026498,-0.00002148,-0.0001
 8834,0.00013257,0.00028848,0.00009747,-0.00029365,0.00136507,0.0011916
 4,0.00092444,0.00080464,0.00021588,-0.00014627,-0.00036812,-0.00036341
 ,0.00016857,0.00088717,0.00155326,0.00086030,0.00042688,-0.00116082,0.
 00123679,0.00224016,0.01274779,-0.02926932,-0.03811207,0.02965702,0.27
 913250,0.00140586,0.00101055,-0.00089912,0.00063945,0.00003265,0.00001
 357,-0.00049778,-0.00061683,0.00015202,0.00072358,-0.00187987,-0.00038
 433,-0.00052098,0.00004030,-0.00010088,0.00006226,-0.00001393,-0.00004
 184,0.00015521,0.00196100,0.00027395,0.00040297,0.00035900,0.00018612,
 0.00013950,-0.00008079,-0.00011266,-0.00206690,-0.00023105,-0.00016941
 ,-0.00048931,0.00014631,0.00084044,-0.00041548,-0.00179869,0.00056520,
 -0.00743842,0.00635262,0.03486446,0.00851753,-0.00024050,-0.00047955,-
 0.00108937,-0.00010951,-0.00036594,-0.00081502,0.00014191,0.00010448,0
 .00010511,0.00048579,-0.00160843,0.00002358,0.00006798,0.00008921,-0.0
 0004544,-0.00008235,-0.00000229,0.00005733,0.00023358,-0.00034006,-0.0
 0018900,-0.00013981,-0.00006383,-0.00008417,0.00000580,0.00005516,0.00
 002693,0.00041471,-0.00012736,0.00031831,0.00032785,-0.00005396,-0.000
 53510,-0.00311744,0.00044753,0.01553704,0.00836560,-0.02290650,-0.0537
 1896,-0.00631921,0.02589878,0.00023592,0.00044891,0.00006512,0.0001656
 4,0.00111391,0.00091420,0.00009281,-0.00005764,0.00007302,-0.00002048,
 -0.00007894,0.00012841,-0.00023215,-0.00008766,-0.00001183,0.00007280,
 -0.00000041,-0.00002023,-0.00029268,0.00005339,0.00009427,-0.00000604,
 0.00004385,0.00006859,0.00005308,0.00001494,-0.00004343,-0.00038997,-0
 .00005780,-0.00009177,0.00017866,-0.00009152,-0.00004148,0.00114275,0.
 00059537,-0.00597649,0.03400013,-0.04148285,-0.24926168,-0.03477026,0.
 04062534,0.25311397,-0.00131583,0.00117721,0.00072620,0.00038521,-0.00
 035331,0.00537551,-0.00023730,-0.00009102,0.00020079,-0.00445153,-0.00
 177742,0.00433807,0.00141739,-0.00013448,0.00054535,-0.00012828,0.0000
 6691,-0.00005758,0.00028099,0.00413184,-0.00179977,-0.00043111,-0.0005
 8959,-0.00072709,-0.00011858,-0.00020645,0.00038578,-0.00628087,-0.002
 97996,0.00123727,-0.00186907,0.00011327,0.00178787,-0.08657831,-0.0146
 2682,0.03033985,-0.00252888,0.00766298,-0.00193876,-0.00124184,0.00104
 355,-0.00030643,0.13373131,-0.00102444,-0.00060581,0.00105123,0.001715
 03,0.00135792,-0.00042054,0.00050845,0.00011599,0.00007575,-0.00983791
 ,-0.00170517,0.00553171,-0.00046979,-0.00034311,0.00026419,0.00019603,
 -0.00001693,-0.00000749,0.00058114,0.00004581,-0.00046514,-0.00064109,
 0.00008646,0.00088200,0.00027908,0.00024057,-0.00026682,-0.00169571,0.
 00142636,-0.00147982,-0.00112260,0.00007881,0.00005911,0.00774385,-0.0
 2732495,0.00119778,0.00581211,-0.00831640,-0.00014291,0.00136135,-0.00
 047029,-0.00045813,-0.05394997,0.26955967,0.00005788,-0.00129897,-0.00
 076093,0.00301580,0.00102257,-0.00283135,0.00014599,0.00014045,0.00007
 002,0.00579840,0.00179331,-0.00021740,-0.00069261,-0.00010934,-0.00046
 348,0.00007144,-0.00004042,0.00009496,0.00057678,-0.00288118,0.0028347
 8,0.00029311,0.00010065,-0.00002819,-0.00014333,0.00000107,-0.00013017
 ,0.00319615,0.00123917,0.00111871,0.00304142,0.00009487,-0.00117475,0.
 02850743,0.01112902,-0.02764084,-0.00175408,-0.00185589,-0.00064294,-0
 .00083570,0.00063659,-0.00033057,-0.03744353,-0.03041249,0.04083543,0.
 00055973,-0.00345567,-0.00036458,0.00180008,-0.00087489,-0.01023760,0.
 00159761,-0.00075771,0.00117005,-0.00030944,-0.00196157,0.00089785,-0.
 00066959,-0.00011025,-0.00018817,0.00011207,-0.00005235,0.00008160,-0.
 00465368,0.01034494,-0.00483453,-0.00019451,-0.00013372,-0.00064204,-0
 .00009054,-0.00018565,0.00024719,-0.03474833,-0.00493141,0.04291678,0.
 02159443,-0.00461384,-0.02201084,-0.02312379,0.00153753,-0.01683664,-0
 .00042149,0.00161551,0.00065708,0.00043662,-0.00100647,-0.00010530,-0.
 00214166,-0.00041294,-0.00168204,0.04004050,0.00101746,0.00197988,-0.0
 0309076,-0.00236483,0.00330882,0.00411879,0.00114660,0.00004903,0.0013
 5592,0.00104166,0.00161839,0.00224464,-0.00048219,-0.00025459,-0.00016
 728,0.00021234,-0.00002853,-0.00009216,-0.00143037,0.00224680,-0.00056
 510,0.00002854,0.00005898,-0.00002852,-0.00000049,-0.00007487,0.000121
 55,0.00454864,0.00107208,-0.00146086,-0.00008633,-0.00653119,-0.000206
 76,-0.00737851,-0.02207831,-0.01733625,-0.00120420,-0.00301300,-0.0023
 2494,0.00020549,-0.00042792,-0.00039607,-0.00017824,0.00080290,0.00062
 718,0.00503486,0.02134643,0.00058142,-0.00338495,0.00046750,0.00275459
 ,-0.00057737,-0.00756546,0.00047775,0.00027256,0.00036962,-0.00110285,
 0.00035305,0.00065635,-0.00014764,0.00005567,-0.00007231,0.00002460,-0
 .00000881,-0.00000447,0.00023638,0.00220653,-0.00243947,-0.00006924,-0
 .00006479,0.00000618,-0.00005830,0.00005229,0.00000610,0.00717402,-0.0
 0213449,0.00263611,0.01335908,-0.00524468,-0.01929369,-0.03425487,-0.0
 0997787,-0.06926792,0.00020117,0.00102451,0.00158043,-0.00013090,-0.00
 053709,0.00074659,0.00041494,0.00061342,0.00218526,0.01070624,0.017480
 50,0.09002246,0.00016078,0.00009864,-0.00033442,-0.00009485,-0.0003114
 0,-0.00022731,-0.00009418,0.00005072,-0.00006633,-0.00142988,-0.002295
 11,0.00098030,0.00020672,0.00006835,0.00000140,-0.00004177,0.00001150,
 -0.00001120,-0.00048933,-0.00000391,-0.00017460,0.00003838,-0.00005792
 ,-0.00010731,0.00000084,0.00001015,-0.00000391,0.00008190,-0.00041385,
 0.00004215,-0.00011885,0.00002766,0.00021559,-0.00714246,0.01322500,0.
 00139691,-0.00056139,0.00032983,0.00106772,0.00018775,-0.00007145,0.00
 018153,-0.02849163,0.05095741,-0.00215313,0.00021198,-0.00011042,-0.00
 016642,0.03757598,0.00048359,-0.00004824,0.00002526,-0.00004632,-0.000
 32251,0.00046588,-0.00019500,-0.00004390,0.00007898,-0.00226408,0.0014
 4325,0.00051385,-0.00010444,0.00010439,-0.00004746,-0.00001910,0.00001
 136,-0.00000220,-0.00068845,-0.00032643,0.00019576,0.00011182,0.000052
 51,-0.00001986,-0.00005055,-0.00005171,0.00003251,-0.00025606,-0.00002
 011,0.00018819,0.00023488,-0.00012313,0.00002835,0.00005219,-0.0012436
 8,-0.00016007,0.00413045,-0.00052166,-0.00078275,-0.00052889,0.0002509
 6,-0.00018470,0.06069149,-0.23493184,0.01981342,-0.00003636,-0.0000749
 1,-0.00012847,-0.06151519,0.23584566,0.00042651,-0.00028556,0.00021474
 ,-0.00002931,-0.00054675,-0.00001638,-0.00000692,-0.00002754,-0.000087
 31,0.00110204,0.00058080,-0.00157317,0.00001418,0.00011515,0.00009745,
 -0.00003768,0.00002286,-0.00001622,0.00013037,0.00005362,-0.00056035,0
 .00022763,0.00002076,0.00026864,0.00003308,-0.00000928,-0.00012209,0.0
 0045453,0.00126032,0.00000842,0.00023090,-0.00012305,0.00001563,0.0001
 4706,-0.00545415,0.00068240,0.00025277,0.00102734,0.00161842,0.0005493
 2,-0.00031609,0.00057332,-0.00307846,0.02397815,-0.01291855,0.00022496
 ,-0.00027988,-0.00003326,-0.00064098,-0.02001670,0.01184828\\-0.000001
 98,0.00001286,-0.00001913,0.00001310,-0.00000648,0.00000691,0.00000386
 ,-0.00001352,0.00000076,-0.00000191,-0.00000357,0.00000190,0.,0.000003
 72,0.00001174,0.00000293,0.00000096,-0.00000637,-0.00001040,0.00000157
 ,0.00001240,0.00000861,0.00000259,-0.00001278,-0.00000130,-0.00000356,
 0.00000563,0.00000720,0.00002069,-0.00000127,0.00001026,-0.00001156,-0
 .00001426,-0.00000670,-0.00001795,0.00003553,-0.00000779,0.00000401,-0
 .00000697,-0.00000199,-0.00000053,0.00000084,-0.00000841,0.00000248,-0
 .00002471,-0.00000800,0.00000869,0.00000618,0.00000253,-0.00000038,0.0
 0000359\\\@
 The archive entry for this job was punched.


 HEAVEN'S NET CASTS WIDE.
 THOUGH ITS MESHES ARE COARSE, NOTHING SLIPS THROUGH.

                                          -- LAO-TSU
 Job cpu time:       0 days  0 hours 31 minutes 38.4 seconds.
 Elapsed time:       0 days  0 hours  1 minutes 39.4 seconds.
 File lengths (MBytes):  RWF=    237 Int=      0 D2E=      0 Chk=      7 Scr=      2
 Normal termination of Gaussian 16 at Sat Jul  8 04:22:25 2023.
