 Entering Gaussian System, Link 0=/apps/GAU16/avx2/g16/g16
 Initial command:
 /apps/GAU16/avx2//g16/l1.exe "/localscratch/chesayan/sagar/Gau-55083.inp" -scrdir="/localscratch/chesayan/sagar/"
 Entering Link 1 = /apps/GAU16/avx2//g16/l1.exe PID=     55085.
  
 Copyright (c) 1988-2019, Gaussian, Inc.  All Rights Reserved.
  
 This is part of the Gaussian(R) 16 program.  It is based on
 the Gaussian(R) 09 system (copyright 2009, Gaussian, Inc.),
 the Gaussian(R) 03 system (copyright 2003, Gaussian, Inc.),
 the Gaussian(R) 98 system (copyright 1998, Gaussian, Inc.),
 the Gaussian(R) 94 system (copyright 1995, Gaussian, Inc.),
 the Gaussian 92(TM) system (copyright 1992, Gaussian, Inc.),
 the Gaussian 90(TM) system (copyright 1990, Gaussian, Inc.),
 the Gaussian 88(TM) system (copyright 1988, Gaussian, Inc.),
 the Gaussian 86(TM) system (copyright 1986, Carnegie Mellon
 University), and the Gaussian 82(TM) system (copyright 1983,
 Carnegie Mellon University). Gaussian is a federally registered
 trademark of Gaussian, Inc.
  
 This software contains proprietary and confidential information,
 including trade secrets, belonging to Gaussian, Inc.
  
 This software is provided under written license and may be
 used, copied, transmitted, or stored only in accord with that
 written license.
  
 The following legend is applicable only to US Government
 contracts under FAR:
  
                    RESTRICTED RIGHTS LEGEND
  
 Use, reproduction and disclosure by the US Government is
 subject to restrictions as set forth in subparagraphs (a)
 and (c) of the Commercial Computer Software - Restricted
 Rights clause in FAR 52.227-19.
  
 Gaussian, Inc.
 340 Quinnipiac St., Bldg. 40, Wallingford CT 06492
  
  
 ---------------------------------------------------------------
 Warning -- This program may not be used in any manner that
 competes with the business of Gaussian, Inc. or will provide
 assistance to any competitor of Gaussian, Inc.  The licensee
 of this program is prohibited from giving any competitor of
 Gaussian, Inc. access to this program.  By using this program,
 the user acknowledges that Gaussian, Inc. is engaged in the
 business of creating and licensing software in the field of
 computational chemistry and represents and warrants to the
 licensee that it is not a competitor of Gaussian, Inc. and that
 it will not use this program in any manner prohibited above.
 ---------------------------------------------------------------
  

 Cite this work as:
 Gaussian 16, Revision C.01,
 M. J. Frisch, G. W. Trucks, H. B. Schlegel, G. E. Scuseria, 
 M. A. Robb, J. R. Cheeseman, G. Scalmani, V. Barone, 
 G. A. Petersson, H. Nakatsuji, X. Li, M. Caricato, A. V. Marenich, 
 J. Bloino, B. G. Janesko, R. Gomperts, B. Mennucci, H. P. Hratchian, 
 J. V. Ortiz, A. F. Izmaylov, J. L. Sonnenberg, D. Williams-Young, 
 F. Ding, F. Lipparini, F. Egidi, J. Goings, B. Peng, A. Petrone, 
 T. Henderson, D. Ranasinghe, V. G. Zakrzewski, J. Gao, N. Rega, 
 G. Zheng, W. Liang, M. Hada, M. Ehara, K. Toyota, R. Fukuda, 
 J. Hasegawa, M. Ishida, T. Nakajima, Y. Honda, O. Kitao, H. Nakai, 
 T. Vreven, K. Throssell, J. A. Montgomery, Jr., J. E. Peralta, 
 F. Ogliaro, M. J. Bearpark, J. J. Heyd, E. N. Brothers, K. N. Kudin, 
 V. N. Staroverov, T. A. Keith, R. Kobayashi, J. Normand, 
 K. Raghavachari, A. P. Rendell, J. C. Burant, S. S. Iyengar, 
 J. Tomasi, M. Cossi, J. M. Millam, M. Klene, C. Adamo, R. Cammi, 
 J. W. Ochterski, R. L. Martin, K. Morokuma, O. Farkas, 
 J. B. Foresman, and D. J. Fox, Gaussian, Inc., Wallingford CT, 2019.
 
 ******************************************
 Gaussian 16:  ES64L-G16RevC.01  3-Jul-2019
                 5-Dec-2022 
 ******************************************
 %nprocshared=48
 Will use up to   48 processors via shared memory.
 %mem=100GB
 ---------------------------------------
 # opt freq b3lyp/gen nosymm pseudo=read
 ---------------------------------------
 1/18=20,19=15,26=3,38=1/1,3;
 2/9=110,12=2,15=1,17=6,18=5,40=1/2;
 3/5=7,11=2,16=1,17=8,25=1,30=1,71=1,74=-5/1,2,3;
 4//1;
 5/5=2,38=5/2;
 6/7=2,8=2,9=2,10=2,28=1/1;
 7/30=1/1,2,3,16;
 1/18=20,19=15,26=3/3(2);
 2/9=110,15=1/2;
 99//99;
 2/9=110,15=1/2;
 3/5=7,6=1,11=2,16=1,17=8,25=1,30=1,71=1,74=-5,82=7/1,2,3;
 4/5=5,16=3,69=1/1;
 5/5=2,38=5/2;
 7/30=1/1,2,3,16;
 1/18=20,19=15,26=3/3(-5);
 2/9=110,15=1/2;
 6/7=2,8=2,9=2,10=2,19=2,28=1/1;
 99/9=1/99;
 -------------------
 Title Card Required
 -------------------
 Symbolic Z-matrix:
 Charge =  0 Multiplicity = 1
 42                    0.02107   1.11513   11.56015 
 16                    1.08122   3.19415   11.90878 
 16                   -1.89824   1.57252   12.87598 
 16                   -0.88276   1.00726   9.34287 
 16                    1.61385  -0.59489   10.90336 
 1                     2.14789  -0.60437   12.1465 
 42                   -2.31444   2.24074   10.73182 
 16                   -4.48198   1.59173   10.10441 
 1                    -4.6081    2.46653   9.08016 
 16                   -1.81852   4.40313   10.40806 
 42                    0.17557   3.15055   9.76515 
 16                    1.04409   5.20949   8.86478 
 1                     0.29465   6.1557    9.46758 
 16                    1.97448   2.2491    8.29607 
 1                     1.46603   1.05662   7.91353 
 42                    2.74321   1.74064   10.72062 
 6                     4.36252   0.75106   9.92826 
 6                     3.83701   3.45113   10.62432 
 6                     3.52341   1.36101   12.54355 
 8                     5.28368   0.21537   9.49983 
 8                     4.49909   4.39083   10.58529 
 8                     4.00225   1.15725   13.5749 
 

 GradGradGradGradGradGradGradGradGradGradGradGradGradGradGradGradGradGrad
 Berny optimization.
 Initialization pass.
                           ----------------------------
                           !    Initial Parameters    !
                           ! (Angstroms and Degrees)  !
 --------------------------                            --------------------------
 ! Name  Definition              Value          Derivative Info.                !
 --------------------------------------------------------------------------------
 ! R1    R(1,2)                  2.3596         estimate D2E/DX2                !
 ! R2    R(1,3)                  2.3716         estimate D2E/DX2                !
 ! R3    R(1,4)                  2.3968         estimate D2E/DX2                !
 ! R4    R(1,5)                  2.4274         estimate D2E/DX2                !
 ! R5    R(1,7)                  2.7217         estimate D2E/DX2                !
 ! R6    R(1,11)                 2.7182         estimate D2E/DX2                !
 ! R7    R(1,16)                 2.9165         estimate D2E/DX2                !
 ! R8    R(2,11)                 2.3275         estimate D2E/DX2                !
 ! R9    R(2,16)                 2.5073         estimate D2E/DX2                !
 ! R10   R(3,7)                  2.2841         estimate D2E/DX2                !
 ! R11   R(4,7)                  2.3453         estimate D2E/DX2                !
 ! R12   R(4,11)                 2.4274         estimate D2E/DX2                !
 ! R13   R(5,6)                  1.353          estimate D2E/DX2                !
 ! R14   R(5,16)                 2.6007         estimate D2E/DX2                !
 ! R15   R(7,8)                  2.348          estimate D2E/DX2                !
 ! R16   R(7,10)                 2.242          estimate D2E/DX2                !
 ! R17   R(7,11)                 2.8218         estimate D2E/DX2                !
 ! R18   R(8,9)                  1.3529         estimate D2E/DX2                !
 ! R19   R(10,11)                2.441          estimate D2E/DX2                !
 ! R20   R(11,12)                2.4092         estimate D2E/DX2                !
 ! R21   R(11,14)                2.4914         estimate D2E/DX2                !
 ! R22   R(11,16)                3.0812         estimate D2E/DX2                !
 ! R23   R(12,13)                1.3492         estimate D2E/DX2                !
 ! R24   R(14,15)                1.3516         estimate D2E/DX2                !
 ! R25   R(14,16)                2.5938         estimate D2E/DX2                !
 ! R26   R(16,17)                2.0565         estimate D2E/DX2                !
 ! R27   R(16,18)                2.0326         estimate D2E/DX2                !
 ! R28   R(16,19)                2.0189         estimate D2E/DX2                !
 ! R29   R(17,20)                1.1485         estimate D2E/DX2                !
 ! R30   R(18,21)                1.1502         estimate D2E/DX2                !
 ! R31   R(19,22)                1.1552         estimate D2E/DX2                !
 ! A1    A(2,1,3)               96.4135         estimate D2E/DX2                !
 ! A2    A(2,1,4)              110.2278         estimate D2E/DX2                !
 ! A3    A(2,1,5)              111.4602         estimate D2E/DX2                !
 ! A4    A(2,1,7)               93.7908         estimate D2E/DX2                !
 ! A5    A(3,1,4)              102.5191         estimate D2E/DX2                !
 ! A6    A(3,1,5)              144.7866         estimate D2E/DX2                !
 ! A7    A(3,1,11)             105.5433         estimate D2E/DX2                !
 ! A8    A(3,1,16)             150.8919         estimate D2E/DX2                !
 ! A9    A(4,1,5)               88.019          estimate D2E/DX2                !
 ! A10   A(4,1,16)              95.47           estimate D2E/DX2                !
 ! A11   A(5,1,7)              140.5377         estimate D2E/DX2                !
 ! A12   A(5,1,11)             108.1514         estimate D2E/DX2                !
 ! A13   A(7,1,16)             128.6533         estimate D2E/DX2                !
 ! A14   A(1,5,6)               90.8782         estimate D2E/DX2                !
 ! A15   A(6,5,16)              84.2292         estimate D2E/DX2                !
 ! A16   A(1,7,8)              139.3904         estimate D2E/DX2                !
 ! A17   A(1,7,10)             104.6564         estimate D2E/DX2                !
 ! A18   A(3,7,4)              106.9085         estimate D2E/DX2                !
 ! A19   A(3,7,8)              109.7666         estimate D2E/DX2                !
 ! A20   A(3,7,10)             112.1737         estimate D2E/DX2                !
 ! A21   A(3,7,11)             104.7806         estimate D2E/DX2                !
 ! A22   A(4,7,8)              105.0646         estimate D2E/DX2                !
 ! A23   A(4,7,10)             106.661          estimate D2E/DX2                !
 ! A24   A(8,7,10)             115.6069         estimate D2E/DX2                !
 ! A25   A(8,7,11)             144.3105         estimate D2E/DX2                !
 ! A26   A(7,8,9)               96.2939         estimate D2E/DX2                !
 ! A27   A(1,11,10)             99.4323         estimate D2E/DX2                !
 ! A28   A(1,11,12)            155.1237         estimate D2E/DX2                !
 ! A29   A(1,11,14)             99.1773         estimate D2E/DX2                !
 ! A30   A(2,11,4)             110.2682         estimate D2E/DX2                !
 ! A31   A(2,11,7)              91.9419         estimate D2E/DX2                !
 ! A32   A(2,11,10)             93.7661         estimate D2E/DX2                !
 ! A33   A(2,11,12)            100.8313         estimate D2E/DX2                !
 ! A34   A(2,11,14)            105.5991         estimate D2E/DX2                !
 ! A35   A(4,11,10)             98.2056         estimate D2E/DX2                !
 ! A36   A(4,11,12)            147.8617         estimate D2E/DX2                !
 ! A37   A(4,11,14)             83.8432         estimate D2E/DX2                !
 ! A38   A(4,11,16)             90.7589         estimate D2E/DX2                !
 ! A39   A(7,11,12)            136.1946         estimate D2E/DX2                !
 ! A40   A(7,11,14)            136.2621         estimate D2E/DX2                !
 ! A41   A(7,11,16)            118.7892         estimate D2E/DX2                !
 ! A42   A(10,11,12)            87.3859         estimate D2E/DX2                !
 ! A43   A(10,11,14)           158.5633         estimate D2E/DX2                !
 ! A44   A(10,11,16)           146.5            estimate D2E/DX2                !
 ! A45   A(12,11,14)            80.128          estimate D2E/DX2                !
 ! A46   A(12,11,16)           101.9196         estimate D2E/DX2                !
 ! A47   A(11,12,13)           103.4227         estimate D2E/DX2                !
 ! A48   A(11,14,15)           102.3861         estimate D2E/DX2                !
 ! A49   A(15,14,16)           101.7183         estimate D2E/DX2                !
 ! A50   A(1,16,14)             91.9765         estimate D2E/DX2                !
 ! A51   A(1,16,17)            137.9556         estimate D2E/DX2                !
 ! A52   A(1,16,18)            134.1378         estimate D2E/DX2                !
 ! A53   A(1,16,19)             93.4657         estimate D2E/DX2                !
 ! A54   A(2,16,5)             101.5051         estimate D2E/DX2                !
 ! A55   A(2,16,14)             97.6349         estimate D2E/DX2                !
 ! A56   A(2,16,18)             83.7604         estimate D2E/DX2                !
 ! A57   A(2,16,19)             86.4046         estimate D2E/DX2                !
 ! A58   A(5,16,11)             94.0625         estimate D2E/DX2                !
 ! A59   A(5,16,14)             96.4894         estimate D2E/DX2                !
 ! A60   A(5,16,17)             86.3808         estimate D2E/DX2                !
 ! A61   A(5,16,19)             86.302          estimate D2E/DX2                !
 ! A62   A(11,16,17)           139.19           estimate D2E/DX2                !
 ! A63   A(11,16,18)            92.7899         estimate D2E/DX2                !
 ! A64   A(11,16,19)           133.4792         estimate D2E/DX2                !
 ! A65   A(14,16,17)            88.1401         estimate D2E/DX2                !
 ! A66   A(14,16,18)            87.1477         estimate D2E/DX2                !
 ! A67   A(17,16,18)            87.8773         estimate D2E/DX2                !
 ! A68   A(17,16,19)            87.3129         estimate D2E/DX2                !
 ! A69   A(18,16,19)            89.6025         estimate D2E/DX2                !
 ! A70   L(2,16,17,5,-1)       187.8859         estimate D2E/DX2                !
 ! A71   L(5,16,18,2,-1)       185.2655         estimate D2E/DX2                !
 ! A72   L(14,16,19,1,-1)      185.4423         estimate D2E/DX2                !
 ! A73   L(16,17,20,15,-1)     181.1511         estimate D2E/DX2                !
 ! A74   L(16,18,21,12,-1)     182.6283         estimate D2E/DX2                !
 ! A75   L(16,19,22,3,-1)      181.7226         estimate D2E/DX2                !
 ! A76   L(2,16,17,5,-2)       186.8962         estimate D2E/DX2                !
 ! A77   L(5,16,18,2,-2)       175.4769         estimate D2E/DX2                !
 ! A78   L(14,16,19,1,-2)      179.2437         estimate D2E/DX2                !
 ! A79   L(16,17,20,15,-2)     179.1282         estimate D2E/DX2                !
 ! A80   L(16,18,21,12,-2)     180.5298         estimate D2E/DX2                !
 ! A81   L(16,19,22,3,-2)      180.6754         estimate D2E/DX2                !
 ! D1    D(2,1,5,6)             70.3767         estimate D2E/DX2                !
 ! D2    D(3,1,5,6)            -69.5425         estimate D2E/DX2                !
 ! D3    D(4,1,5,6)           -178.6377         estimate D2E/DX2                !
 ! D4    D(7,1,5,6)           -163.5168         estimate D2E/DX2                !
 ! D5    D(11,1,5,6)           127.985          estimate D2E/DX2                !
 ! D6    D(2,1,7,8)           -175.6276         estimate D2E/DX2                !
 ! D7    D(2,1,7,10)            11.9112         estimate D2E/DX2                !
 ! D8    D(5,1,7,8)             53.2721         estimate D2E/DX2                !
 ! D9    D(5,1,7,10)          -119.1891         estimate D2E/DX2                !
 ! D10   D(16,1,7,8)           136.678          estimate D2E/DX2                !
 ! D11   D(16,1,7,10)          -35.7832         estimate D2E/DX2                !
 ! D12   D(3,1,11,10)           -1.3802         estimate D2E/DX2                !
 ! D13   D(3,1,11,12)          103.0011         estimate D2E/DX2                !
 ! D14   D(3,1,11,14)         -170.6928         estimate D2E/DX2                !
 ! D15   D(5,1,11,10)          168.2355         estimate D2E/DX2                !
 ! D16   D(5,1,11,12)          -87.3832         estimate D2E/DX2                !
 ! D17   D(5,1,11,14)           -1.0772         estimate D2E/DX2                !
 ! D18   D(3,1,16,14)         -115.6998         estimate D2E/DX2                !
 ! D19   D(3,1,16,17)          154.886          estimate D2E/DX2                !
 ! D20   D(3,1,16,18)          -27.7568         estimate D2E/DX2                !
 ! D21   D(3,1,16,19)           65.0565         estimate D2E/DX2                !
 ! D22   D(4,1,16,14)           12.5891         estimate D2E/DX2                !
 ! D23   D(4,1,16,17)          -76.8251         estimate D2E/DX2                !
 ! D24   D(4,1,16,18)          100.5322         estimate D2E/DX2                !
 ! D25   D(4,1,16,19)         -166.6546         estimate D2E/DX2                !
 ! D26   D(7,1,16,14)          -34.7329         estimate D2E/DX2                !
 ! D27   D(7,1,16,17)         -124.1471         estimate D2E/DX2                !
 ! D28   D(7,1,16,18)           53.2101         estimate D2E/DX2                !
 ! D29   D(7,1,16,19)          146.0234         estimate D2E/DX2                !
 ! D30   D(1,2,11,16)          -76.2217         estimate D2E/DX2                !
 ! D31   D(1,4,7,11)            72.9862         estimate D2E/DX2                !
 ! D32   D(6,5,16,2)           -81.1707         estimate D2E/DX2                !
 ! D33   D(6,5,16,11)         -128.9706         estimate D2E/DX2                !
 ! D34   D(6,5,16,14)          179.6449         estimate D2E/DX2                !
 ! D35   D(6,5,16,17)           91.933          estimate D2E/DX2                !
 ! D36   D(6,5,16,19)            4.3967         estimate D2E/DX2                !
 ! D37   D(1,7,8,9)           -139.8607         estimate D2E/DX2                !
 ! D38   D(3,7,8,9)            160.1422         estimate D2E/DX2                !
 ! D39   D(4,7,8,9)            -85.2263         estimate D2E/DX2                !
 ! D40   D(10,7,8,9)            32.0479         estimate D2E/DX2                !
 ! D41   D(11,7,8,9)           -35.065          estimate D2E/DX2                !
 ! D42   D(3,7,11,2)           -13.7559         estimate D2E/DX2                !
 ! D43   D(3,7,11,12)         -121.6332         estimate D2E/DX2                !
 ! D44   D(3,7,11,14)          101.3699         estimate D2E/DX2                !
 ! D45   D(3,7,11,16)           34.3424         estimate D2E/DX2                !
 ! D46   D(8,7,11,2)          -178.9643         estimate D2E/DX2                !
 ! D47   D(8,7,11,12)           73.1584         estimate D2E/DX2                !
 ! D48   D(8,7,11,14)          -63.8385         estimate D2E/DX2                !
 ! D49   D(8,7,11,16)         -130.8661         estimate D2E/DX2                !
 ! D50   D(1,11,12,13)         -88.3109         estimate D2E/DX2                !
 ! D51   D(2,11,12,13)         -74.6987         estimate D2E/DX2                !
 ! D52   D(4,11,12,13)         119.9359         estimate D2E/DX2                !
 ! D53   D(7,11,12,13)          29.7384         estimate D2E/DX2                !
 ! D54   D(10,11,12,13)         18.6383         estimate D2E/DX2                !
 ! D55   D(14,11,12,13)       -178.857          estimate D2E/DX2                !
 ! D56   D(16,11,12,13)       -128.8745         estimate D2E/DX2                !
 ! D57   D(1,11,14,15)          56.7034         estimate D2E/DX2                !
 ! D58   D(2,11,14,15)         112.8883         estimate D2E/DX2                !
 ! D59   D(4,11,14,15)           3.5204         estimate D2E/DX2                !
 ! D60   D(7,11,14,15)           2.8495         estimate D2E/DX2                !
 ! D61   D(10,11,14,15)        -93.2594         estimate D2E/DX2                !
 ! D62   D(12,11,14,15)       -148.5167         estimate D2E/DX2                !
 ! D63   D(4,11,16,5)          -13.2123         estimate D2E/DX2                !
 ! D64   D(4,11,16,17)          75.9524         estimate D2E/DX2                !
 ! D65   D(4,11,16,18)         165.9349         estimate D2E/DX2                !
 ! D66   D(4,11,16,19)        -101.9655         estimate D2E/DX2                !
 ! D67   D(7,11,16,5)           33.2661         estimate D2E/DX2                !
 ! D68   D(7,11,16,17)         122.4308         estimate D2E/DX2                !
 ! D69   D(7,11,16,18)        -147.5867         estimate D2E/DX2                !
 ! D70   D(7,11,16,19)         -55.4871         estimate D2E/DX2                !
 ! D71   D(10,11,16,5)          92.966          estimate D2E/DX2                !
 ! D72   D(10,11,16,17)       -177.8693         estimate D2E/DX2                !
 ! D73   D(10,11,16,18)        -87.8868         estimate D2E/DX2                !
 ! D74   D(10,11,16,19)          4.2129         estimate D2E/DX2                !
 ! D75   D(12,11,16,5)        -163.4738         estimate D2E/DX2                !
 ! D76   D(12,11,16,17)        -74.3091         estimate D2E/DX2                !
 ! D77   D(12,11,16,18)         15.6734         estimate D2E/DX2                !
 ! D78   D(12,11,16,19)        107.773          estimate D2E/DX2                !
 ! D79   D(15,14,16,1)         -61.5714         estimate D2E/DX2                !
 ! D80   D(15,14,16,2)        -112.3626         estimate D2E/DX2                !
 ! D81   D(15,14,16,5)          -9.7837         estimate D2E/DX2                !
 ! D82   D(15,14,16,17)         76.3597         estimate D2E/DX2                !
 ! D83   D(15,14,16,18)        164.326          estimate D2E/DX2                !
 --------------------------------------------------------------------------------
 Trust Radius=3.00D-01 FncErr=1.00D-07 GrdErr=1.00D-06 EigMax=2.50D+02 EigMin=1.00D-04
 Number of steps in this run=    132 maximum allowed number of steps=    132.
 GradGradGradGradGradGradGradGradGradGradGradGradGradGradGradGradGradGrad

                          Input orientation:                          
 ---------------------------------------------------------------------
 Center     Atomic      Atomic             Coordinates (Angstroms)
 Number     Number       Type             X           Y           Z
 ---------------------------------------------------------------------
      1         42           0        0.021072    1.115126   11.560149
      2         16           0        1.081221    3.194149   11.908775
      3         16           0       -1.898236    1.572521   12.875976
      4         16           0       -0.882762    1.007261    9.342874
      5         16           0        1.613849   -0.594889   10.903363
      6          1           0        2.147885   -0.604368   12.146498
      7         42           0       -2.314440    2.240739   10.731824
      8         16           0       -4.481982    1.591732   10.104409
      9          1           0       -4.608098    2.466527    9.080163
     10         16           0       -1.818522    4.403126   10.408055
     11         42           0        0.175573    3.150549    9.765149
     12         16           0        1.044086    5.209486    8.864777
     13          1           0        0.294648    6.155700    9.467582
     14         16           0        1.974477    2.249098    8.296074
     15          1           0        1.466026    1.056618    7.913530
     16         42           0        2.743213    1.740644   10.720620
     17          6           0        4.362522    0.751062    9.928262
     18          6           0        3.837005    3.451128   10.624318
     19          6           0        3.523413    1.361012   12.543549
     20          8           0        5.283680    0.215374    9.499826
     21          8           0        4.499089    4.390825   10.585288
     22          8           0        4.002246    1.157250   13.574902
 ---------------------------------------------------------------------
                    Distance matrix (angstroms):
                    1          2          3          4          5
     1  Mo   0.000000
     2  S    2.359617   0.000000
     3  S    2.371572   3.527367   0.000000
     4  S    2.396844   3.901738   3.719343   0.000000
     5  S    2.427439   3.956179   4.574233   3.351877   0.000000
     6  H    2.797106   3.952596   4.652105   4.431984   1.353022
     7  Mo   2.721717   3.718161   2.284104   2.345283   4.847852
     8  S    4.756451   6.064050   3.789155   3.725040   6.525243
     9  H    5.422714   6.395219   4.748768   4.009564   7.170004
    10  S    3.939844   3.481709   3.756237   3.679967   6.083310
    11  Mo   2.718243   2.327495   4.058091   2.427359   4.170429
    12  S    5.007531   3.650875   6.162345   4.647582   6.178287
    13  H    5.464528   3.917768   6.118122   5.282828   7.026536
    14  S    3.969366   3.839614   6.035823   3.286604   3.875083
    15  H    3.922900   4.547427   6.017498   2.749957   3.418834
    16  Mo   2.916528   2.507311   5.120242   3.947623   2.600687
    17  C    4.652288   4.545112   6.968565   5.284063   3.212104
    18  C    4.570999   3.051264   6.441438   5.467247   4.624991
    19  C    3.646084   3.118915   5.435947   5.457457   3.187820
    20  O    5.722720   5.686545   8.051096   6.219061   4.011745
    21  O    5.633222   3.855577   7.356348   6.477377   5.769153
    22  O    4.462146   3.931580   5.956227   6.464972   3.988929
                    6          7          8          9         10
     6  H    0.000000
     7  Mo   5.477982   0.000000
     8  S    7.276546   2.347999   0.000000
     9  H    8.029702   2.835460   1.352868   0.000000
    10  S    6.620390   2.242026   3.884605   3.646292   0.000000
    11  Mo   4.864179   2.821769   4.923193   4.880635   2.441043
    12  S    6.766754   4.855823   6.720287   6.286287   3.350589
    13  H    7.503972   4.871608   6.637134   6.147927   2.901981
    14  S    4.795634   4.932318   6.737067   6.632674   4.846353
    15  H    4.598024   4.861774   6.361218   6.343805   5.311311
    16  Mo   2.808313   5.082330   7.252953   7.567019   5.291118
    17  C    3.415022   6.888154   8.886113   9.172465   7.195351
    18  C    4.649431   6.270317   8.540094   8.641390   5.739169
    19  C    2.431552   6.175500   8.371916   8.907226   6.507769
    20  O    4.184502   7.959356   9.880690  10.153378   8.294783
    21  O    5.737376   7.146224   9.419437   9.429166   6.320109
    22  O    2.929554   7.011245   9.176885   9.800761   7.378751
                   11         12         13         14         15
    11  Mo   0.000000
    12  S    2.409192   0.000000
    13  H    3.022194   1.349204   0.000000
    14  S    2.491355   3.154829   4.410872   0.000000
    15  H    3.078686   4.281263   5.457824   1.351618   0.000000
    16  Mo   3.081158   4.285330   5.201759   2.593820   3.158932
    17  C    4.828528   5.658671   6.780113   3.257439   3.541497
    18  C    3.772877   3.740081   4.604459   3.214748   4.324765
    19  C    4.704251   5.872919   6.547941   4.607488   5.075684
    20  O    5.897322   6.581687   7.757509   4.066433   4.218828
    21  O    4.572057   3.945556   4.694824   4.025067   5.239723
    22  O    5.755943   6.881614   7.456599   5.759341   6.204327
                   16         17         18         19         20
    16  Mo   0.000000
    17  C    2.056518   0.000000
    18  C    2.032587   2.837432   0.000000
    19  C    2.018886   2.813515   2.854886   0.000000
    20  O    3.204803   1.148499   3.718529   3.698010   0.000000
    21  O    3.181961   3.701109   1.150178   3.737178   4.384997
    22  O    3.173711   3.686838   3.741006   1.155201   4.374408
                   21         22
    21  O    0.000000
    22  O    4.431778   0.000000
 Symmetry turned off by external request.
 Stoichiometry    C3H4Mo4O3S8
 Framework group  C1[X(C3H4Mo4O3S8)]
 Deg. of freedom    60
 Full point group                 C1      NOp   1
 Rotational constants (GHZ):           0.2328191           0.1096530           0.0934135
 General basis read from cards:  (5D, 7F)
 ======================================================================================================
                                       Pseudopotential Parameters
 ======================================================================================================
  Center     Atomic      Valence      Angular      Power
  Number     Number     Electrons     Momentum     of R      Exponent        Coefficient   SO-Coeffient
 ======================================================================================================
    1         42           14
                                      F and up 
                                                     0      537.9667807       -0.04694920    0.00000000
                                                     1      147.8982938      -20.20800840    0.00000000
                                                     2       45.7358898     -106.21163020    0.00000000
                                                     2       13.2911467      -41.81073680    0.00000000
                                                     2        4.7059961       -4.20541030    0.00000000
                                      S - F
                                                     0      110.2991760        2.80637170    0.00000000
                                                     1       23.2014645       44.51620120    0.00000000
                                                     2        5.3530131       82.77852270    0.00000000
                                      P - F
                                                     0       63.2901397        4.94208760    0.00000000
                                                     1       23.3315302       25.86049760    0.00000000
                                                     2       24.6759423      132.47087420    0.00000000
                                                     2        4.6493040       57.31497940    0.00000000
                                      D - F
                                                     0      104.4839977        3.00545910    0.00000000
                                                     1       66.2307245       26.36378510    0.00000000
                                                     2       39.1283176      183.38491990    0.00000000
                                                     2       13.1164437       98.44530680    0.00000000
                                                     2        3.6280263       22.49013770    0.00000000
    2         16
                                   No pseudopotential on this center.
    3         16
                                   No pseudopotential on this center.
    4         16
                                   No pseudopotential on this center.
    5         16
                                   No pseudopotential on this center.
    6          1
                                   No pseudopotential on this center.
    7         42           14
                                      F and up 
                                                     0      537.9667807       -0.04694920    0.00000000
                                                     1      147.8982938      -20.20800840    0.00000000
                                                     2       45.7358898     -106.21163020    0.00000000
                                                     2       13.2911467      -41.81073680    0.00000000
                                                     2        4.7059961       -4.20541030    0.00000000
                                      S - F
                                                     0      110.2991760        2.80637170    0.00000000
                                                     1       23.2014645       44.51620120    0.00000000
                                                     2        5.3530131       82.77852270    0.00000000
                                      P - F
                                                     0       63.2901397        4.94208760    0.00000000
                                                     1       23.3315302       25.86049760    0.00000000
                                                     2       24.6759423      132.47087420    0.00000000
                                                     2        4.6493040       57.31497940    0.00000000
                                      D - F
                                                     0      104.4839977        3.00545910    0.00000000
                                                     1       66.2307245       26.36378510    0.00000000
                                                     2       39.1283176      183.38491990    0.00000000
                                                     2       13.1164437       98.44530680    0.00000000
                                                     2        3.6280263       22.49013770    0.00000000
    8         16
                                   No pseudopotential on this center.
    9          1
                                   No pseudopotential on this center.
   10         16
                                   No pseudopotential on this center.
   11         42           14
                                      F and up 
                                                     0      537.9667807       -0.04694920    0.00000000
                                                     1      147.8982938      -20.20800840    0.00000000
                                                     2       45.7358898     -106.21163020    0.00000000
                                                     2       13.2911467      -41.81073680    0.00000000
                                                     2        4.7059961       -4.20541030    0.00000000
                                      S - F
                                                     0      110.2991760        2.80637170    0.00000000
                                                     1       23.2014645       44.51620120    0.00000000
                                                     2        5.3530131       82.77852270    0.00000000
                                      P - F
                                                     0       63.2901397        4.94208760    0.00000000
                                                     1       23.3315302       25.86049760    0.00000000
                                                     2       24.6759423      132.47087420    0.00000000
                                                     2        4.6493040       57.31497940    0.00000000
                                      D - F
                                                     0      104.4839977        3.00545910    0.00000000
                                                     1       66.2307245       26.36378510    0.00000000
                                                     2       39.1283176      183.38491990    0.00000000
                                                     2       13.1164437       98.44530680    0.00000000
                                                     2        3.6280263       22.49013770    0.00000000
   12         16
                                   No pseudopotential on this center.
   13          1
                                   No pseudopotential on this center.
   14         16
                                   No pseudopotential on this center.
   15          1
                                   No pseudopotential on this center.
   16         42           14
                                      F and up 
                                                     0      537.9667807       -0.04694920    0.00000000
                                                     1      147.8982938      -20.20800840    0.00000000
                                                     2       45.7358898     -106.21163020    0.00000000
                                                     2       13.2911467      -41.81073680    0.00000000
                                                     2        4.7059961       -4.20541030    0.00000000
                                      S - F
                                                     0      110.2991760        2.80637170    0.00000000
                                                     1       23.2014645       44.51620120    0.00000000
                                                     2        5.3530131       82.77852270    0.00000000
                                      P - F
                                                     0       63.2901397        4.94208760    0.00000000
                                                     1       23.3315302       25.86049760    0.00000000
                                                     2       24.6759423      132.47087420    0.00000000
                                                     2        4.6493040       57.31497940    0.00000000
                                      D - F
                                                     0      104.4839977        3.00545910    0.00000000
                                                     1       66.2307245       26.36378510    0.00000000
                                                     2       39.1283176      183.38491990    0.00000000
                                                     2       13.1164437       98.44530680    0.00000000
                                                     2        3.6280263       22.49013770    0.00000000
   17          6
                                   No pseudopotential on this center.
   18          6
                                   No pseudopotential on this center.
   19          6
                                   No pseudopotential on this center.
   20          8
                                   No pseudopotential on this center.
   21          8
                                   No pseudopotential on this center.
   22          8
                                   No pseudopotential on this center.
 ======================================================================================================
   336 basis functions,   808 primitive gaussians,   358 cartesian basis functions
   115 alpha electrons      115 beta electrons
       nuclear repulsion energy      3405.6707934113 Hartrees.
 NAtoms=   22 NActive=   22 NUniq=   22 SFac= 1.00D+00 NAtFMM=   60 NAOKFM=F Big=F
 Integral buffers will be    131072 words long.
 Raffenetti 2 integral format.
 Two-electron integral symmetry is turned off.
 One-electron integrals computed using PRISM.
   1 Symmetry operations used in ECPInt.
 ECPInt:  NShTT=    5886 NPrTT=   42631 LenC2=    5258 LenP2D=   24457.
 LDataN:  DoStor=T MaxTD1= 5 Len=  102
 NBasis=   336 RedAO= T EigKep=  9.93D-04  NBF=   336
 NBsUse=   336 1.00D-06 EigRej= -1.00D+00 NBFU=   336
 Defaulting to unpruned grid for atomic number  42.
 Defaulting to unpruned grid for atomic number  42.
 Defaulting to unpruned grid for atomic number  42.
 Defaulting to unpruned grid for atomic number  42.
 ExpMin= 2.47D-02 ExpMax= 2.19D+04 ExpMxC= 3.30D+03 IAcc=3 IRadAn=         5 AccDes= 0.00D+00
 Harris functional with IExCor=  402 and IRadAn=       5 diagonalized for initial guess.
 HarFok:  IExCor=  402 AccDes= 0.00D+00 IRadAn=         5 IDoV= 1 UseB2=F ITyADJ=14
 ICtDFT=  3500011 ScaDFX=  1.000000  1.000000  1.000000  1.000000
 Defaulting to unpruned grid for atomic number  42.
 FoFCou: FMM=F IPFlag=           0 FMFlag=      100000 FMFlg1=           0
         NFxFlg=           0 DoJE=T BraDBF=F KetDBF=T FulRan=T
         wScrn=  0.000000 ICntrl=       500 IOpCl=  0 I1Cent=   200000004 NGrid=           0
         NMat0=    1 NMatS0=      1 NMatT0=    0 NMatD0=    1 NMtDS0=    0 NMtDT0=    0
 Symmetry not used in FoFCou.
 Requested convergence on RMS density matrix=1.00D-08 within 128 cycles.
 Requested convergence on MAX density matrix=1.00D-06.
 Requested convergence on             energy=1.00D-06.
 No special actions if energy rises.
 Defaulting to unpruned grid for atomic number  42.
 Defaulting to unpruned grid for atomic number  42.
 Defaulting to unpruned grid for atomic number  42.
 Defaulting to unpruned grid for atomic number  42.
 Defaulting to unpruned grid for atomic number  42.
 Defaulting to unpruned grid for atomic number  42.
 Defaulting to unpruned grid for atomic number  42.
 Defaulting to unpruned grid for atomic number  42.
 Defaulting to unpruned grid for atomic number  42.
 Defaulting to unpruned grid for atomic number  42.
 Defaulting to unpruned grid for atomic number  42.
 Defaulting to unpruned grid for atomic number  42.
 Defaulting to unpruned grid for atomic number  42.
 Defaulting to unpruned grid for atomic number  42.
 Defaulting to unpruned grid for atomic number  42.
 Defaulting to unpruned grid for atomic number  42.
 Defaulting to unpruned grid for atomic number  42.
 Defaulting to unpruned grid for atomic number  42.
 Defaulting to unpruned grid for atomic number  42.
 Defaulting to unpruned grid for atomic number  42.
 Defaulting to unpruned grid for atomic number  42.
 Defaulting to unpruned grid for atomic number  42.
 Defaulting to unpruned grid for atomic number  42.
 Defaulting to unpruned grid for atomic number  42.
 Defaulting to unpruned grid for atomic number  42.
 Defaulting to unpruned grid for atomic number  42.
 Defaulting to unpruned grid for atomic number  42.
 Defaulting to unpruned grid for atomic number  42.
 Defaulting to unpruned grid for atomic number  42.
 Defaulting to unpruned grid for atomic number  42.
 Defaulting to unpruned grid for atomic number  42.
 Defaulting to unpruned grid for atomic number  42.
 Defaulting to unpruned grid for atomic number  42.
 Defaulting to unpruned grid for atomic number  42.
 Defaulting to unpruned grid for atomic number  42.
 Defaulting to unpruned grid for atomic number  42.
 Defaulting to unpruned grid for atomic number  42.
 Defaulting to unpruned grid for atomic number  42.
 Defaulting to unpruned grid for atomic number  42.
 Defaulting to unpruned grid for atomic number  42.
 Defaulting to unpruned grid for atomic number  42.
 Defaulting to unpruned grid for atomic number  42.
 Defaulting to unpruned grid for atomic number  42.
 Defaulting to unpruned grid for atomic number  42.
 Defaulting to unpruned grid for atomic number  42.
 Defaulting to unpruned grid for atomic number  42.
 Defaulting to unpruned grid for atomic number  42.
 Defaulting to unpruned grid for atomic number  42.
 EnCoef did     4 forward-backward iterations
 EnCoef did   100 forward-backward iterations
 EnCoef did     5 forward-backward iterations
 EnCoef did     7 forward-backward iterations
 EnCoef did     3 forward-backward iterations
 EnCoef did     8 forward-backward iterations
 EnCoef did     2 forward-backward iterations
 Restarting incremental Fock formation.
 SCF Done:  E(RB3LYP) =  -3798.49661686     A.U. after   24 cycles
            NFock= 24  Conv=0.89D-08     -V/T= 2.0527

 **********************************************************************

            Population analysis using the SCF Density.

 **********************************************************************

 Alpha  occ. eigenvalues --  -88.91312 -88.90958 -88.90718 -88.89516 -88.89360
 Alpha  occ. eigenvalues --  -88.88966 -88.88675 -88.85687 -19.26144 -19.24544
 Alpha  occ. eigenvalues --  -19.24302 -10.33302 -10.31810 -10.31682  -7.98817
 Alpha  occ. eigenvalues --   -7.98628  -7.98298  -7.97163  -7.96956  -7.96741
 Alpha  occ. eigenvalues --   -7.96499  -7.93343  -5.94854  -5.94763  -5.94728
 Alpha  occ. eigenvalues --   -5.94643  -5.94586  -5.94538  -5.94513  -5.94156
 Alpha  occ. eigenvalues --   -5.94086  -5.93222  -5.93173  -5.93124  -5.93028
 Alpha  occ. eigenvalues --   -5.92872  -5.92766  -5.92755  -5.92696  -5.92673
 Alpha  occ. eigenvalues --   -5.92624  -5.92390  -5.92190  -5.89627  -5.89235
 Alpha  occ. eigenvalues --   -5.89044  -2.55868  -2.54398  -2.54001  -2.49364
 Alpha  occ. eigenvalues --   -1.58922  -1.58590  -1.58045  -1.57775  -1.56518
 Alpha  occ. eigenvalues --   -1.56361  -1.56037  -1.56013  -1.54992  -1.52433
 Alpha  occ. eigenvalues --   -1.51608  -1.51543  -1.16397  -1.14778  -1.14589
 Alpha  occ. eigenvalues --   -0.76627  -0.75295  -0.74260  -0.74041  -0.73540
 Alpha  occ. eigenvalues --   -0.72022  -0.71518  -0.70411  -0.59282  -0.58006
 Alpha  occ. eigenvalues --   -0.57325  -0.48949  -0.48553  -0.48220  -0.47984
 Alpha  occ. eigenvalues --   -0.47372  -0.46792  -0.46428  -0.46048  -0.45495
 Alpha  occ. eigenvalues --   -0.44824  -0.44318  -0.43833  -0.41159  -0.40770
 Alpha  occ. eigenvalues --   -0.39920  -0.39526  -0.39461  -0.39014  -0.38342
 Alpha  occ. eigenvalues --   -0.37171  -0.36552  -0.35168  -0.34850  -0.34276
 Alpha  occ. eigenvalues --   -0.33772  -0.33294  -0.32869  -0.32484  -0.31541
 Alpha  occ. eigenvalues --   -0.30981  -0.30154  -0.29349  -0.28364  -0.27714
 Alpha  occ. eigenvalues --   -0.26782  -0.25177  -0.24002  -0.23913  -0.22793
 Alpha virt. eigenvalues --   -0.15012  -0.14079  -0.13646  -0.13261  -0.13008
 Alpha virt. eigenvalues --   -0.12176  -0.10425  -0.09938  -0.09580  -0.07958
 Alpha virt. eigenvalues --   -0.07227  -0.04986  -0.04342  -0.03801  -0.03155
 Alpha virt. eigenvalues --   -0.02503  -0.01847  -0.01481  -0.00851  -0.00583
 Alpha virt. eigenvalues --   -0.00473   0.00528   0.01221   0.01563   0.01700
 Alpha virt. eigenvalues --    0.02940   0.03137   0.03839   0.03991   0.04918
 Alpha virt. eigenvalues --    0.05336   0.06043   0.06262   0.06466   0.06934
 Alpha virt. eigenvalues --    0.08228   0.09818   0.09944   0.12683   0.13761
 Alpha virt. eigenvalues --    0.14779   0.16112   0.17177   0.17649   0.18704
 Alpha virt. eigenvalues --    0.20013   0.23129   0.23321   0.24776   0.25146
 Alpha virt. eigenvalues --    0.26685   0.26968   0.27677   0.27901   0.28236
 Alpha virt. eigenvalues --    0.30014   0.31053   0.31699   0.32144   0.32380
 Alpha virt. eigenvalues --    0.33260   0.33645   0.34179   0.34490   0.34511
 Alpha virt. eigenvalues --    0.35785   0.36419   0.36770   0.37583   0.38003
 Alpha virt. eigenvalues --    0.38427   0.38795   0.39513   0.40054   0.40924
 Alpha virt. eigenvalues --    0.41280   0.41990   0.42195   0.42624   0.43182
 Alpha virt. eigenvalues --    0.43493   0.45388   0.46708   0.47313   0.48124
 Alpha virt. eigenvalues --    0.48440   0.50072   0.50787   0.51142   0.53269
 Alpha virt. eigenvalues --    0.54206   0.54633   0.56458   0.56634   0.57880
 Alpha virt. eigenvalues --    0.58770   0.59724   0.61082   0.61819   0.62716
 Alpha virt. eigenvalues --    0.63240   0.65084   0.66237   0.67511   0.68405
 Alpha virt. eigenvalues --    0.68750   0.69845   0.71039   0.71207   0.72312
 Alpha virt. eigenvalues --    0.72463   0.73014   0.73547   0.73813   0.74172
 Alpha virt. eigenvalues --    0.74693   0.75134   0.76208   0.76474   0.77588
 Alpha virt. eigenvalues --    0.77894   0.78750   0.79776   0.81159   0.81607
 Alpha virt. eigenvalues --    0.82383   0.83428   0.83657   0.85327   0.85699
 Alpha virt. eigenvalues --    0.86023   0.86334   0.86864   0.87866   0.88470
 Alpha virt. eigenvalues --    0.89189   0.90137   0.90503   0.92504   0.94257
 Alpha virt. eigenvalues --    0.95578   0.96341   0.97029   0.97950   0.98462
 Alpha virt. eigenvalues --    0.99041   1.00289   1.00487   1.00602   1.02324
 Alpha virt. eigenvalues --    1.02804   1.02951   1.03776   1.05139   1.05459
 Alpha virt. eigenvalues --    1.06918   1.07999   1.08332   1.09520   1.09911
 Alpha virt. eigenvalues --    1.10902   1.12160   1.13516   1.14144   1.14831
 Alpha virt. eigenvalues --    1.16687   1.18153   1.19930   1.21995   1.22467
 Alpha virt. eigenvalues --    1.37235   1.41705   1.46879   1.48744   1.48993
 Alpha virt. eigenvalues --    1.49620   1.49701   1.52015   1.54808   1.54983
 Alpha virt. eigenvalues --    1.58364   1.59460   1.64921   1.65793   1.75113
 Alpha virt. eigenvalues --    1.75925   1.79065   1.93250   1.93385   1.94303
 Alpha virt. eigenvalues --    1.96639   1.97690   1.98453   2.05607   2.07991
 Alpha virt. eigenvalues --    2.08671   2.09623   2.09955   2.11950   2.12332
 Alpha virt. eigenvalues --    2.14607   2.38081   2.39551   2.43248   2.57093
 Alpha virt. eigenvalues --    2.57257   2.58039   2.58488   2.58979   2.59160
 Alpha virt. eigenvalues --    2.70703   2.71402   2.73432   2.75283   2.97276
 Alpha virt. eigenvalues --    3.01586   3.02527   7.04911   8.90943  12.23805
 Alpha virt. eigenvalues --   18.86320
          Condensed to atoms (all electrons):
               1          2          3          4          5          6
     1  Mo  14.148411   0.149060   0.167964   0.129385   0.216485  -0.024619
     2  S    0.149060  15.307679  -0.012326   0.010044  -0.005166   0.000014
     3  S    0.167964  -0.012326  15.622241  -0.006798  -0.002178   0.000372
     4  S    0.129385   0.010044  -0.006798  15.596456  -0.012800   0.000930
     5  S    0.216485  -0.005166  -0.002178  -0.012800  15.431642   0.257590
     6  H   -0.024619   0.000014   0.000372   0.000930   0.257590   0.692972
     7  Mo  -0.261418  -0.033424   0.286389   0.200348  -0.009540  -0.000945
     8  S   -0.029202   0.000050   0.006237   0.012150   0.000041  -0.000000
     9  H    0.003647   0.000001  -0.000051  -0.000428   0.000000   0.000000
    10  S   -0.014080  -0.010897   0.018970  -0.016890  -0.000175  -0.000001
    11  Mo  -0.171275   0.247344  -0.010583   0.035349  -0.016742   0.001426
    12  S   -0.026596   0.009901  -0.000011  -0.002376  -0.000120   0.000001
    13  H    0.002084  -0.000454   0.000007  -0.000104   0.000000  -0.000000
    14  S   -0.039833  -0.000513  -0.000225  -0.025668   0.006763   0.000135
    15  H   -0.011281  -0.000092   0.000013  -0.000264  -0.002642   0.000009
    16  Mo  -0.250252   0.098554  -0.010178  -0.015606   0.111537  -0.024915
    17  C   -0.005977  -0.004549  -0.000001  -0.000060   0.002981  -0.000906
    18  C    0.000107  -0.003245   0.000010  -0.000008  -0.004154   0.000152
    19  C   -0.003366  -0.001944   0.000122  -0.000097  -0.030347  -0.011148
    20  O   -0.001843   0.000008  -0.000000   0.000000  -0.000557   0.000000
    21  O    0.000313  -0.000288  -0.000000  -0.000000   0.000007  -0.000000
    22  O    0.007139  -0.000340  -0.000004  -0.000000  -0.000645   0.003413
               7          8          9         10         11         12
     1  Mo  -0.261418  -0.029202   0.003647  -0.014080  -0.171275  -0.026596
     2  S   -0.033424   0.000050   0.000001  -0.010897   0.247344   0.009901
     3  S    0.286389   0.006237  -0.000051   0.018970  -0.010583  -0.000011
     4  S    0.200348   0.012150  -0.000428  -0.016890   0.035349  -0.002376
     5  S   -0.009540   0.000041   0.000000  -0.000175  -0.016742  -0.000120
     6  H   -0.000945  -0.000000   0.000000  -0.000001   0.001426   0.000001
     7  Mo  13.355337   0.307705  -0.022289   0.294054  -0.262936  -0.009578
     8  S    0.307705  15.582763   0.261798   0.005576  -0.015032   0.000036
     9  H   -0.022289   0.261798   0.652443  -0.002674   0.000972   0.000003
    10  S    0.294054   0.005576  -0.002674  15.643758   0.141703  -0.022409
    11  Mo  -0.262936  -0.015032   0.000972   0.141703  14.085099   0.362546
    12  S   -0.009578   0.000036   0.000003  -0.022409   0.362546  15.563410
    13  H    0.001392  -0.000002   0.000000  -0.006374  -0.032247   0.266161
    14  S   -0.001530   0.000028  -0.000001  -0.004894   0.233566  -0.036618
    15  H    0.003394  -0.000004   0.000000   0.000012  -0.028131   0.000558
    16  Mo   0.049263  -0.001060  -0.000014  -0.002983  -0.201426  -0.048295
    17  C   -0.001024   0.000000   0.000000  -0.000001  -0.003894   0.000016
    18  C    0.000431   0.000000  -0.000000   0.000028  -0.018405   0.001126
    19  C    0.000319  -0.000000  -0.000000   0.000004   0.008939   0.000029
    20  O   -0.000017   0.000000  -0.000000  -0.000000  -0.001437  -0.000000
    21  O    0.000098   0.000000   0.000000  -0.000001   0.003534  -0.000354
    22  O    0.000329   0.000000  -0.000000  -0.000000  -0.001018  -0.000000
              13         14         15         16         17         18
     1  Mo   0.002084  -0.039833  -0.011281  -0.250252  -0.005977   0.000107
     2  S   -0.000454  -0.000513  -0.000092   0.098554  -0.004549  -0.003245
     3  S    0.000007  -0.000225   0.000013  -0.010178  -0.000001   0.000010
     4  S   -0.000104  -0.025668  -0.000264  -0.015606  -0.000060  -0.000008
     5  S    0.000000   0.006763  -0.002642   0.111537   0.002981  -0.004154
     6  H   -0.000000   0.000135   0.000009  -0.024915  -0.000906   0.000152
     7  Mo   0.001392  -0.001530   0.003394   0.049263  -0.001024   0.000431
     8  S   -0.000002   0.000028  -0.000004  -0.001060   0.000000   0.000000
     9  H    0.000000  -0.000001   0.000000  -0.000014   0.000000  -0.000000
    10  S   -0.006374  -0.004894   0.000012  -0.002983  -0.000001   0.000028
    11  Mo  -0.032247   0.233566  -0.028131  -0.201426  -0.003894  -0.018405
    12  S    0.266161  -0.036618   0.000558  -0.048295   0.000016   0.001126
    13  H    0.688955   0.001085  -0.000004   0.003119  -0.000000  -0.000038
    14  S    0.001085  15.307439   0.274482   0.192344   0.008349  -0.004745
    15  H   -0.000004   0.274482   0.681055  -0.013458  -0.001328   0.000329
    16  Mo   0.003119   0.192344  -0.013458  14.129524   0.120846   0.167766
    17  C   -0.000000   0.008349  -0.001328   0.120846   5.030881  -0.015372
    18  C   -0.000038  -0.004745   0.000329   0.167766  -0.015372   4.989012
    19  C    0.000000  -0.004304   0.000060   0.174624  -0.018876  -0.011313
    20  O    0.000000  -0.000551   0.000009   0.002503   0.630450  -0.000964
    21  O    0.000002   0.000512  -0.000002  -0.007041  -0.001003   0.626587
    22  O   -0.000000   0.000007  -0.000000  -0.013623  -0.001027  -0.000939
              19         20         21         22
     1  Mo  -0.003366  -0.001843   0.000313   0.007139
     2  S   -0.001944   0.000008  -0.000288  -0.000340
     3  S    0.000122  -0.000000  -0.000000  -0.000004
     4  S   -0.000097   0.000000  -0.000000  -0.000000
     5  S   -0.030347  -0.000557   0.000007  -0.000645
     6  H   -0.011148   0.000000  -0.000000   0.003413
     7  Mo   0.000319  -0.000017   0.000098   0.000329
     8  S   -0.000000   0.000000   0.000000   0.000000
     9  H   -0.000000  -0.000000   0.000000  -0.000000
    10  S    0.000004  -0.000000  -0.000001  -0.000000
    11  Mo   0.008939  -0.001437   0.003534  -0.001018
    12  S    0.000029  -0.000000  -0.000354  -0.000000
    13  H    0.000000   0.000000   0.000002  -0.000000
    14  S   -0.004304  -0.000551   0.000512   0.000007
    15  H    0.000060   0.000009  -0.000002  -0.000000
    16  Mo   0.174624   0.002503  -0.007041  -0.013623
    17  C   -0.018876   0.630450  -0.001003  -0.001027
    18  C   -0.011313  -0.000964   0.626587  -0.000939
    19  C    5.047861  -0.001163  -0.001226   0.609399
    20  O   -0.001163   7.590478   0.000021   0.000025
    21  O   -0.001226   0.000021   7.606126   0.000027
    22  O    0.609399   0.000025   0.000027   7.643570
 Mulliken charges:
               1
     1  Mo   0.015146
     2  S    0.250584
     3  S   -0.059969
     4  S    0.096436
     5  S    0.058021
     6  H    0.105520
     7  Mo   0.103643
     8  S   -0.131086
     9  H    0.106593
    10  S   -0.022728
    11  Mo  -0.357352
    12  S   -0.057430
    13  H    0.076417
    14  S    0.094173
    15  H    0.097288
    16  Mo  -0.461231
    17  C    0.260495
    18  C    0.273635
    19  C    0.242426
    20  O   -0.216961
    21  O   -0.227310
    22  O   -0.246312
 Sum of Mulliken charges =  -0.00000
 Mulliken charges with hydrogens summed into heavy atoms:
               1
     1  Mo   0.015146
     2  S    0.250584
     3  S   -0.059969
     4  S    0.096436
     5  S    0.163541
     7  Mo   0.103643
     8  S   -0.024492
    10  S   -0.022728
    11  Mo  -0.357352
    12  S    0.018987
    14  S    0.191461
    16  Mo  -0.461231
    17  C    0.260495
    18  C    0.273635
    19  C    0.242426
    20  O   -0.216961
    21  O   -0.227310
    22  O   -0.246312
 Electronic spatial extent (au):  <R**2>=         105155.6755
 Charge=             -0.0000 electrons
 Dipole moment (field-independent basis, Debye):
    X=             -0.9325    Y=             -2.4659    Z=              0.6293  Tot=              2.7104
 Quadrupole moment (field-independent basis, Debye-Ang):
   XX=           -237.3920   YY=           -242.9761   ZZ=           -218.0624
   XY=            -11.0471   XZ=             -2.7669   YZ=            -23.7434
 Traceless Quadrupole moment (field-independent basis, Debye-Ang):
   XX=             -4.5818   YY=            -10.1660   ZZ=             14.7478
   XY=            -11.0471   XZ=             -2.7669   YZ=            -23.7434
 Octapole moment (field-independent basis, Debye-Ang**2):
  XXX=           -335.6083  YYY=          -1545.0532  ZZZ=          -7135.7392  XYY=           -158.5887
  XXY=           -510.1974  XXZ=          -2530.2070  XZZ=            -76.6975  YZZ=           -748.3199
  YYZ=          -2541.4517  XYZ=            -89.3274
 Hexadecapole moment (field-independent basis, Debye-Ang**3):
 XXXX=          -8798.8527 YYYY=          -9753.4893 ZZZZ=        -154999.1583 XXXY=           -618.1667
 XXXZ=          -3437.7423 YYYX=           -733.9409 YYYZ=         -15823.8875 ZZZX=          -2583.9707
 ZZZY=         -18285.0704 XXYY=          -3142.3458 XXZZ=         -28836.5543 YYZZ=         -28687.0523
 XXYZ=          -5335.3446 YYXZ=          -1545.0946 ZZXY=           -875.8376
 N-N= 3.405670793411D+03 E-N=-1.573491148122D+04  KE= 3.608256435430D+03
   1 Symmetry operations used in ECPInt.
 ECPInt:  NShTT=    5886 NPrTT=   42631 LenC2=    5258 LenP2D=   24457.
 LDataN:  DoStor=T MaxTD1= 6 Len=  172
 Calling FoFJK, ICntrl=      2127 FMM=F ISym2X=0 I1Cent= 0 IOpClX= 0 NMat=1 NMatS=1 NMatT=0.
 Defaulting to unpruned grid for atomic number  42.
 Defaulting to unpruned grid for atomic number  42.
 Defaulting to unpruned grid for atomic number  42.
 Defaulting to unpruned grid for atomic number  42.
 Defaulting to unpruned grid for atomic number  42.
 Defaulting to unpruned grid for atomic number  42.
 Defaulting to unpruned grid for atomic number  42.
 Defaulting to unpruned grid for atomic number  42.
 Defaulting to unpruned grid for atomic number  42.
 Defaulting to unpruned grid for atomic number  42.
 Defaulting to unpruned grid for atomic number  42.
 Defaulting to unpruned grid for atomic number  42.
 Defaulting to unpruned grid for atomic number  42.
 Defaulting to unpruned grid for atomic number  42.
 Defaulting to unpruned grid for atomic number  42.
 Defaulting to unpruned grid for atomic number  42.
 Defaulting to unpruned grid for atomic number  42.
 Defaulting to unpruned grid for atomic number  42.
 Defaulting to unpruned grid for atomic number  42.
 Defaulting to unpruned grid for atomic number  42.
 Defaulting to unpruned grid for atomic number  42.
 Defaulting to unpruned grid for atomic number  42.
 Defaulting to unpruned grid for atomic number  42.
 Defaulting to unpruned grid for atomic number  42.
 Defaulting to unpruned grid for atomic number  42.
 Defaulting to unpruned grid for atomic number  42.
 Defaulting to unpruned grid for atomic number  42.
 Defaulting to unpruned grid for atomic number  42.
 Defaulting to unpruned grid for atomic number  42.
 Defaulting to unpruned grid for atomic number  42.
 Defaulting to unpruned grid for atomic number  42.
 Defaulting to unpruned grid for atomic number  42.
 Defaulting to unpruned grid for atomic number  42.
 Defaulting to unpruned grid for atomic number  42.
 Defaulting to unpruned grid for atomic number  42.
 Defaulting to unpruned grid for atomic number  42.
 Defaulting to unpruned grid for atomic number  42.
 Defaulting to unpruned grid for atomic number  42.
 Defaulting to unpruned grid for atomic number  42.
 Defaulting to unpruned grid for atomic number  42.
 Defaulting to unpruned grid for atomic number  42.
 Defaulting to unpruned grid for atomic number  42.
 Defaulting to unpruned grid for atomic number  42.
 Defaulting to unpruned grid for atomic number  42.
 Defaulting to unpruned grid for atomic number  42.
 Defaulting to unpruned grid for atomic number  42.
 Defaulting to unpruned grid for atomic number  42.
 Defaulting to unpruned grid for atomic number  42.
 -------------------------------------------------------------------
 Center     Atomic                   Forces (Hartrees/Bohr)
 Number     Number              X              Y              Z
 -------------------------------------------------------------------
      1       42          -0.001134076    0.002958501    0.002362088
      2       16          -0.000479909    0.000606259    0.000520585
      3       16           0.000345604    0.000704967   -0.000197605
      4       16           0.001881533   -0.001150458   -0.001415606
      5       16          -0.003661285   -0.001437605    0.002977406
      6        1          -0.001816942   -0.012220531   -0.001609078
      7       42           0.000315901   -0.001215963   -0.000353276
      8       16          -0.000119975    0.000046289    0.000021737
      9        1           0.000038828   -0.000026866   -0.000038914
     10       16          -0.000180162   -0.000216379   -0.000018866
     11       42           0.000227240    0.000273960   -0.000246936
     12       16          -0.000169134   -0.000250119    0.000016391
     13        1          -0.000018533    0.000032708    0.000018510
     14       16          -0.000762514   -0.001402523   -0.000158031
     15        1          -0.000024503    0.000272579   -0.000156204
     16       42           0.005163488    0.009789205    0.001532302
     17        6          -0.000443037    0.000604370   -0.000862607
     18        6          -0.000797260   -0.002866969   -0.000391038
     19        6          -0.000287886    0.006387772   -0.005712007
     20        8           0.000317991   -0.000228939   -0.000014403
     21        8           0.000623923    0.001264746    0.000201308
     22        8           0.000980707   -0.001925003    0.003524245
 -------------------------------------------------------------------
 Cartesian Forces:  Max     0.012220531 RMS     0.002571028

 GradGradGradGradGradGradGradGradGradGradGradGradGradGradGradGradGradGrad
 Berny optimization.
 FormGI is forming the generalized inverse of G from B-inverse, IUseBI=4.
 Internal  Forces:  Max     0.011026164 RMS     0.001535938
 Search for a local minimum.
 Step number   1 out of a maximum of  132
 All quantities printed in internal units (Hartrees-Bohrs-Radians)
 Mixed Optimization -- RFO/linear search
 Second derivative matrix not updated -- first step.
 ITU=  0
     Eigenvalues ---    0.00230   0.00230   0.01600   0.01678   0.02108
     Eigenvalues ---    0.02528   0.02623   0.02964   0.03111   0.04100
     Eigenvalues ---    0.04542   0.04930   0.04930   0.04996   0.04996
     Eigenvalues ---    0.05001   0.05019   0.05019   0.05584   0.05782
     Eigenvalues ---    0.06189   0.06810   0.07406   0.07610   0.07765
     Eigenvalues ---    0.08081   0.08326   0.09536   0.10147   0.10270
     Eigenvalues ---    0.10754   0.11103   0.11290   0.11967   0.11991
     Eigenvalues ---    0.12223   0.13009   0.13338   0.13716   0.13874
     Eigenvalues ---    0.14145   0.14348   0.14816   0.15266   0.15585
     Eigenvalues ---    0.15608   0.16000   0.16000   0.16522   0.16597
     Eigenvalues ---    0.16823   0.17201   0.18363   0.25407   0.25419
     Eigenvalues ---    0.25514   0.25699   1.30986   1.34443   1.35625
 RFO step:  Lambda=-6.97317574D-03 EMin= 2.30000000D-03
 Linear search not attempted -- first point.
 Iteration  1 RMS(Cart)=  0.03566630 RMS(Int)=  0.00191142
 Iteration  2 RMS(Cart)=  0.00193162 RMS(Int)=  0.00022036
 Iteration  3 RMS(Cart)=  0.00000245 RMS(Int)=  0.00022035
 Iteration  4 RMS(Cart)=  0.00000000 RMS(Int)=  0.00022035
 Variable       Old X    -DE/DX   Delta X   Delta X   Delta X     New X
                                 (Linear)    (Quad)   (Total)
    R1        4.45903   0.00075   0.00000   0.00619   0.00621   4.46524
    R2        4.48162  -0.00057   0.00000  -0.00156  -0.00147   4.48015
    R3        4.52938   0.00001   0.00000   0.00190   0.00186   4.53124
    R4        4.58719   0.00198   0.00000   0.02257   0.02267   4.60987
    R5        5.14330  -0.00097   0.00000  -0.00322  -0.00312   5.14018
    R6        5.13673   0.00087   0.00000   0.00805   0.00788   5.14461
    R7        5.51144   0.00269   0.00000   0.01300   0.01253   5.52397
    R8        4.39833   0.00159   0.00000   0.00280   0.00276   4.40108
    R9        4.73813   0.00030   0.00000  -0.00763  -0.00769   4.73044
   R10        4.31633   0.00051   0.00000  -0.00388  -0.00414   4.31219
   R11        4.43194   0.00111   0.00000   0.00447   0.00443   4.43637
   R12        4.58704  -0.00051   0.00000  -0.00109  -0.00104   4.58600
   R13        2.55684  -0.00211   0.00000  -0.00808  -0.00808   2.54876
   R14        4.91459   0.01103   0.00000   0.12950   0.12974   5.04432
   R15        4.43707   0.00007   0.00000   0.00051   0.00051   4.43759
   R16        4.23681  -0.00007   0.00000  -0.00094  -0.00084   4.23597
   R17        5.33237  -0.00108   0.00000  -0.00201  -0.00189   5.33048
   R18        2.55655   0.00001   0.00000   0.00003   0.00003   2.55658
   R19        4.61290  -0.00034   0.00000  -0.00083  -0.00075   4.61215
   R20        4.55271  -0.00027   0.00000  -0.00209  -0.00209   4.55062
   R21        4.70798  -0.00086   0.00000  -0.00403  -0.00397   4.70400
   R22        5.82254  -0.00138   0.00000  -0.00787  -0.00783   5.81471
   R23        2.54963   0.00004   0.00000   0.00015   0.00015   2.54978
   R24        2.55419  -0.00019   0.00000  -0.00072  -0.00072   2.55347
   R25        4.90161  -0.00036   0.00000   0.00130   0.00143   4.90304
   R26        3.88626   0.00006   0.00000   0.00036   0.00036   3.88662
   R27        3.84103  -0.00143   0.00000  -0.00828  -0.00828   3.83275
   R28        3.81514  -0.00255   0.00000  -0.01422  -0.01422   3.80092
   R29        2.17035   0.00037   0.00000   0.00027   0.00027   2.17062
   R30        2.17352   0.00139   0.00000   0.00103   0.00103   2.17455
   R31        2.18301   0.00389   0.00000   0.00296   0.00296   2.18597
    A1        1.68273   0.00001   0.00000  -0.00209  -0.00222   1.68051
    A2        1.92384  -0.00005   0.00000  -0.00251  -0.00247   1.92137
    A3        1.94535   0.00161   0.00000   0.02553   0.02565   1.97100
    A4        1.63696   0.00001   0.00000   0.00023   0.00023   1.63719
    A5        1.78930   0.00067   0.00000   0.00284   0.00277   1.79206
    A6        2.52700  -0.00097   0.00000  -0.00757  -0.00788   2.51912
    A7        1.84208   0.00009   0.00000  -0.00338  -0.00348   1.83860
    A8        2.63356  -0.00014   0.00000  -0.00460  -0.00473   2.62883
    A9        1.53622  -0.00158   0.00000  -0.02458  -0.02485   1.51138
   A10        1.66627  -0.00111   0.00000  -0.00544  -0.00529   1.66098
   A11        2.45285  -0.00152   0.00000  -0.02786  -0.02828   2.42457
   A12        1.88760   0.00039   0.00000   0.00243   0.00209   1.88969
   A13        2.24542  -0.00100   0.00000  -0.00542  -0.00529   2.24014
   A14        1.58612   0.00437   0.00000   0.06777   0.06965   1.65577
   A15        1.47008   0.00614   0.00000   0.12376   0.12471   1.59479
   A16        2.43282  -0.00022   0.00000  -0.00110  -0.00107   2.43175
   A17        1.82660   0.00034   0.00000   0.00205   0.00195   1.82855
   A18        1.86591   0.00006   0.00000   0.00298   0.00301   1.86891
   A19        1.91579  -0.00028   0.00000   0.00045   0.00061   1.91640
   A20        1.95780   0.00009   0.00000  -0.00327  -0.00348   1.95432
   A21        1.82877   0.00037   0.00000   0.00009  -0.00001   1.82875
   A22        1.83372   0.00010   0.00000   0.00114   0.00108   1.83480
   A23        1.86159   0.00014   0.00000   0.00004   0.00006   1.86165
   A24        2.01772  -0.00009   0.00000  -0.00068  -0.00062   2.01710
   A25        2.51869  -0.00008   0.00000   0.00027   0.00020   2.51889
   A26        1.68065  -0.00005   0.00000  -0.00029  -0.00029   1.68036
   A27        1.73542  -0.00011   0.00000  -0.00106  -0.00108   1.73434
   A28        2.70742   0.00029   0.00000   0.00159   0.00159   2.70901
   A29        1.73097   0.00018   0.00000   0.00141   0.00131   1.73229
   A30        1.92454  -0.00015   0.00000  -0.00047  -0.00044   1.92410
   A31        1.60469  -0.00012   0.00000   0.00067   0.00067   1.60536
   A32        1.63653  -0.00012   0.00000   0.00132   0.00122   1.63775
   A33        1.75984   0.00038   0.00000   0.00119   0.00117   1.76101
   A34        1.84305   0.00064   0.00000   0.00197   0.00195   1.84500
   A35        1.71401   0.00061   0.00000   0.00148   0.00148   1.71549
   A36        2.58067  -0.00039   0.00000  -0.00142  -0.00144   2.57923
   A37        1.46334  -0.00097   0.00000  -0.00402  -0.00402   1.45932
   A38        1.58404  -0.00004   0.00000   0.00012   0.00011   1.58416
   A39        2.37704   0.00014   0.00000   0.00045   0.00048   2.37752
   A40        2.37822  -0.00054   0.00000  -0.00269  -0.00273   2.37549
   A41        2.07326   0.00049   0.00000   0.00177   0.00170   2.07496
   A42        1.52517   0.00008   0.00000   0.00055   0.00060   1.52577
   A43        2.76745  -0.00034   0.00000  -0.00220  -0.00208   2.76537
   A44        2.55691   0.00019   0.00000   0.00093   0.00079   2.55770
   A45        1.39850   0.00000   0.00000   0.00029   0.00030   1.39880
   A46        1.77883  -0.00049   0.00000  -0.00173  -0.00168   1.77715
   A47        1.80507   0.00001   0.00000   0.00008   0.00008   1.80514
   A48        1.78697   0.00047   0.00000   0.00009   0.00005   1.78702
   A49        1.77532   0.00080   0.00000   0.00361   0.00358   1.77890
   A50        1.60529  -0.00032   0.00000  -0.00081  -0.00084   1.60445
   A51        2.40778  -0.00019   0.00000  -0.00150  -0.00153   2.40625
   A52        2.34115   0.00047   0.00000   0.00330   0.00336   2.34451
   A53        1.63128   0.00108   0.00000   0.00802   0.00800   1.63929
   A54        1.77160  -0.00083   0.00000  -0.00223  -0.00240   1.76920
   A55        1.70405   0.00074   0.00000   0.00283   0.00281   1.70686
   A56        1.46189   0.00075   0.00000   0.00401   0.00402   1.46592
   A57        1.50804  -0.00036   0.00000  -0.00531  -0.00531   1.50273
   A58        1.64170  -0.00082   0.00000  -0.01381  -0.01406   1.62764
   A59        1.68406  -0.00126   0.00000  -0.02005  -0.02015   1.66390
   A60        1.50763   0.00047   0.00000   0.00312   0.00328   1.51091
   A61        1.50625   0.00190   0.00000   0.03208   0.03217   1.53843
   A62        2.42932  -0.00050   0.00000  -0.00375  -0.00372   2.42560
   A63        1.61949   0.00016   0.00000  -0.00203  -0.00195   1.61754
   A64        2.32965   0.00043   0.00000  -0.00075  -0.00089   2.32876
   A65        1.53833  -0.00054   0.00000  -0.00395  -0.00392   1.53441
   A66        1.52101   0.00040   0.00000  -0.00318  -0.00311   1.51790
   A67        1.53375  -0.00030   0.00000  -0.00207  -0.00213   1.53162
   A68        1.52390   0.00010   0.00000   0.00484   0.00486   1.52876
   A69        1.56386  -0.00107   0.00000  -0.00871  -0.00874   1.55512
   A70        3.27923  -0.00036   0.00000   0.00089   0.00088   3.28011
   A71        3.23349  -0.00008   0.00000   0.00178   0.00162   3.23511
   A72        3.23658   0.00075   0.00000   0.00721   0.00716   3.24374
   A73        3.16168   0.00023   0.00000   0.00410   0.00410   3.16578
   A74        3.18746  -0.00017   0.00000  -0.00290  -0.00290   3.18457
   A75        3.17166  -0.00137   0.00000  -0.02442  -0.02442   3.14724
   A76        3.26195  -0.00005   0.00000  -0.00417  -0.00418   3.25777
   A77        3.06265   0.00085   0.00000   0.02346   0.02351   3.08616
   A78        3.12839   0.00016   0.00000   0.00921   0.00921   3.13760
   A79        3.12638   0.00016   0.00000   0.00286   0.00286   3.12924
   A80        3.15084  -0.00070   0.00000  -0.01227  -0.01227   3.13857
   A81        3.15338  -0.00252   0.00000  -0.04476  -0.04476   3.10862
    D1        1.22830   0.00488   0.00000   0.12237   0.12247   1.35077
    D2       -1.21375   0.00277   0.00000   0.07763   0.07738  -1.13636
    D3       -3.11782   0.00435   0.00000   0.11253   0.11206  -3.00576
    D4       -2.85391   0.00569   0.00000   0.13031   0.12936  -2.72455
    D5        2.23376   0.00542   0.00000   0.12556   0.12543   2.35919
    D6       -3.06528   0.00034   0.00000   0.00051   0.00038  -3.06490
    D7        0.20789  -0.00012   0.00000  -0.00244  -0.00246   0.20543
    D8        0.92977  -0.00107   0.00000  -0.01762  -0.01709   0.91268
    D9       -2.08024  -0.00153   0.00000  -0.02057  -0.01993  -2.10017
   D10        2.38548   0.00023   0.00000   0.00270   0.00257   2.38805
   D11       -0.62453  -0.00023   0.00000  -0.00025  -0.00027  -0.62480
   D12       -0.02409   0.00010   0.00000  -0.00285  -0.00283  -0.02692
   D13        1.79771   0.00026   0.00000  -0.00274  -0.00265   1.79506
   D14       -2.97915   0.00067   0.00000   0.00100   0.00095  -2.97820
   D15        2.93626  -0.00169   0.00000  -0.03245  -0.03272   2.90355
   D16       -1.52513  -0.00153   0.00000  -0.03234  -0.03253  -1.55766
   D17       -0.01880  -0.00112   0.00000  -0.02860  -0.02894  -0.04774
   D18       -2.01934   0.00064   0.00000   0.00971   0.00953  -2.00982
   D19        2.70327   0.00182   0.00000   0.01654   0.01634   2.71961
   D20       -0.48445   0.00088   0.00000   0.00450   0.00436  -0.48009
   D21        1.13545   0.00048   0.00000   0.00050   0.00032   1.13577
   D22        0.21972  -0.00046   0.00000  -0.00293  -0.00294   0.21678
   D23       -1.34085   0.00071   0.00000   0.00390   0.00388  -1.33698
   D24        1.75462  -0.00022   0.00000  -0.00814  -0.00810   1.74651
   D25       -2.90867  -0.00062   0.00000  -0.01214  -0.01214  -2.92082
   D26       -0.60620  -0.00051   0.00000  -0.00266  -0.00272  -0.60892
   D27       -2.16678   0.00067   0.00000   0.00417   0.00409  -2.16268
   D28        0.92869  -0.00027   0.00000  -0.00787  -0.00788   0.92081
   D29        2.54859  -0.00067   0.00000  -0.01187  -0.01193   2.53666
   D30       -1.33032  -0.00084   0.00000  -0.00445  -0.00431  -1.33463
   D31        1.27385   0.00054   0.00000   0.00291   0.00285   1.27670
   D32       -1.41670  -0.00278   0.00000  -0.04678  -0.04631  -1.46301
   D33       -2.25096  -0.00320   0.00000  -0.04605  -0.04549  -2.29645
   D34        3.13539  -0.00313   0.00000  -0.04487  -0.04441   3.09099
   D35        1.60453  -0.00272   0.00000  -0.04261  -0.04213   1.56240
   D36        0.07674  -0.00268   0.00000  -0.04533  -0.04494   0.03180
   D37       -2.44103  -0.00029   0.00000   0.00146   0.00160  -2.43943
   D38        2.79501   0.00002   0.00000   0.00005  -0.00003   2.79498
   D39       -1.48748   0.00002   0.00000   0.00430   0.00430  -1.48318
   D40        0.55934   0.00022   0.00000   0.00475   0.00476   0.56410
   D41       -0.61200   0.00017   0.00000   0.00535   0.00529  -0.60671
   D42       -0.24009   0.00006   0.00000   0.00515   0.00520  -0.23489
   D43       -2.12290  -0.00043   0.00000   0.00247   0.00252  -2.12038
   D44        1.76924   0.00061   0.00000   0.00754   0.00754   1.77678
   D45        0.59939   0.00002   0.00000   0.00401   0.00407   0.60346
   D46       -3.12352  -0.00003   0.00000  -0.00004  -0.00003  -3.12355
   D47        1.27685  -0.00052   0.00000  -0.00272  -0.00271   1.27414
   D48       -1.11419   0.00052   0.00000   0.00235   0.00231  -1.11188
   D49       -2.28404  -0.00007   0.00000  -0.00118  -0.00116  -2.28520
   D50       -1.54132  -0.00024   0.00000   0.00056   0.00044  -1.54087
   D51       -1.30374  -0.00003   0.00000  -0.00125  -0.00122  -1.30496
   D52        2.09328   0.00104   0.00000   0.00347   0.00347   2.09674
   D53        0.51903   0.00028   0.00000   0.00131   0.00135   0.52038
   D54        0.32530  -0.00015   0.00000   0.00016   0.00010   0.32540
   D55       -3.12164  -0.00063   0.00000  -0.00316  -0.00311  -3.12476
   D56       -2.24928  -0.00026   0.00000  -0.00057  -0.00051  -2.24980
   D57        0.98966  -0.00032   0.00000  -0.00135  -0.00135   0.98831
   D58        1.97027  -0.00035   0.00000  -0.00089  -0.00086   1.96941
   D59        0.06144   0.00007   0.00000   0.00067   0.00067   0.06211
   D60        0.04973  -0.00056   0.00000  -0.00251  -0.00245   0.04729
   D61       -1.62768   0.00092   0.00000   0.00731   0.00724  -1.62044
   D62       -2.59210  -0.00003   0.00000   0.00017   0.00018  -2.59192
   D63       -0.23060  -0.00019   0.00000   0.00980   0.00972  -0.22088
   D64        1.32562  -0.00046   0.00000  -0.00162  -0.00163   1.32399
   D65        2.89611  -0.00076   0.00000  -0.00732  -0.00729   2.88882
   D66       -1.77963  -0.00206   0.00000  -0.02133  -0.02126  -1.80090
   D67        0.58060   0.00007   0.00000   0.01069   0.01061   0.59121
   D68        2.13682  -0.00020   0.00000  -0.00072  -0.00074   2.13608
   D69       -2.57587  -0.00050   0.00000  -0.00642  -0.00640  -2.58227
   D70       -0.96843  -0.00180   0.00000  -0.02044  -0.02037  -0.98881
   D71        1.62256   0.00098   0.00000   0.01316   0.01302   1.63559
   D72       -3.10440   0.00071   0.00000   0.00175   0.00167  -3.10273
   D73       -1.53391   0.00041   0.00000  -0.00395  -0.00399  -1.53790
   D74        0.07353  -0.00088   0.00000  -0.01797  -0.01796   0.05556
   D75       -2.85316   0.00044   0.00000   0.01198   0.01191  -2.84124
   D76       -1.29694   0.00018   0.00000   0.00057   0.00056  -1.29638
   D77        0.27355  -0.00012   0.00000  -0.00513  -0.00510   0.26845
   D78        1.88099  -0.00142   0.00000  -0.01914  -0.01907   1.86192
   D79       -1.07462   0.00033   0.00000   0.00443   0.00450  -1.07012
   D80       -1.96110   0.00062   0.00000   0.00452   0.00453  -1.95657
   D81       -0.17076  -0.00032   0.00000  -0.00061  -0.00079  -0.17155
   D82        1.33273   0.00014   0.00000   0.00288   0.00293   1.33566
   D83        2.86803  -0.00015   0.00000   0.00110   0.00110   2.86913
         Item               Value     Threshold  Converged?
 Maximum Force            0.011026     0.000450     NO 
 RMS     Force            0.001536     0.000300     NO 
 Maximum Displacement     0.426842     0.001800     NO 
 RMS     Displacement     0.035947     0.001200     NO 
 Predicted change in Energy=-3.887876D-03
 GradGradGradGradGradGradGradGradGradGradGradGradGradGradGradGradGradGrad

                          Input orientation:                          
 ---------------------------------------------------------------------
 Center     Atomic      Atomic             Coordinates (Angstroms)
 Number     Number       Type             X           Y           Z
 ---------------------------------------------------------------------
      1         42           0        0.026299    1.125717   11.574979
      2         16           0        1.088404    3.209246   11.912835
      3         16           0       -1.892737    1.597178   12.884820
      4         16           0       -0.868682    1.008243    9.353542
      5         16           0        1.574377   -0.629852   10.887753
      6          1           0        2.076118   -0.830243   12.123560
[...]
 145800,0.20664204,0.00059249,0.00157822,0.00175276,0.00062093,0.002399
 89,-0.00086317,-0.00007592,0.00014709,0.00013034,0.00445343,0.00736630
 ,0.00147844,-0.00008165,-0.00022662,-0.00017774,-0.00006841,0.00005918
 ,0.00006931,-0.00163916,-0.00030518,0.00272621,-0.00005139,0.00036340,
 -0.00068960,-0.00013182,-0.00025005,-0.00014606,0.00316432,0.00322482,
 0.00044970,0.01373116,0.01086524,-0.03128333,-0.08786047,0.04943213,0.
 08331263,-0.00065224,0.00003393,0.00091247,-0.00012226,-0.00009398,0.0
 0007299,-0.00042049,-0.00015748,0.00018509,-0.00048734,-0.00028171,-0.
 00079809,0.00007470,0.00001832,-0.00008180,-0.00005023,-0.00000820,0.0
 0001304,0.00003416,0.00041634,0.00018521,-0.00002208,-0.00032216,0.000
 12166,0.00008207,0.00013915,0.00009308,-0.00120994,-0.00167220,-0.0001
 1001,0.00491871,-0.00390137,-0.00230712,-0.09414017,0.10403448,0.06832
 918,0.09147844,-0.00046075,0.00034888,0.00013512,0.00015139,-0.0000274
 9,-0.00013628,-0.00027526,0.00004532,0.00005692,0.00042530,0.00071558,
 0.00003152,0.00000782,-0.00005512,-0.00011267,-0.00003544,0.00001510,0
 .00002421,0.00065749,-0.00057882,0.00095042,-0.00023703,-0.00000973,-0
 .00017839,0.00002475,-0.00009788,-0.00005249,-0.00147974,0.00127073,0.
 00026162,0.00384257,-0.01088053,-0.00322578,0.09574049,-0.12828211,-0.
 07300498,-0.09794258,0.13835308,0.00021487,0.00005080,0.00003440,-0.00
 019995,-0.00027985,0.00048318,-0.00016979,-0.00011738,0.00011686,-0.00
 045488,-0.00157642,-0.00085955,0.00004363,0.00007592,0.00007450,-0.000
 00902,-0.00001827,0.00000066,0.00134193,0.00162747,-0.00100877,-0.0000
 1555,-0.00037756,0.00016107,0.00009718,0.00020794,0.00016765,-0.000197
 90,0.00071285,-0.00082637,-0.00053042,0.00566188,0.00195367,0.06740203
 ,-0.08011242,-0.05757578,-0.06742572,0.07471243,0.05669303,0.00149088,
 -0.00042608,0.00123749,0.00235414,0.00061507,-0.00014811,-0.00081527,0
 .00023158,-0.00004204,-0.00906172,0.00114274,0.00585053,0.00069198,0.0
 0004122,0.00048203,0.00014942,-0.00025729,-0.00005968,0.00019519,0.003
 19171,-0.00022282,0.00000228,-0.00097053,0.00076882,0.00045725,0.00036
 158,0.00014485,-0.00515963,0.00147860,-0.00044301,-0.04176503,-0.00432
 626,0.02277687,0.00144534,0.00399978,-0.00097334,0.00033747,-0.0007195
 7,0.00012315,0.11166248,-0.00271034,-0.00093905,0.00224647,0.00102326,
 0.00037951,-0.00051162,0.00077651,-0.00020964,0.00004411,-0.00559096,0
 .00066443,0.00264011,0.00139340,0.00046137,0.00265398,-0.00067535,-0.0
 0040669,0.00042548,0.00107830,-0.00098857,0.00088781,0.00007376,-0.000
 05322,0.00019468,0.00018767,-0.00002082,-0.00015438,0.00137642,0.00178
 362,-0.00070360,0.01221901,-0.01722210,-0.01659973,0.00393314,-0.01032
 080,-0.00153712,-0.00047021,-0.00079834,-0.00077775,0.07967553,0.25008
 913,0.00285507,0.00125688,-0.00401941,0.00186679,-0.00045577,-0.003391
 94,-0.00048941,0.00048245,0.00031738,0.00289800,-0.00045199,0.00093617
 ,-0.00006103,-0.00001185,-0.00035320,0.00002358,0.00004803,-0.00000651
 ,-0.00053376,-0.00284147,0.00060927,0.00025220,0.00002171,0.00022772,-
 0.00002772,-0.00003987,-0.00011192,0.00672194,-0.00153996,0.00044358,0
 .01656169,-0.00288672,-0.03651856,-0.00220495,-0.00016374,0.00209252,0
 .00086341,0.00036623,0.00029560,0.00342036,0.05978279,0.10943983,-0.00
 068850,-0.00015130,-0.00034227,0.00002438,0.00029213,0.00014678,0.0001
 3318,0.00025173,-0.00000787,-0.00118580,-0.00006608,0.00106452,0.00040
 047,0.00052076,0.00041777,-0.00012302,-0.00009718,0.00016589,-0.000833
 95,0.00029748,-0.00001131,0.00003254,0.00035419,-0.00028048,-0.0001466
 7,-0.00013827,-0.00005534,-0.00032681,-0.00068213,0.00039028,0.0023500
 4,0.00856308,0.00465468,-0.00035831,-0.00008754,0.00028879,-0.00010251
 ,0.00030603,0.00008071,-0.04928159,-0.08897876,-0.02409243,0.05177429,
 0.00016956,-0.00006960,-0.00021265,-0.00017549,-0.00006934,0.00013780,
 -0.00008412,-0.00014991,0.00007072,0.00018202,0.00189674,0.00070709,-0
 .00012674,0.00021770,-0.00007835,0.00014902,-0.00009370,-0.00020792,-0
 .00089207,0.00035352,0.00052429,0.00000717,-0.00021786,0.00027122,0.00
 014916,0.00006279,0.00000950,-0.00038955,-0.00023193,-0.00023692,0.001
 11205,-0.00503369,-0.00204416,0.00067017,0.00012080,-0.00037078,0.0000
 5884,-0.00010972,-0.00020733,-0.08357784,-0.20649803,-0.05668192,0.082
 27477,0.20604692,-0.00090050,-0.00061483,0.00015416,0.00034115,-0.0000
 9928,0.00013771,0.00014355,0.00000501,-0.00009094,0.00121665,0.0006366
 8,-0.00027278,0.00056503,0.00043878,-0.00003352,-0.00027497,-0.0000767
 2,0.00036845,0.00064457,-0.00013018,-0.00016315,-0.00005782,-0.0000385
 7,-0.00003946,0.00002826,-0.00003406,-0.00003835,0.00002547,0.00090194
 ,0.00012825,-0.00158685,-0.00465056,-0.00225955,0.00003223,-0.00058186
 ,-0.00045543,-0.00004113,0.00021678,0.00045951,-0.01795478,-0.04755898
 ,-0.02386223,0.02151406,0.05738147,0.03222815,-0.02620217,-0.00337790,
 -0.00028225,-0.02313100,0.01951369,0.01943950,-0.00315273,0.00111257,0
 .00370550,-0.00199582,-0.00230442,-0.00157219,-0.00882095,-0.00613592,
 -0.00395201,0.00272358,0.00013476,-0.00109115,0.00051143,0.00423445,0.
 00457338,-0.00325867,-0.00108893,-0.00087111,0.00025657,-0.00032272,-0
 .00000215,-0.00138523,0.00222848,0.00257615,-0.01266685,-0.00081397,-0
 .01217506,0.00087952,0.00426394,-0.00037338,0.00035872,0.00002227,-0.0
 0052140,-0.00988880,-0.00595035,0.00199362,-0.00238815,0.00054898,-0.0
 0423013,0.31966198,0.00851257,-0.00454282,-0.00862567,0.02198414,-0.03
 482314,-0.02601134,-0.00391414,0.00258699,0.00172209,-0.00018973,0.000
 10833,0.00297068,0.00113038,-0.03029138,0.00187865,-0.00351338,-0.0066
 6060,-0.00100227,-0.00089072,-0.00090395,-0.00171476,-0.00035555,-0.00
 142834,0.00054703,0.00032817,0.00033568,0.00029315,0.00470082,0.000876
 09,-0.00314175,-0.00616128,-0.00586609,0.01039408,0.00199217,-0.000238
 48,0.00001023,0.00036836,0.00020717,0.00041782,-0.00507881,-0.02074844
 ,-0.00194066,-0.00316095,0.00434301,-0.00799117,-0.00616093,0.29825516
 ,0.00224677,-0.00089117,-0.00571568,0.01611050,-0.02154171,-0.02843213
 ,0.00296670,-0.00127589,0.00059857,-0.00193651,0.00103140,-0.00288635,
 -0.01906440,-0.01205859,-0.01426772,0.00507617,0.00607236,-0.00108176,
 0.00044255,-0.00143758,0.00181662,-0.00002901,0.00122214,-0.00094285,-
 0.00028661,-0.00037051,-0.00020710,-0.00552798,-0.00077633,0.00174808,
 0.01027235,0.00198069,0.00173703,-0.00163110,-0.00150938,-0.00068911,-
 0.00037089,0.00000852,-0.00031951,0.00211276,-0.00353212,-0.03270204,-
 0.00408533,0.00058067,-0.00596175,0.01511999,0.04316674,0.29344384,-0.
 00255513,-0.00242570,0.00252782,-0.00961819,0.00706633,0.00430234,0.00
 097830,-0.00063067,-0.00161664,0.00013180,0.00111833,0.00124598,-0.008
 22279,0.00186637,0.00368507,0.00059929,0.00004135,-0.00035517,-0.00096
 051,-0.00078077,-0.00083558,0.00152079,0.00029975,0.00056694,-0.000006
 97,0.00014896,-0.00002607,0.00033394,-0.00105831,-0.00107565,-0.001004
 60,0.00456358,-0.00081661,-0.00056174,-0.00175864,0.00060215,-0.000037
 98,-0.00001303,0.00013594,-0.00647835,0.00565867,-0.00057989,0.0008725
 3,-0.00046408,0.00071193,-0.06327075,0.00449443,0.00279295,0.78663313,
 0.00585292,0.00165574,-0.00093938,0.00307955,0.00366977,-0.00165801,0.
 00091983,-0.00069634,0.00056316,-0.00014935,0.00010453,-0.00060743,-0.
 00317780,-0.00185473,0.00038604,-0.00006032,-0.00022917,0.00020751,0.0
 0032532,0.00140543,0.00167984,-0.00100347,-0.00021724,-0.00033137,0.00
 004254,-0.00008624,-0.00002595,-0.00133212,0.00055072,-0.00056522,0.00
 433129,-0.00030087,0.00106211,0.00020027,0.00061184,-0.00026458,0.0000
 0318,-0.00003556,-0.00004952,0.00544394,-0.00122048,0.00097113,-0.0001
 2109,0.00015102,-0.00017504,-0.00357711,-0.05774378,-0.00166075,-0.420
 42664,0.33667113,0.00512452,0.00187693,-0.00086130,0.00272897,-0.00235
 048,0.00568746,-0.00174415,-0.00052070,0.00082490,0.00012543,-0.000614
 09,0.00029135,0.00499251,0.00025105,0.00071702,-0.00066223,-0.00039937
 ,0.00025079,0.00092687,0.00089566,0.00146229,-0.00081884,-0.00029166,-
 0.00010430,0.00006876,-0.00009365,-0.00001889,0.00124512,0.00053584,-0
 .00015358,0.00297884,-0.00151574,-0.00231519,0.00020173,0.00104154,-0.
 00017241,0.00007275,-0.00006231,-0.00008355,-0.00424926,0.00160007,-0.
 00108155,-0.00035053,-0.00007119,-0.00030675,-0.00772093,0.00052204,-0
 .05155148,-0.33372879,0.19831858,0.24400171,-0.00137429,0.00174180,0.0
 0322173,-0.00883819,-0.00445323,0.00446918,0.00159983,-0.00043042,-0.0
 0114794,-0.00027417,0.00016632,0.00025105,-0.00039934,-0.00995356,0.00
 166555,-0.00075038,-0.00084137,0.00035228,-0.00040841,-0.00034435,-0.0
 0135226,0.00103525,0.00025523,0.00015707,-0.00011436,0.00013096,0.0000
 6330,-0.00010100,-0.00057227,0.00033190,-0.00147047,0.00130468,-0.0014
 1056,-0.00128027,-0.00228085,0.00021580,-0.00018894,-0.00005249,0.0002
 0606,-0.00072639,-0.00267679,-0.00201416,-0.00021005,0.00005898,-0.000
 22936,-0.07293814,-0.01125239,-0.01269387,0.01449157,0.00631210,-0.003
 22906,0.46302577,-0.01360969,-0.00286638,0.00747232,-0.00020718,0.0002
 6480,-0.00172604,0.00143000,-0.00042236,-0.00170092,-0.00062199,0.0006
 5267,-0.00044818,-0.01101008,-0.00379711,0.00249338,0.00010376,0.00128
 261,0.00064155,-0.00022764,-0.00176767,-0.00045612,0.00146969,0.000883
 45,0.00017258,-0.00019859,-0.00002029,-0.00010540,-0.00025450,-0.00098
 902,0.00033530,0.00313844,0.00621011,-0.00165305,-0.00226007,-0.004370
 79,0.00077264,-0.00059140,-0.00014321,0.00018844,-0.00065911,-0.000172
 81,-0.00111548,-0.00056926,0.00028057,0.00030511,0.00319105,-0.0654016
 2,-0.01631063,0.00376501,-0.01351602,-0.00546721,0.51534267,0.81756414
 ,-0.00357820,0.00126173,0.00026275,0.00755296,0.00214707,0.00218385,0.
 00043014,0.00068992,0.00021163,0.00008600,-0.00037552,-0.00014999,0.00
 640744,0.00681478,0.00560548,-0.00114744,-0.00244182,0.00043623,0.0004
 5084,-0.00001704,-0.00096333,-0.00015675,-0.00008701,0.00000273,0.0000
 2742,0.00000759,0.00002369,0.00017254,0.00006150,0.00040964,-0.0024336
 4,-0.00224118,0.00017281,0.00004113,0.00060749,-0.00029726,0.00038840,
 0.00002481,0.00004675,-0.00431103,-0.00564651,-0.00246323,-0.00059250,
 0.00041577,-0.00098198,-0.01261020,-0.01432001,-0.06318088,-0.00170416
 ,-0.00518250,0.00519647,-0.02100706,-0.03247965,0.10142641,-0.00100091
 ,-0.00236902,-0.00177910,-0.00485931,0.00799791,-0.00641634,-0.0004445
 2,0.00109360,-0.00038259,0.00010685,0.00027060,-0.00000927,-0.00234188
 ,-0.00258227,-0.00380870,-0.00002393,0.00077658,-0.00038091,0.00014779
 ,-0.00200002,-0.00054382,0.00100503,0.00037309,0.00037038,0.00000278,0
 .00003668,-0.00005418,0.00095020,-0.00048769,-0.00077620,-0.00142248,0
 .00265056,0.00553937,-0.00021002,-0.00113893,0.00026308,-0.00003229,0.
 00001296,0.00008290,0.00262905,0.00258226,-0.01059554,0.00093120,-0.00
 002085,0.00116007,-0.07642096,-0.00741140,-0.01948287,0.01119155,-0.00
 300067,0.01104677,0.01378349,0.00660045,0.01064843,0.27105214,-0.00227
 159,0.00050373,-0.00080818,0.00785216,-0.00008859,0.00532238,0.0002982
 4,-0.00009154,0.00010987,0.00017793,-0.00050657,-0.00079950,-0.0046894
 0,-0.00327600,-0.00407436,-0.00101517,-0.00110259,-0.00146712,0.000830
 66,0.00011971,0.00057329,-0.00032454,0.00014990,-0.00023490,-0.0000561
 6,-0.00011279,-0.00003043,-0.00025396,-0.00002830,0.00100339,-0.000267
 05,-0.00020828,-0.00358182,-0.00030736,0.00051975,-0.00014374,0.000019
 12,-0.00004288,-0.00004332,0.00224502,0.00781902,0.00648538,0.00067668
 ,-0.00134169,0.00289824,-0.00533890,-0.06352534,-0.00846429,-0.0016313
 2,0.00682588,-0.00647609,0.00213968,-0.00997829,0.01994453,-0.07433165
 ,0.14141657,0.00080134,-0.00200608,0.00463776,-0.00095777,0.00062089,-
 0.00267952,-0.00082720,0.00090429,-0.00193232,-0.00009543,0.00022929,0
 .00081295,-0.00292962,-0.00067839,-0.00203519,0.00080716,0.00275527,0.
 00067549,0.00010155,-0.00166254,-0.00118281,0.00168785,0.00009775,0.00
 084360,0.00006938,0.00029610,0.00005346,0.00168817,-0.00049592,-0.0006
 1663,-0.00926492,0.00421660,-0.00124424,-0.00001400,-0.00058382,0.0005
 2847,0.00023052,-0.00000881,0.00019804,-0.01140794,0.00741525,-0.01154
 682,0.00149406,-0.00011648,0.00142625,-0.00433944,-0.01312946,-0.07349
 688,0.00849128,-0.00569371,-0.01478901,0.01480898,0.02397747,-0.003852
 06,0.37847031,-0.17598936,0.94100958,0.00211015,0.00302485,-0.00101643
 ,0.00051886,-0.00166512,-0.00116482,-0.00060145,0.00016572,0.00085604,
 -0.00013417,-0.00056019,-0.00066862,0.00364555,-0.00064154,-0.00120566
 ,-0.00028436,-0.00019476,0.00015793,0.00048831,0.00060936,0.00053143,-
 0.00109395,-0.00025187,-0.00035651,0.00002843,-0.00009929,0.00001503,-
 0.00047263,0.00047634,0.00041648,0.00137151,-0.00205129,0.00213836,0.0
 0031232,0.00113925,-0.00037951,0.00002304,-0.00000982,-0.00009093,0.00
 340796,-0.00255473,0.00045577,-0.00063139,0.00017185,-0.00049051,-0.02
 849987,0.02837464,0.02354373,-0.71446559,0.40402687,0.32191133,-0.0064
 1279,-0.00553860,0.00063348,-0.00491973,0.00143296,-0.00795726,0.73905
 782,-0.00245029,-0.00149550,0.00041791,-0.00012846,-0.00181053,0.00036
 042,-0.00013374,0.00018863,-0.00037871,0.00009362,0.00016709,0.0004162
 5,-0.00030494,0.00077438,0.00018302,0.00017277,0.00013076,-0.00011137,
 -0.00031444,-0.00059158,-0.00054930,0.00064091,0.00013228,0.00021245,-
 0.00001785,0.00005646,0.00000411,0.00062428,-0.00020073,0.00005126,-0.
 00196744,0.00038981,-0.00143263,-0.00014414,-0.00055393,0.00018528,-0.
 00000136,0.00001658,0.00005652,-0.00226255,0.00134787,-0.00043540,0.00
 032157,-0.00011597,0.00027565,0.03121882,0.00213097,-0.01407766,0.4037
 5977,-0.27877774,-0.19148439,0.00114072,0.00636708,0.00088290,0.002214
 43,-0.00196748,0.00463924,-0.42917752,0.27626338,-0.00227561,-0.001590
 27,0.00010508,-0.00016938,0.00053789,-0.00231118,0.00066462,0.00016839
 ,-0.00030026,-0.00005106,0.00033266,0.00008240,-0.00183801,0.00023624,
 0.00024329,0.00017908,0.00012470,-0.00009131,-0.00036368,-0.00042738,-
 0.00056082,0.00051121,0.00016276,0.00010964,-0.00002891,0.00004286,-0.
 00000351,-0.00029418,-0.00024280,0.00003353,-0.00122160,0.00079944,-0.
 00003935,-0.00013726,-0.00056209,0.00016464,-0.00003323,0.00001531,0.0
 0002783,0.00017517,0.00023586,0.00032483,0.00027991,-0.00005130,0.0001
 8977,0.02603294,-0.01449525,0.00720399,0.32233009,-0.19170832,-0.19162
 224,0.00236585,0.00326818,-0.00118698,-0.00068115,0.00078845,0.0070183
 0,-0.34296129,0.20441075,0.18391080,0.00227017,-0.00118367,-0.00254362
 ,0.00284813,0.00068495,-0.00044512,-0.00075334,0.00009670,0.00072975,0
 .00027867,-0.00001045,0.00003904,-0.00149557,0.00160219,-0.00029976,0.
 00022647,0.00023288,-0.00021516,0.00017454,0.00032492,0.00070864,-0.00
 073163,-0.00023341,-0.00012436,0.00007314,-0.00007534,-0.00002098,0.00
 002184,0.00047871,-0.00008407,0.00000653,-0.00195906,0.00018625,0.0005
 0825,0.00173628,-0.00045814,0.00016943,0.00003627,-0.00009881,0.000293
 52,0.00062293,0.00047143,0.00029652,-0.00002681,0.00002714,-0.00263603
 ,-0.03455621,0.00918651,-0.00545255,0.00030134,0.00235881,-0.39322801,
 -0.49460193,0.02305168,-0.00544696,0.00055873,-0.00870642,0.00371240,-
 0.00170879,-0.00169395,0.39612952,0.00649904,-0.00000268,-0.00397549,0
 .00170276,-0.00000246,0.00045162,-0.00091779,0.00012729,0.00100527,0.0
 0045751,-0.00018705,0.00022271,0.00166759,-0.00060273,-0.00043670,-0.0
 0020168,-0.00045381,-0.00027719,0.00022249,0.00090710,0.00045182,-0.00
 093941,-0.00046768,-0.00015004,0.00010415,-0.00001218,0.00004305,-0.00
 017148,0.00061248,-0.00003208,-0.00077972,-0.00395947,0.00076266,0.001
 78630,0.00299338,-0.00039867,0.00034810,0.00007595,-0.00015894,0.00029
 808,0.00023062,0.00056991,0.00042202,-0.00004794,-0.00009770,-0.040199
 65,-0.03497051,0.01179448,-0.00480469,0.00495647,0.00359861,-0.4969355
 1,-0.73472288,0.03441559,-0.00498235,0.00390399,-0.01316422,0.00448684
 ,-0.00337676,-0.00236230,0.52870744,0.76714203,0.00079187,-0.00009890,
 -0.00029946,-0.00140612,-0.00026794,-0.00019409,-0.00009587,-0.0001675
 7,-0.00006019,-0.00006483,0.00003829,-0.00000458,-0.00208476,-0.002167
 13,-0.00210772,0.00049204,0.00083023,-0.00014416,-0.00000594,-0.000115
 37,0.00023328,0.00004964,0.00004929,0.00000231,-0.00000880,-0.00001680
 ,-0.00001655,0.00002604,-0.00001793,-0.00006491,0.00047997,0.00072412,
 -0.00010528,-0.00033506,-0.00020183,0.00002712,-0.00018774,-0.00003013
 ,-0.00001506,0.00068689,0.00108575,0.00031615,0.00014119,-0.00009739,0
 .00022492,0.00667091,0.00826953,0.02167935,0.00036065,0.00098511,-0.00
 093007,0.02384118,0.03507249,-0.04417835,-0.00192321,-0.00470646,0.001
 97500,-0.00021011,-0.00013164,0.00027437,-0.02754512,-0.04013620,0.024
 14049,-0.00092021,0.00081739,-0.00063702,0.00189347,-0.00182878,0.0019
 9596,0.00009437,-0.00037278,0.00042425,0.00011427,-0.00009962,-0.00014
 865,0.00132127,0.00108792,0.00106815,-0.00006392,-0.00087328,0.0004634
 9,0.00009124,0.00079784,0.00045314,-0.00059370,-0.00012616,-0.00026143
 ,-0.00000880,-0.00006163,0.00000698,-0.00063459,0.00035499,0.00042726,
 0.00168433,-0.00207043,-0.00247117,0.00011086,0.00056538,-0.00016813,-
 0.00001028,-0.00000162,-0.00001404,-0.00194017,-0.00099337,0.00221503,
 -0.00053843,0.00020499,-0.00064406,0.01226434,0.01075980,-0.02476241,-
 0.00411774,0.00200941,-0.00127861,-0.00522073,-0.00469102,-0.00234950,
 -0.20467708,0.07425591,-0.36215060,0.00283958,-0.00157534,-0.00078956,
 0.00273497,0.00322994,0.00032719,0.19557693,0.00058111,-0.00022753,0.0
 0023873,-0.00184972,0.00035672,-0.00134519,-0.00006389,0.00013335,-0.0
 0017646,-0.00007683,0.00015338,0.00025802,0.00073223,0.00093655,0.0005
 8457,0.00049256,0.00033105,0.00065764,-0.00017063,-0.00023869,-0.00028
 832,0.00024269,-0.00002986,0.00013485,0.00002133,0.00005205,0.00001126
 ,0.00028349,-0.00004801,-0.00032901,-0.00096833,0.00037681,0.00156242,
 0.00010003,-0.00026471,0.00009734,0.00000283,0.00001301,0.00000667,-0.
 00044680,-0.00317655,-0.00141967,-0.00022790,0.00050631,-0.00101072,0.
 00880180,0.01830110,0.01804960,0.00121132,-0.00192435,0.00070656,0.001
 20008,0.00466305,-0.00448244,0.07371574,-0.07898820,0.16837666,-0.0011
 6392,0.00092496,0.00031622,-0.00102766,-0.00214314,0.00110046,-0.08138
 952,0.06029272,-0.00089137,0.00112520,-0.00275214,0.00183041,-0.000866
 02,0.00222068,0.00008402,-0.00050727,0.00121922,0.00034348,-0.00014007
 ,-0.00042555,0.00202584,0.00082423,0.00107684,-0.00028221,-0.00192958,
 0.00013609,0.00008868,0.00127741,0.00084997,-0.00117225,-0.00013629,-0
 .00054599,-0.00003256,-0.00017524,-0.00001903,-0.00113893,0.00050644,0
 .00036985,0.00529003,-0.00338067,-0.00111437,0.00014063,0.00065077,-0.
 00038226,-0.00011209,0.00000795,-0.00002417,0.00203310,-0.00219055,0.0
 0105436,-0.00082057,0.00027787,-0.00085128,-0.03037057,0.02218030,-0.0
 4679226,-0.00701458,0.00468828,0.00555833,-0.00886567,-0.01323679,0.00
 127564,-0.36074744,0.16969405,-0.84580342,0.00584206,-0.00349465,-0.00
 357281,0.00547626,0.00787382,-0.00075255,0.38829374,-0.18304920,0.8892
 7485\\-0.00001367,0.00005770,0.00002883,0.00002581,0.00001399,-0.00000
 573,-0.00001892,-0.00001862,0.00000147,0.00001920,-0.00000496,0.000003
 04,0.00000994,-0.00005649,-0.00003125,-0.00001009,-0.00000995,0.000000
 54,0.00003655,-0.00000380,-0.00002122,-0.00001181,-0.00000947,0.000012
 01,0.00000573,0.00000282,0.00000039,0.00001100,0.00000333,0.00000331,-
 0.00002546,-0.00001737,-0.00001119,-0.00000564,0.00000940,-0.00000382,
 -0.00000103,-0.00000045,0.00000031,-0.00000124,0.00000861,-0.00001820,
 0.00000396,0.00000105,0.00000041,-0.00004557,0.00003452,0.00007690,0.0
 0003295,-0.00002958,-0.00002288,0.00001112,0.00000178,-0.00000236,0.00
 000237,0.00002255,-0.00006886,-0.00002278,0.00001471,0.00000728,-0.000
 01009,-0.00000850,0.00000210,0.00000767,-0.00001128,0.00004892\\\@
 The archive entry for this job was punched.


 OF ALL THE WONDERS OF THE UNIVERSE, THE GREATEST IS MAN.

                                    -- ARISTOTLE
 Job cpu time:       0 days  1 hours 25 minutes 42.7 seconds.
 Elapsed time:       0 days  0 hours  1 minutes 48.0 seconds.
 File lengths (MBytes):  RWF=    433 Int=      0 D2E=      0 Chk=     11 Scr=      2
 Normal termination of Gaussian 16 at Mon Dec  5 16:25:31 2022.
