 Entering Gaussian System, Link 0=/apps/GAU16/avx2/g16/g16
 Initial command:
 /apps/GAU16/avx2//g16/l1.exe "/localscratch/chesayan/sagar/Gau-187502.inp" -scrdir="/localscratch/chesayan/sagar/"
 Entering Link 1 = /apps/GAU16/avx2//g16/l1.exe PID=    187504.
  
 Copyright (c) 1988-2019, Gaussian, Inc.  All Rights Reserved.
  
 This is part of the Gaussian(R) 16 program.  It is based on
 the Gaussian(R) 09 system (copyright 2009, Gaussian, Inc.),
 the Gaussian(R) 03 system (copyright 2003, Gaussian, Inc.),
 the Gaussian(R) 98 system (copyright 1998, Gaussian, Inc.),
 the Gaussian(R) 94 system (copyright 1995, Gaussian, Inc.),
 the Gaussian 92(TM) system (copyright 1992, Gaussian, Inc.),
 the Gaussian 90(TM) system (copyright 1990, Gaussian, Inc.),
 the Gaussian 88(TM) system (copyright 1988, Gaussian, Inc.),
 the Gaussian 86(TM) system (copyright 1986, Carnegie Mellon
 University), and the Gaussian 82(TM) system (copyright 1983,
 Carnegie Mellon University). Gaussian is a federally registered
 trademark of Gaussian, Inc.
  
 This software contains proprietary and confidential information,
 including trade secrets, belonging to Gaussian, Inc.
  
 This software is provided under written license and may be
 used, copied, transmitted, or stored only in accord with that
 written license.
  
 The following legend is applicable only to US Government
 contracts under FAR:
  
                    RESTRICTED RIGHTS LEGEND
  
 Use, reproduction and disclosure by the US Government is
 subject to restrictions as set forth in subparagraphs (a)
 and (c) of the Commercial Computer Software - Restricted
 Rights clause in FAR 52.227-19.
  
 Gaussian, Inc.
 340 Quinnipiac St., Bldg. 40, Wallingford CT 06492
  
  
 ---------------------------------------------------------------
 Warning -- This program may not be used in any manner that
 competes with the business of Gaussian, Inc. or will provide
 assistance to any competitor of Gaussian, Inc.  The licensee
 of this program is prohibited from giving any competitor of
 Gaussian, Inc. access to this program.  By using this program,
 the user acknowledges that Gaussian, Inc. is engaged in the
 business of creating and licensing software in the field of
 computational chemistry and represents and warrants to the
 licensee that it is not a competitor of Gaussian, Inc. and that
 it will not use this program in any manner prohibited above.
 ---------------------------------------------------------------
  

 Cite this work as:
 Gaussian 16, Revision C.01,
 M. J. Frisch, G. W. Trucks, H. B. Schlegel, G. E. Scuseria, 
 M. A. Robb, J. R. Cheeseman, G. Scalmani, V. Barone, 
 G. A. Petersson, H. Nakatsuji, X. Li, M. Caricato, A. V. Marenich, 
 J. Bloino, B. G. Janesko, R. Gomperts, B. Mennucci, H. P. Hratchian, 
 J. V. Ortiz, A. F. Izmaylov, J. L. Sonnenberg, D. Williams-Young, 
 F. Ding, F. Lipparini, F. Egidi, J. Goings, B. Peng, A. Petrone, 
 T. Henderson, D. Ranasinghe, V. G. Zakrzewski, J. Gao, N. Rega, 
 G. Zheng, W. Liang, M. Hada, M. Ehara, K. Toyota, R. Fukuda, 
 J. Hasegawa, M. Ishida, T. Nakajima, Y. Honda, O. Kitao, H. Nakai, 
 T. Vreven, K. Throssell, J. A. Montgomery, Jr., J. E. Peralta, 
 F. Ogliaro, M. J. Bearpark, J. J. Heyd, E. N. Brothers, K. N. Kudin, 
 V. N. Staroverov, T. A. Keith, R. Kobayashi, J. Normand, 
 K. Raghavachari, A. P. Rendell, J. C. Burant, S. S. Iyengar, 
 J. Tomasi, M. Cossi, J. M. Millam, M. Klene, C. Adamo, R. Cammi, 
 J. W. Ochterski, R. L. Martin, K. Morokuma, O. Farkas, 
 J. B. Foresman, and D. J. Fox, Gaussian, Inc., Wallingford CT, 2019.
 
 ******************************************
 Gaussian 16:  ES64L-G16RevC.01  3-Jul-2019
                 5-Dec-2022 
 ******************************************
 %nprocshared=48
 Will use up to   48 processors via shared memory.
 %mem=100GB
 ---------------------------------------
 # opt freq b3lyp/gen nosymm pseudo=read
 ---------------------------------------
 1/18=20,19=15,26=3,38=1/1,3;
 2/9=110,12=2,15=1,17=6,18=5,40=1/2;
 3/5=7,11=2,16=1,17=8,25=1,30=1,71=1,74=-5/1,2,3;
 4//1;
 5/5=2,38=5/2;
 6/7=2,8=2,9=2,10=2,28=1/1;
 7/30=1/1,2,3,16;
 1/18=20,19=15,26=3/3(2);
 2/9=110,15=1/2;
 99//99;
 2/9=110,15=1/2;
 3/5=7,6=1,11=2,16=1,17=8,25=1,30=1,71=1,74=-5,82=7/1,2,3;
 4/5=5,16=3,69=1/1;
 5/5=2,38=5/2;
 7/30=1/1,2,3,16;
 1/18=20,19=15,26=3/3(-5);
 2/9=110,15=1/2;
 6/7=2,8=2,9=2,10=2,19=2,28=1/1;
 99/9=1/99;
 -------------------
 Title Card Required
 -------------------
 Symbolic Z-matrix:
 Charge =  0 Multiplicity = 1
 42                   -0.73172   0.92793   11.68813 
 16                    0.63526   2.8289    12.17119 
 16                   -2.5831    1.86158   12.88289 
 16                   -1.50863   0.99316   9.43361 
 16                    0.69835  -1.06748   11.17024 
 1                     1.0934   -1.60857   12.35278 
 42                   -2.70323   2.57154   10.71966 
 16                   -4.92429   2.37713   9.96457 
 1                    -4.77864   3.14175   8.85813 
 16                   -1.71151   4.56273   10.37288 
 42                   -0.02621   2.87071   9.92124 
 16                    1.4485    4.63894   9.18261 
 1                     0.9087    5.7495    9.72593 
 16                    1.718     1.49558   8.68798 
 1                     1.01739   0.42822   8.23855 
 42                    1.88039   1.05925   11.1447 
 6                     2.58676   0.65904   12.99388 
 8                     3.0393    0.40703   14.02756 
 

 GradGradGradGradGradGradGradGradGradGradGradGradGradGradGradGradGradGrad
 Berny optimization.
 Initialization pass.
                           ----------------------------
                           !    Initial Parameters    !
                           ! (Angstroms and Degrees)  !
 --------------------------                            --------------------------
 ! Name  Definition              Value          Derivative Info.                !
 --------------------------------------------------------------------------------
 ! R1    R(1,2)                  2.3907         estimate D2E/DX2                !
 ! R2    R(1,3)                  2.3931         estimate D2E/DX2                !
 ! R3    R(1,4)                  2.3855         estimate D2E/DX2                !
 ! R4    R(1,5)                  2.509          estimate D2E/DX2                !
 ! R5    R(1,7)                  2.7434         estimate D2E/DX2                !
 ! R6    R(1,11)                 2.7192         estimate D2E/DX2                !
 ! R7    R(1,16)                 2.6713         estimate D2E/DX2                !
 ! R8    R(2,11)                 2.3455         estimate D2E/DX2                !
 ! R9    R(2,16)                 2.3949         estimate D2E/DX2                !
 ! R10   R(3,7)                  2.2799         estimate D2E/DX2                !
 ! R11   R(4,7)                  2.3606         estimate D2E/DX2                !
 ! R12   R(4,11)                 2.4414         estimate D2E/DX2                !
 ! R13   R(5,6)                  1.3591         estimate D2E/DX2                !
 ! R14   R(5,16)                 2.4333         estimate D2E/DX2                !
 ! R15   R(7,8)                  2.3539         estimate D2E/DX2                !
 ! R16   R(7,10)                 2.2514         estimate D2E/DX2                !
 ! R17   R(7,11)                 2.8095         estimate D2E/DX2                !
 ! R18   R(8,9)                  1.3528         estimate D2E/DX2                !
 ! R19   R(10,11)                2.4305         estimate D2E/DX2                !
 ! R20   R(11,12)                2.418          estimate D2E/DX2                !
 ! R21   R(11,14)                2.5405         estimate D2E/DX2                !
 ! R22   R(11,16)                2.9006         estimate D2E/DX2                !
 ! R23   R(12,13)                1.3491         estimate D2E/DX2                !
 ! R24   R(14,15)                1.3535         estimate D2E/DX2                !
 ! R25   R(14,16)                2.5004         estimate D2E/DX2                !
 ! R26   R(16,17)                2.0196         estimate D2E/DX2                !
 ! R27   R(17,18)                1.1562         estimate D2E/DX2                !
 ! A1    A(2,1,3)               91.7912         estimate D2E/DX2                !
 ! A2    A(2,1,4)              110.82           estimate D2E/DX2                !
 ! A3    A(2,1,5)              110.3761         estimate D2E/DX2                !
 ! A4    A(2,1,7)               90.3356         estimate D2E/DX2                !
 ! A5    A(3,1,4)              102.0764         estimate D2E/DX2                !
 ! A6    A(3,1,5)              148.6828         estimate D2E/DX2                !
 ! A7    A(3,1,11)             104.2641         estimate D2E/DX2                !
 ! A8    A(3,1,16)             147.0238         estimate D2E/DX2                !
 ! A9    A(4,1,5)               90.7048         estimate D2E/DX2                !
 ! A10   A(4,1,16)              97.1727         estimate D2E/DX2                !
 ! A11   A(5,1,7)              144.412          estimate D2E/DX2                !
 ! A12   A(5,1,11)             106.6313         estimate D2E/DX2                !
 ! A13   A(7,1,16)             126.9742         estimate D2E/DX2                !
 ! A14   A(1,5,6)              107.6199         estimate D2E/DX2                !
 ! A15   A(6,5,16)             102.4682         estimate D2E/DX2                !
 ! A16   A(1,7,8)              137.8874         estimate D2E/DX2                !
 ! A17   A(1,7,10)             105.527          estimate D2E/DX2                !
 ! A18   A(3,7,4)              106.3821         estimate D2E/DX2                !
 ! A19   A(3,7,8)              109.1692         estimate D2E/DX2                !
 ! A20   A(3,7,10)             113.4749         estimate D2E/DX2                !
 ! A21   A(3,7,11)             104.6309         estimate D2E/DX2                !
 ! A22   A(4,7,8)              104.3303         estimate D2E/DX2                !
 ! A23   A(4,7,10)             106.531          estimate D2E/DX2                !
 ! A24   A(8,7,10)             116.0573         estimate D2E/DX2                !
 ! A25   A(8,7,11)             144.7539         estimate D2E/DX2                !
 ! A26   A(7,8,9)               96.5516         estimate D2E/DX2                !
 ! A27   A(1,11,10)            101.3461         estimate D2E/DX2                !
 ! A28   A(1,11,12)            151.5442         estimate D2E/DX2                !
 ! A29   A(1,11,14)             96.1327         estimate D2E/DX2                !
 ! A30   A(2,11,4)             110.4334         estimate D2E/DX2                !
 ! A31   A(2,11,7)              89.6682         estimate D2E/DX2                !
 ! A32   A(2,11,10)             91.7021         estimate D2E/DX2                !
 ! A33   A(2,11,12)             97.7043         estimate D2E/DX2                !
 ! A34   A(2,11,14)            105.2118         estimate D2E/DX2                !
 ! A35   A(4,11,10)             98.7117         estimate D2E/DX2                !
 ! A36   A(4,11,12)            150.6536         estimate D2E/DX2                !
 ! A37   A(4,11,14)             84.4711         estimate D2E/DX2                !
 ! A38   A(4,11,16)             90.177          estimate D2E/DX2                !
 ! A39   A(7,11,12)            138.2267         estimate D2E/DX2                !
 ! A40   A(7,11,14)            137.2646         estimate D2E/DX2                !
 ! A41   A(7,11,16)            116.1003         estimate D2E/DX2                !
 ! A42   A(10,11,12)            88.3136         estimate D2E/DX2                !
 ! A43   A(10,11,14)           160.5787         estimate D2E/DX2                !
 ! A44   A(10,11,16)           144.309          estimate D2E/DX2                !
 ! A45   A(12,11,14)            80.1437         estimate D2E/DX2                !
 ! A46   A(12,11,16)           100.6408         estimate D2E/DX2                !
 ! A47   A(11,12,13)           103.5878         estimate D2E/DX2                !
 ! A48   A(11,14,15)           103.4531         estimate D2E/DX2                !
 ! A49   A(15,14,16)           102.8409         estimate D2E/DX2                !
 ! A50   A(1,16,14)             98.3344         estimate D2E/DX2                !
 ! A51   A(1,16,17)             98.3955         estimate D2E/DX2                !
 ! A52   A(2,16,5)             112.8781         estimate D2E/DX2                !
 ! A53   A(2,16,14)            104.9759         estimate D2E/DX2                !
 ! A54   A(2,16,17)             86.3203         estimate D2E/DX2                !
 ! A55   A(5,16,11)            103.3534         estimate D2E/DX2                !
 ! A56   A(5,16,14)             97.5434         estimate D2E/DX2                !
 ! A57   A(5,16,17)             89.2606         estimate D2E/DX2                !
 ! A58   A(11,16,17)           137.7215         estimate D2E/DX2                !
 ! A59   A(14,16,17)           163.1214         estimate D2E/DX2                !
 ! A60   L(16,17,18,6,-1)      180.0726         estimate D2E/DX2                !
 ! A61   L(16,17,18,6,-2)      176.9976         estimate D2E/DX2                !
 ! D1    D(2,1,5,6)             81.5796         estimate D2E/DX2                !
 ! D2    D(3,1,5,6)            -50.845          estimate D2E/DX2                !
 ! D3    D(4,1,5,6)           -165.8539         estimate D2E/DX2                !
 ! D4    D(7,1,5,6)           -156.431          estimate D2E/DX2                !
 ! D5    D(11,1,5,6)           138.8603         estimate D2E/DX2                !
 ! D6    D(2,1,7,8)           -173.0444         estimate D2E/DX2                !
 ! D7    D(2,1,7,10)            16.1288         estimate D2E/DX2                !
 ! D8    D(5,1,7,8)             59.6193         estimate D2E/DX2                !
 ! D9    D(5,1,7,10)          -111.2075         estimate D2E/DX2                !
 ! D10   D(16,1,7,8)           140.8185         estimate D2E/DX2                !
 ! D11   D(16,1,7,10)          -30.0084         estimate D2E/DX2                !
 ! D12   D(3,1,11,10)           -2.5222         estimate D2E/DX2                !
 ! D13   D(3,1,11,12)          105.3713         estimate D2E/DX2                !
 ! D14   D(3,1,11,14)         -174.0135         estimate D2E/DX2                !
 ! D15   D(5,1,11,10)          172.2906         estimate D2E/DX2                !
 ! D16   D(5,1,11,12)          -79.816          estimate D2E/DX2                !
 ! D17   D(5,1,11,14)            0.7992         estimate D2E/DX2                !
 ! D18   D(3,1,16,14)         -117.7328         estimate D2E/DX2                !
 ! D19   D(3,1,16,17)           64.5112         estimate D2E/DX2                !
 ! D20   D(4,1,16,14)            7.8145         estimate D2E/DX2                !
 ! D21   D(4,1,16,17)         -169.9415         estimate D2E/DX2                !
 ! D22   D(7,1,16,14)          -42.2371         estimate D2E/DX2                !
 ! D23   D(7,1,16,17)          140.0069         estimate D2E/DX2                !
 ! D24   D(1,2,11,16)          -71.3363         estimate D2E/DX2                !
 ! D25   D(1,4,7,11)            73.0654         estimate D2E/DX2                !
 ! D26   D(6,5,16,2)           -89.2632         estimate D2E/DX2                !
 ! D27   D(6,5,16,11)         -142.81           estimate D2E/DX2                !
 ! D28   D(6,5,16,14)          160.9328         estimate D2E/DX2                !
 ! D29   D(6,5,16,17)           -3.5708         estimate D2E/DX2                !
 ! D30   D(1,7,8,9)           -134.3067         estimate D2E/DX2                !
 ! D31   D(3,7,8,9)            165.598          estimate D2E/DX2                !
 ! D32   D(4,7,8,9)            -81.0116         estimate D2E/DX2                !
 ! D33   D(10,7,8,9)            35.8484         estimate D2E/DX2                !
 ! D34   D(11,7,8,9)           -31.587          estimate D2E/DX2                !
 ! D35   D(3,7,11,2)           -16.2088         estimate D2E/DX2                !
 ! D36   D(3,7,11,12)         -117.4393         estimate D2E/DX2                !
 ! D37   D(3,7,11,14)           96.1491         estimate D2E/DX2                !
 ! D38   D(3,7,11,16)           31.5525         estimate D2E/DX2                !
 ! D39   D(8,7,11,2)          -179.4449         estimate D2E/DX2                !
 ! D40   D(8,7,11,12)           79.3246         estimate D2E/DX2                !
 ! D41   D(8,7,11,14)          -67.087          estimate D2E/DX2                !
 ! D42   D(8,7,11,16)         -131.6836         estimate D2E/DX2                !
 ! D43   D(1,11,12,13)         -91.9917         estimate D2E/DX2                !
 ! D44   D(2,11,12,13)         -72.4587         estimate D2E/DX2                !
 ! D45   D(4,11,12,13)         123.9128         estimate D2E/DX2                !
 ! D46   D(7,11,12,13)          25.744          estimate D2E/DX2                !
 ! D47   D(10,11,12,13)         19.0314         estimate D2E/DX2                !
 ! D48   D(14,11,12,13)       -176.6547         estimate D2E/DX2                !
 ! D49   D(16,11,12,13)       -126.1749         estimate D2E/DX2                !
 ! D50   D(1,11,14,15)          58.3924         estimate D2E/DX2                !
 ! D51   D(2,11,14,15)         114.513          estimate D2E/DX2                !
 ! D52   D(4,11,14,15)           4.8088         estimate D2E/DX2                !
 ! D53   D(7,11,14,15)           7.9265         estimate D2E/DX2                !
 ! D54   D(10,11,14,15)        -95.7412         estimate D2E/DX2                !
 ! D55   D(12,11,14,15)       -150.1067         estimate D2E/DX2                !
 ! D56   D(4,11,16,5)           -6.9867         estimate D2E/DX2                !
 ! D57   D(4,11,16,17)        -110.9531         estimate D2E/DX2                !
 ! D58   D(7,11,16,5)           40.8897         estimate D2E/DX2                !
 ! D59   D(7,11,16,17)         -63.0767         estimate D2E/DX2                !
 ! D60   D(10,11,16,5)          98.3159         estimate D2E/DX2                !
 ! D61   D(10,11,16,17)         -5.6505         estimate D2E/DX2                !
 ! D62   D(12,11,16,5)        -159.5485         estimate D2E/DX2                !
 ! D63   D(12,11,16,17)         96.4851         estimate D2E/DX2                !
 ! D64   D(15,14,16,1)         -58.1141         estimate D2E/DX2                !
 ! D65   D(15,14,16,2)        -115.0272         estimate D2E/DX2                !
 ! D66   D(15,14,16,5)           1.1646         estimate D2E/DX2                !
 ! D67   D(15,14,16,17)        114.2192         estimate D2E/DX2                !
 --------------------------------------------------------------------------------
 Trust Radius=3.00D-01 FncErr=1.00D-07 GrdErr=1.00D-06 EigMax=2.50D+02 EigMin=1.00D-04
 Number of steps in this run=    108 maximum allowed number of steps=    108.
 GradGradGradGradGradGradGradGradGradGradGradGradGradGradGradGradGradGrad

                          Input orientation:                          
 ---------------------------------------------------------------------
 Center     Atomic      Atomic             Coordinates (Angstroms)
 Number     Number       Type             X           Y           Z
 ---------------------------------------------------------------------
      1         42           0       -0.731718    0.927932   11.688127
      2         16           0        0.635263    2.828899   12.171191
      3         16           0       -2.583100    1.861578   12.882891
      4         16           0       -1.508630    0.993164    9.433612
      5         16           0        0.698353   -1.067480   11.170239
      6          1           0        1.093395   -1.608573   12.352776
      7         42           0       -2.703234    2.571539   10.719662
      8         16           0       -4.924285    2.377125    9.964569
      9          1           0       -4.778644    3.141754    8.858125
     10         16           0       -1.711508    4.562729   10.372884
     11         42           0       -0.026206    2.870709    9.921236
     12         16           0        1.448497    4.638937    9.182608
     13          1           0        0.908700    5.749503    9.725935
     14         16           0        1.717998    1.495576    8.687984
     15          1           0        1.017387    0.428218    8.238555
     16         42           0        1.880386    1.059254   11.144702
     17          6           0        2.586757    0.659041   12.993883
     18          8           0        3.039299    0.407027   14.027565
 ---------------------------------------------------------------------
                    Distance matrix (angstroms):
                    1          2          3          4          5
     1  Mo   0.000000
     2  S    2.390745   0.000000
     3  S    2.393067   3.435126   0.000000
     4  S    2.385516   3.931989   3.715663   0.000000
     5  S    2.508980   4.023388   4.720222   3.483231   0.000000
     6  H    3.194785   4.464752   5.083265   4.696923   1.359130
     7  Mo   2.743400   3.649484   2.279920   2.360566   5.001627
     8  S    4.759037   5.998488   3.776710   3.723434   6.703208
     9  H    5.411795   6.354894   4.760043   3.954822   7.284299
    10  S    3.987681   3.427449   3.788934   3.696645   6.175958
    11  Mo   2.719197   2.345546   4.040724   2.441420   4.194559
    12  S    4.980213   3.587369   6.136741   4.700985   6.089055
    13  H    5.457904   3.818897   6.105325   5.343379   6.971479
    14  S    3.914612   3.883658   6.019190   3.349553   3.710865
    15  H    3.899824   4.623301   6.048792   2.850980   3.306609
    16  Mo   2.671263   2.394923   4.856720   3.797055   2.433280
    17  C    3.576252   3.032068   5.309033   5.436852   3.142073
    18  O    4.468208   3.884711   5.919237   6.490887   3.977249
                    6          7          8          9         10
     6  H    0.000000
     7  Mo   5.878332   0.000000
     8  S    7.602749   2.353939   0.000000
     9  H    8.322201   2.845662   1.352807   0.000000
    10  S    7.062041   2.251358   3.907112   3.704185   0.000000
    11  Mo   5.218224   2.809531   4.923076   4.877431   2.430465
    12  S    7.014802   4.886056   6.807320   6.412810   3.377602
    13  H    7.815093   4.912537   6.741928   6.316592   2.948299
    14  S    4.843198   4.983242   6.821050   6.704119   4.899778
    15  H    4.591417   4.959107   6.486974   6.429706   5.394109
    16  Mo   3.032507   4.845331   7.030864   7.342201   5.076588
    17  C    2.789842   6.067432   8.279149   8.804402   6.370518
    18  O    3.264062   6.971658   9.154665   9.763302   7.293608
                   11         12         13         14         15
    11  Mo   0.000000
    12  S    2.418047   0.000000
    13  H    3.033092   1.349052   0.000000
    14  S    2.540502   3.193431   4.452887   0.000000
    15  H    3.144243   4.336732   5.526318   1.353549   0.000000
    16  Mo   2.900574   4.104933   4.995549   2.500442   3.096557
    17  C    4.600023   5.626813   6.277592   4.471610   5.012918
    18  O    5.685859   6.626713   7.182306   5.607308   6.131983
                   16         17         18
    16  Mo   0.000000
    17  C    2.019555   0.000000
    18  O    3.174804   1.156202   0.000000
 Symmetry turned off by external request.
 Stoichiometry    CH4Mo4OS8
 Framework group  C1[X(CH4Mo4OS8)]
 Deg. of freedom    48
 Full point group                 C1      NOp   1
 Rotational constants (GHZ):           0.2634973           0.1494595           0.1221533
 General basis read from cards:  (5D, 7F)
 ======================================================================================================
                                       Pseudopotential Parameters
 ======================================================================================================
  Center     Atomic      Valence      Angular      Power
  Number     Number     Electrons     Momentum     of R      Exponent        Coefficient   SO-Coeffient
 ======================================================================================================
    1         42           14
                                      F and up 
                                                     0      537.9667807       -0.04694920    0.00000000
                                                     1      147.8982938      -20.20800840    0.00000000
                                                     2       45.7358898     -106.21163020    0.00000000
                                                     2       13.2911467      -41.81073680    0.00000000
                                                     2        4.7059961       -4.20541030    0.00000000
                                      S - F
                                                     0      110.2991760        2.80637170    0.00000000
                                                     1       23.2014645       44.51620120    0.00000000
                                                     2        5.3530131       82.77852270    0.00000000
                                      P - F
                                                     0       63.2901397        4.94208760    0.00000000
                                                     1       23.3315302       25.86049760    0.00000000
                                                     2       24.6759423      132.47087420    0.00000000
                                                     2        4.6493040       57.31497940    0.00000000
                                      D - F
                                                     0      104.4839977        3.00545910    0.00000000
                                                     1       66.2307245       26.36378510    0.00000000
                                                     2       39.1283176      183.38491990    0.00000000
                                                     2       13.1164437       98.44530680    0.00000000
                                                     2        3.6280263       22.49013770    0.00000000
    2         16
                                   No pseudopotential on this center.
    3         16
                                   No pseudopotential on this center.
    4         16
                                   No pseudopotential on this center.
    5         16
                                   No pseudopotential on this center.
    6          1
                                   No pseudopotential on this center.
    7         42           14
                                      F and up 
                                                     0      537.9667807       -0.04694920    0.00000000
                                                     1      147.8982938      -20.20800840    0.00000000
                                                     2       45.7358898     -106.21163020    0.00000000
                                                     2       13.2911467      -41.81073680    0.00000000
                                                     2        4.7059961       -4.20541030    0.00000000
                                      S - F
                                                     0      110.2991760        2.80637170    0.00000000
                                                     1       23.2014645       44.51620120    0.00000000
                                                     2        5.3530131       82.77852270    0.00000000
                                      P - F
                                                     0       63.2901397        4.94208760    0.00000000
                                                     1       23.3315302       25.86049760    0.00000000
                                                     2       24.6759423      132.47087420    0.00000000
                                                     2        4.6493040       57.31497940    0.00000000
                                      D - F
                                                     0      104.4839977        3.00545910    0.00000000
                                                     1       66.2307245       26.36378510    0.00000000
                                                     2       39.1283176      183.38491990    0.00000000
                                                     2       13.1164437       98.44530680    0.00000000
                                                     2        3.6280263       22.49013770    0.00000000
    8         16
                                   No pseudopotential on this center.
    9          1
                                   No pseudopotential on this center.
   10         16
                                   No pseudopotential on this center.
   11         42           14
                                      F and up 
                                                     0      537.9667807       -0.04694920    0.00000000
                                                     1      147.8982938      -20.20800840    0.00000000
                                                     2       45.7358898     -106.21163020    0.00000000
                                                     2       13.2911467      -41.81073680    0.00000000
                                                     2        4.7059961       -4.20541030    0.00000000
                                      S - F
                                                     0      110.2991760        2.80637170    0.00000000
                                                     1       23.2014645       44.51620120    0.00000000
                                                     2        5.3530131       82.77852270    0.00000000
                                      P - F
                                                     0       63.2901397        4.94208760    0.00000000
                                                     1       23.3315302       25.86049760    0.00000000
                                                     2       24.6759423      132.47087420    0.00000000
                                                     2        4.6493040       57.31497940    0.00000000
                                      D - F
                                                     0      104.4839977        3.00545910    0.00000000
                                                     1       66.2307245       26.36378510    0.00000000
                                                     2       39.1283176      183.38491990    0.00000000
                                                     2       13.1164437       98.44530680    0.00000000
                                                     2        3.6280263       22.49013770    0.00000000
   12         16
                                   No pseudopotential on this center.
   13          1
                                   No pseudopotential on this center.
   14         16
                                   No pseudopotential on this center.
   15          1
                                   No pseudopotential on this center.
   16         42           14
                                      F and up 
                                                     0      537.9667807       -0.04694920    0.00000000
                                                     1      147.8982938      -20.20800840    0.00000000
                                                     2       45.7358898     -106.21163020    0.00000000
                                                     2       13.2911467      -41.81073680    0.00000000
                                                     2        4.7059961       -4.20541030    0.00000000
                                      S - F
                                                     0      110.2991760        2.80637170    0.00000000
                                                     1       23.2014645       44.51620120    0.00000000
                                                     2        5.3530131       82.77852270    0.00000000
                                      P - F
                                                     0       63.2901397        4.94208760    0.00000000
                                                     1       23.3315302       25.86049760    0.00000000
                                                     2       24.6759423      132.47087420    0.00000000
                                                     2        4.6493040       57.31497940    0.00000000
                                      D - F
                                                     0      104.4839977        3.00545910    0.00000000
                                                     1       66.2307245       26.36378510    0.00000000
                                                     2       39.1283176      183.38491990    0.00000000
                                                     2       13.1164437       98.44530680    0.00000000
                                                     2        3.6280263       22.49013770    0.00000000
   17          6
                                   No pseudopotential on this center.
   18          8
                                   No pseudopotential on this center.
 ======================================================================================================
   280 basis functions,   696 primitive gaussians,   298 cartesian basis functions
   101 alpha electrons      101 beta electrons
       nuclear repulsion energy      2722.8766274492 Hartrees.
 NAtoms=   18 NActive=   18 NUniq=   18 SFac= 1.00D+00 NAtFMM=   60 NAOKFM=F Big=F
 Integral buffers will be    131072 words long.
 Raffenetti 2 integral format.
 Two-electron integral symmetry is turned off.
 One-electron integrals computed using PRISM.
   1 Symmetry operations used in ECPInt.
 ECPInt:  NShTT=    4278 NPrTT=   30745 LenC2=    3932 LenP2D=   19242.
 LDataN:  DoStor=T MaxTD1= 5 Len=  102
 NBasis=   280 RedAO= T EigKep=  1.05D-03  NBF=   280
 NBsUse=   280 1.00D-06 EigRej= -1.00D+00 NBFU=   280
 Defaulting to unpruned grid for atomic number  42.
 Defaulting to unpruned grid for atomic number  42.
 Defaulting to unpruned grid for atomic number  42.
 Defaulting to unpruned grid for atomic number  42.
 ExpMin= 2.47D-02 ExpMax= 2.19D+04 ExpMxC= 3.30D+03 IAcc=3 IRadAn=         5 AccDes= 0.00D+00
 Harris functional with IExCor=  402 and IRadAn=       5 diagonalized for initial guess.
 HarFok:  IExCor=  402 AccDes= 0.00D+00 IRadAn=         5 IDoV= 1 UseB2=F ITyADJ=14
 ICtDFT=  3500011 ScaDFX=  1.000000  1.000000  1.000000  1.000000
 Defaulting to unpruned grid for atomic number  42.
 FoFCou: FMM=F IPFlag=           0 FMFlag=      100000 FMFlg1=           0
         NFxFlg=           0 DoJE=T BraDBF=F KetDBF=T FulRan=T
         wScrn=  0.000000 ICntrl=       500 IOpCl=  0 I1Cent=   200000004 NGrid=           0
         NMat0=    1 NMatS0=      1 NMatT0=    0 NMatD0=    1 NMtDS0=    0 NMtDT0=    0
 Symmetry not used in FoFCou.
 Requested convergence on RMS density matrix=1.00D-08 within 128 cycles.
 Requested convergence on MAX density matrix=1.00D-06.
 Requested convergence on             energy=1.00D-06.
 No special actions if energy rises.
 Defaulting to unpruned grid for atomic number  42.
 Defaulting to unpruned grid for atomic number  42.
 Defaulting to unpruned grid for atomic number  42.
 Defaulting to unpruned grid for atomic number  42.
 Defaulting to unpruned grid for atomic number  42.
 Defaulting to unpruned grid for atomic number  42.
 Defaulting to unpruned grid for atomic number  42.
 Defaulting to unpruned grid for atomic number  42.
 Defaulting to unpruned grid for atomic number  42.
 Defaulting to unpruned grid for atomic number  42.
 Defaulting to unpruned grid for atomic number  42.
 Defaulting to unpruned grid for atomic number  42.
 Defaulting to unpruned grid for atomic number  42.
 Defaulting to unpruned grid for atomic number  42.
 Defaulting to unpruned grid for atomic number  42.
 Defaulting to unpruned grid for atomic number  42.
 Defaulting to unpruned grid for atomic number  42.
 Defaulting to unpruned grid for atomic number  42.
 Defaulting to unpruned grid for atomic number  42.
 Defaulting to unpruned grid for atomic number  42.
 Defaulting to unpruned grid for atomic number  42.
 Defaulting to unpruned grid for atomic number  42.
 Defaulting to unpruned grid for atomic number  42.
 Defaulting to unpruned grid for atomic number  42.
 Defaulting to unpruned grid for atomic number  42.
 Defaulting to unpruned grid for atomic number  42.
 Defaulting to unpruned grid for atomic number  42.
 Defaulting to unpruned grid for atomic number  42.
 Defaulting to unpruned grid for atomic number  42.
 Defaulting to unpruned grid for atomic number  42.
 Defaulting to unpruned grid for atomic number  42.
 Defaulting to unpruned grid for atomic number  42.
 Defaulting to unpruned grid for atomic number  42.
 Defaulting to unpruned grid for atomic number  42.
 Defaulting to unpruned grid for atomic number  42.
 Defaulting to unpruned grid for atomic number  42.
 Defaulting to unpruned grid for atomic number  42.
 Defaulting to unpruned grid for atomic number  42.
 Defaulting to unpruned grid for atomic number  42.
 Defaulting to unpruned grid for atomic number  42.
 Defaulting to unpruned grid for atomic number  42.
 Defaulting to unpruned grid for atomic number  42.
 Defaulting to unpruned grid for atomic number  42.
 Defaulting to unpruned grid for atomic number  42.
 Defaulting to unpruned grid for atomic number  42.
 Defaulting to unpruned grid for atomic number  42.
 Defaulting to unpruned grid for atomic number  42.
 Defaulting to unpruned grid for atomic number  42.
 EnCoef did     3 forward-backward iterations
 EnCoef did     2 forward-backward iterations
 EnCoef did     2 forward-backward iterations
 EnCoef did     4 forward-backward iterations
 EnCoef did     4 forward-backward iterations
 EnCoef did     2 forward-backward iterations
 EnCoef did     5 forward-backward iterations
 Restarting incremental Fock formation.
 SCF Done:  E(RB3LYP) =  -3571.76939792     A.U. after   25 cycles
            NFock= 25  Conv=0.97D-08     -V/T= 2.0557

 **********************************************************************

            Population analysis using the SCF Density.

 **********************************************************************

 Alpha  occ. eigenvalues --  -88.90779 -88.90734 -88.90136 -88.89321 -88.88121
 Alpha  occ. eigenvalues --  -88.88002 -88.87561 -88.85172 -19.24908 -10.31887
 Alpha  occ. eigenvalues --   -7.98374  -7.98360  -7.97804  -7.96897  -7.95899
 Alpha  occ. eigenvalues --   -7.95781  -7.95388  -7.92821  -5.94644  -5.94360
 Alpha  occ. eigenvalues --   -5.94334  -5.94249  -5.94200  -5.94167  -5.93806
 Alpha  occ. eigenvalues --   -5.93763  -5.93707  -5.93167  -5.92759  -5.92668
 Alpha  occ. eigenvalues --   -5.91933  -5.91878  -5.91796  -5.91735  -5.91730
 Alpha  occ. eigenvalues --   -5.91655  -5.91652  -5.91290  -5.91058  -5.89112
 Alpha  occ. eigenvalues --   -5.88725  -5.88507  -2.54721  -2.53586  -2.52936
 Alpha  occ. eigenvalues --   -2.50962  -1.57792  -1.57461  -1.57150  -1.56919
 Alpha  occ. eigenvalues --   -1.55851  -1.55451  -1.55161  -1.55104  -1.54028
 Alpha  occ. eigenvalues --   -1.53813  -1.52968  -1.52661  -1.14952  -0.76195
 Alpha  occ. eigenvalues --   -0.75007  -0.73932  -0.73382  -0.72889  -0.70944
 Alpha  occ. eigenvalues --   -0.70548  -0.69751  -0.58281  -0.47968  -0.47262
 Alpha  occ. eigenvalues --   -0.47207  -0.45825  -0.44980  -0.43059  -0.40700
 Alpha  occ. eigenvalues --   -0.40278  -0.40271  -0.39629  -0.38839  -0.38608
 Alpha  occ. eigenvalues --   -0.37379  -0.36538  -0.35970  -0.34911  -0.34419
 Alpha  occ. eigenvalues --   -0.33837  -0.33187  -0.32827  -0.32337  -0.32038
 Alpha  occ. eigenvalues --   -0.31187  -0.30828  -0.29854  -0.28704  -0.28237
 Alpha  occ. eigenvalues --   -0.27512  -0.26125  -0.24788  -0.24099  -0.23487
 Alpha  occ. eigenvalues --   -0.21637
 Alpha virt. eigenvalues --   -0.14817  -0.13754  -0.13279  -0.12479  -0.12066
 Alpha virt. eigenvalues --   -0.11392  -0.10220  -0.09786  -0.09425  -0.09029
 Alpha virt. eigenvalues --   -0.07498  -0.06235  -0.05576  -0.04076  -0.04000
 Alpha virt. eigenvalues --   -0.01838  -0.01182  -0.00387   0.00264   0.01564
 Alpha virt. eigenvalues --    0.01754   0.01889   0.02981   0.03453   0.04025
 Alpha virt. eigenvalues --    0.04508   0.05436   0.05744   0.06386   0.06493
 Alpha virt. eigenvalues --    0.07370   0.08104   0.09200   0.09997   0.10356
 Alpha virt. eigenvalues --    0.13139   0.14187   0.15312   0.16269   0.17425
 Alpha virt. eigenvalues --    0.17577   0.18458   0.20446   0.21430   0.23802
 Alpha virt. eigenvalues --    0.26036   0.26202   0.26952   0.28122   0.28750
 Alpha virt. eigenvalues --    0.29879   0.30784   0.31873   0.32325   0.32533
 Alpha virt. eigenvalues --    0.32789   0.33387   0.33564   0.34476   0.35385
 Alpha virt. eigenvalues --    0.36029   0.36341   0.37016   0.37561   0.38047
 Alpha virt. eigenvalues --    0.38418   0.39305   0.39463   0.40229   0.40847
 Alpha virt. eigenvalues --    0.41155   0.41934   0.42400   0.43187   0.44047
 Alpha virt. eigenvalues --    0.45006   0.46297   0.47264   0.47889   0.49518
 Alpha virt. eigenvalues --    0.49744   0.51087   0.51487   0.52149   0.53266
 Alpha virt. eigenvalues --    0.54125   0.55105   0.57117   0.58150   0.59197
 Alpha virt. eigenvalues --    0.61820   0.62238   0.62998   0.63730   0.64942
 Alpha virt. eigenvalues --    0.67351   0.68508   0.69191   0.69669   0.70480
 Alpha virt. eigenvalues --    0.71350   0.72402   0.72863   0.73838   0.74478
 Alpha virt. eigenvalues --    0.75378   0.75814   0.75986   0.76744   0.77577
 Alpha virt. eigenvalues --    0.78752   0.80118   0.80614   0.81316   0.82027
 Alpha virt. eigenvalues --    0.83171   0.83735   0.84968   0.85688   0.86383
 Alpha virt. eigenvalues --    0.87387   0.87944   0.89428   0.90011   0.91355
 Alpha virt. eigenvalues --    0.93699   0.94499   0.96397   0.97082   0.98258
 Alpha virt. eigenvalues --    0.98632   0.99285   0.99766   1.00590   1.01260
 Alpha virt. eigenvalues --    1.02274   1.03698   1.03884   1.04558   1.05960
 Alpha virt. eigenvalues --    1.08224   1.08626   1.10231   1.11159   1.12475
 Alpha virt. eigenvalues --    1.15114   1.17028   1.17384   1.18104   1.18618
 Alpha virt. eigenvalues --    1.22571   1.23644   1.49304   1.49959   1.55751
 Alpha virt. eigenvalues --    1.56855   1.65117   1.93021   1.93555   2.06338
 Alpha virt. eigenvalues --    2.06546   2.08318   2.08807   2.08927   2.10095
 Alpha virt. eigenvalues --    2.10909   2.12325   2.38185   2.56446   2.56855
 Alpha virt. eigenvalues --    2.70272   2.71652   2.72639   2.75678   2.97329
 Alpha virt. eigenvalues --    6.50040   9.14399  10.55246  12.98211
          Condensed to atoms (all electrons):
               1          2          3          4          5          6
     1  Mo  14.169097   0.113094   0.167120   0.126793   0.120921  -0.009217
     2  S    0.113094  15.374798  -0.020442   0.014346   0.005439   0.000319
     3  S    0.167120  -0.020442  15.660109  -0.009657  -0.002114   0.000007
     4  S    0.126793   0.014346  -0.009657  15.586613  -0.008973   0.000414
     5  S    0.120921   0.005439  -0.002114  -0.008973  15.474630   0.249492
     6  H   -0.009217   0.000319   0.000007   0.000414   0.249492   0.710503
     7  Mo  -0.251063  -0.043396   0.289891   0.216469  -0.012365  -0.000065
     8  S   -0.027757   0.000076   0.005760   0.008811   0.000017   0.000000
     9  H    0.004856   0.000001  -0.000048  -0.000541   0.000000   0.000000
    10  S   -0.015965  -0.016569   0.019437  -0.017602  -0.000101  -0.000000
    11  Mo  -0.082663   0.209467  -0.017508   0.039740   0.002723  -0.001651
    12  S   -0.020725  -0.001310   0.000007  -0.003288  -0.000118   0.000001
    13  H    0.002459  -0.000221   0.000007  -0.000077   0.000000  -0.000000
    14  S   -0.025851   0.003433  -0.000273  -0.019726   0.000501   0.000338
    15  H   -0.011656  -0.000293   0.000013   0.002541  -0.000199  -0.000018
    16  Mo  -0.295092   0.128818  -0.020860  -0.014699   0.199428  -0.041445
    17  C   -0.026295  -0.009299   0.000116  -0.000125  -0.017310  -0.006947
    18  O    0.000963  -0.000385  -0.000010  -0.000000  -0.001064   0.002042
               7          8          9         10         11         12
     1  Mo  -0.251063  -0.027757   0.004856  -0.015965  -0.082663  -0.020725
     2  S   -0.043396   0.000076   0.000001  -0.016569   0.209467  -0.001310
     3  S    0.289891   0.005760  -0.000048   0.019437  -0.017508   0.000007
     4  S    0.216469   0.008811  -0.000541  -0.017602   0.039740  -0.003288
     5  S   -0.012365   0.000017   0.000000  -0.000101   0.002723  -0.000118
     6  H   -0.000065   0.000000   0.000000  -0.000000  -0.001651   0.000001
     7  Mo  13.381905   0.305049  -0.022325   0.295382  -0.304003  -0.013421
     8  S    0.305049  15.602694   0.259378   0.006183  -0.013973   0.000025
     9  H   -0.022325   0.259378   0.659606  -0.002271   0.000516   0.000001
    10  S    0.295382   0.006183  -0.002271  15.655254   0.149959  -0.018366
    11  Mo  -0.304003  -0.013973   0.000516   0.149959  14.216809   0.356573
    12  S   -0.013421   0.000025   0.000001  -0.018366   0.356573  15.580276
    13  H    0.001954  -0.000001   0.000000  -0.005906  -0.035884   0.270030
    14  S   -0.003161   0.000015  -0.000000  -0.004836   0.189188  -0.031694
    15  H    0.003491  -0.000003   0.000000  -0.000004  -0.017137   0.000440
    16  Mo   0.080226  -0.001703  -0.000071  -0.006781  -0.302799  -0.040519
    17  C    0.000403  -0.000000  -0.000000   0.000001  -0.003861   0.000051
    18  O    0.000285   0.000000  -0.000000  -0.000000  -0.000867  -0.000000
              13         14         15         16         17         18
     1  Mo   0.002459  -0.025851  -0.011656  -0.295092  -0.026295   0.000963
     2  S   -0.000221   0.003433  -0.000293   0.128818  -0.009299  -0.000385
     3  S    0.000007  -0.000273   0.000013  -0.020860   0.000116  -0.000010
     4  S   -0.000077  -0.019726   0.002541  -0.014699  -0.000125  -0.000000
     5  S    0.000000   0.000501  -0.000199   0.199428  -0.017310  -0.001064
     6  H   -0.000000   0.000338  -0.000018  -0.041445  -0.006947   0.002042
     7  Mo   0.001954  -0.003161   0.003491   0.080226   0.000403   0.000285
     8  S   -0.000001   0.000015  -0.000003  -0.001703  -0.000000   0.000000
     9  H    0.000000  -0.000000   0.000000  -0.000071  -0.000000  -0.000000
    10  S   -0.005906  -0.004836  -0.000004  -0.006781   0.000001  -0.000000
    11  Mo  -0.035884   0.189188  -0.017137  -0.302799  -0.003861  -0.000867
    12  S    0.270030  -0.031694   0.000440  -0.040519   0.000051  -0.000000
    13  H    0.685492   0.000933  -0.000003   0.003207   0.000000   0.000000
    14  S    0.000933  15.402723   0.273137   0.210368  -0.006249   0.000015
    15  H   -0.000003   0.273137   0.660621  -0.019656   0.000057  -0.000000
    16  Mo   0.003207   0.210368  -0.019656  14.031754   0.188781  -0.005516
    17  C    0.000000  -0.006249   0.000057   0.188781   5.077662   0.603844
    18  O    0.000000   0.000015  -0.000000  -0.005516   0.603844   7.630743
 Mulliken charges:
               1
     1  Mo   0.060983
     2  S    0.242123
     3  S   -0.071555
     4  S    0.078961
     5  S   -0.010906
     6  H    0.096228
     7  Mo   0.074743
     8  S   -0.144571
     9  H    0.100898
    10  S   -0.037813
    11  Mo  -0.384628
    12  S   -0.077963
    13  H    0.078011
    14  S    0.011139
    15  H    0.108670
    16  Mo  -0.093441
    17  C    0.199170
    18  O   -0.230047
 Sum of Mulliken charges =  -0.00000
 Mulliken charges with hydrogens summed into heavy atoms:
               1
     1  Mo   0.060983
     2  S    0.242123
     3  S   -0.071555
     4  S    0.078961
     5  S    0.085322
     7  Mo   0.074743
     8  S   -0.043673
    10  S   -0.037813
    11  Mo  -0.384628
    12  S    0.000047
    14  S    0.119809
    16  Mo  -0.093441
    17  C    0.199170
    18  O   -0.230047
 Electronic spatial extent (au):  <R**2>=          94071.7826
 Charge=             -0.0000 electrons
 Dipole moment (field-independent basis, Debye):
    X=              1.4316    Y=             -3.0634    Z=              0.4233  Tot=              3.4078
 Quadrupole moment (field-independent basis, Debye-Ang):
   XX=           -213.8797   YY=           -217.4362   ZZ=           -202.6384
   XY=             -3.9708   XZ=             22.1136   YZ=            -33.1672
 Traceless Quadrupole moment (field-independent basis, Debye-Ang):
   XX=             -2.5616   YY=             -6.1181   ZZ=              8.6797
   XY=             -3.9708   XZ=             22.1136   YZ=            -33.1672
 Octapole moment (field-independent basis, Debye-Ang**2):
  XXX=            321.4328  YYY=          -1264.7095  ZZZ=          -6721.6441  XYY=             71.1399
  XXY=           -425.4735  XXZ=          -2324.9863  XZZ=            373.0079  YZZ=           -790.9059
  YYZ=          -2329.6475  XYZ=             -6.2419
 Hexadecapole moment (field-independent basis, Debye-Ang**3):
 XXXX=          -6003.5585 YYYY=          -7862.3124 ZZZZ=        -148824.6001 XXXY=            985.4163
 XXXZ=           3391.7984 YYYX=            906.5507 YYYZ=         -13163.6004 ZZZX=           6026.9256
 ZZZY=         -17419.3900 XXYY=          -2304.4325 XXZZ=         -26662.9370 YYZZ=         -26715.6666
 XXYZ=          -4501.6099 YYXZ=            863.8148 ZZXY=            577.0677
 N-N= 2.722876627449D+03 E-N=-1.383895797981D+04  KE= 3.383301518797D+03
   1 Symmetry operations used in ECPInt.
 ECPInt:  NShTT=    4278 NPrTT=   30745 LenC2=    3932 LenP2D=   19242.
 LDataN:  DoStor=T MaxTD1= 6 Len=  172
 Calling FoFJK, ICntrl=      2127 FMM=F ISym2X=0 I1Cent= 0 IOpClX= 0 NMat=1 NMatS=1 NMatT=0.
 Defaulting to unpruned grid for atomic number  42.
 Defaulting to unpruned grid for atomic number  42.
 Defaulting to unpruned grid for atomic number  42.
 Defaulting to unpruned grid for atomic number  42.
 Defaulting to unpruned grid for atomic number  42.
 Defaulting to unpruned grid for atomic number  42.
 Defaulting to unpruned grid for atomic number  42.
 Defaulting to unpruned grid for atomic number  42.
 Defaulting to unpruned grid for atomic number  42.
 Defaulting to unpruned grid for atomic number  42.
 Defaulting to unpruned grid for atomic number  42.
 Defaulting to unpruned grid for atomic number  42.
 Defaulting to unpruned grid for atomic number  42.
 Defaulting to unpruned grid for atomic number  42.
 Defaulting to unpruned grid for atomic number  42.
 Defaulting to unpruned grid for atomic number  42.
 Defaulting to unpruned grid for atomic number  42.
 Defaulting to unpruned grid for atomic number  42.
 Defaulting to unpruned grid for atomic number  42.
 Defaulting to unpruned grid for atomic number  42.
 Defaulting to unpruned grid for atomic number  42.
 Defaulting to unpruned grid for atomic number  42.
 Defaulting to unpruned grid for atomic number  42.
 Defaulting to unpruned grid for atomic number  42.
 Defaulting to unpruned grid for atomic number  42.
 Defaulting to unpruned grid for atomic number  42.
 Defaulting to unpruned grid for atomic number  42.
 Defaulting to unpruned grid for atomic number  42.
 Defaulting to unpruned grid for atomic number  42.
 Defaulting to unpruned grid for atomic number  42.
 Defaulting to unpruned grid for atomic number  42.
 Defaulting to unpruned grid for atomic number  42.
 Defaulting to unpruned grid for atomic number  42.
 Defaulting to unpruned grid for atomic number  42.
 Defaulting to unpruned grid for atomic number  42.
 Defaulting to unpruned grid for atomic number  42.
 Defaulting to unpruned grid for atomic number  42.
 Defaulting to unpruned grid for atomic number  42.
 Defaulting to unpruned grid for atomic number  42.
 Defaulting to unpruned grid for atomic number  42.
 Defaulting to unpruned grid for atomic number  42.
 Defaulting to unpruned grid for atomic number  42.
 Defaulting to unpruned grid for atomic number  42.
 Defaulting to unpruned grid for atomic number  42.
 Defaulting to unpruned grid for atomic number  42.
 Defaulting to unpruned grid for atomic number  42.
 Defaulting to unpruned grid for atomic number  42.
 Defaulting to unpruned grid for atomic number  42.
 -------------------------------------------------------------------
 Center     Atomic                   Forces (Hartrees/Bohr)
 Number     Number              X              Y              Z
 -------------------------------------------------------------------
      1       42           0.001923163    0.001995357    0.004796924
      2       16          -0.000122376    0.001028711    0.001016862
      3       16           0.000546873    0.000600715   -0.000684349
      4       16           0.001180438   -0.000185881   -0.000904404
      5       16           0.001472624   -0.006048399   -0.003660544
      6        1          -0.004199458    0.000311356   -0.000793961
      7       42          -0.000712875   -0.000602795   -0.000544504
      8       16          -0.000221081   -0.000027607   -0.000064679
      9        1           0.000018972   -0.000024986    0.000001701
     10       16           0.000005841   -0.000111773    0.000270465
     11       42          -0.000126116   -0.000603346   -0.000515678
     12       16          -0.000179279   -0.000060367   -0.000089469
     13        1           0.000003500    0.000007635    0.000083140
     14       16          -0.001836021   -0.000317796   -0.001760698
     15        1           0.000589968    0.000553009    0.000340219
     16       42           0.001260725   -0.000392714    0.005093014
     17        6           0.000445179    0.005871203   -0.004724190
     18        8          -0.000050076   -0.001992322    0.002140152
 -------------------------------------------------------------------
 Cartesian Forces:  Max     0.006048399 RMS     0.001968523

 GradGradGradGradGradGradGradGradGradGradGradGradGradGradGradGradGradGrad
 Berny optimization.
 FormGI is forming the generalized inverse of G from B-inverse, IUseBI=4.
 Internal  Forces:  Max     0.004276708 RMS     0.000904925
 Search for a local minimum.
 Step number   1 out of a maximum of  108
 All quantities printed in internal units (Hartrees-Bohrs-Radians)
 Mixed Optimization -- En-DIIS/RFO-DIIS
 Second derivative matrix not updated -- first step.
 ITU=  0
     Eigenvalues ---    0.00230   0.00230   0.01369   0.01525   0.01988
     Eigenvalues ---    0.02668   0.03185   0.03620   0.03836   0.04517
     Eigenvalues ---    0.04917   0.04917   0.05076   0.05863   0.06914
     Eigenvalues ---    0.07744   0.07990   0.08203   0.08468   0.09246
     Eigenvalues ---    0.09434   0.10410   0.10575   0.11186   0.11229
     Eigenvalues ---    0.11743   0.11747   0.12032   0.12557   0.13218
     Eigenvalues ---    0.13610   0.13675   0.13895   0.14366   0.14647
     Eigenvalues ---    0.14981   0.15196   0.16000   0.16000   0.16284
     Eigenvalues ---    0.17170   0.17482   0.18094   0.24949   0.25367
     Eigenvalues ---    0.25423   0.25711   1.30311
 RFO step:  Lambda=-1.89037289D-03 EMin= 2.30000000D-03
 Linear search not attempted -- first point.
 Iteration  1 RMS(Cart)=  0.01981484 RMS(Int)=  0.00071084
 Iteration  2 RMS(Cart)=  0.00078719 RMS(Int)=  0.00009288
 Iteration  3 RMS(Cart)=  0.00000091 RMS(Int)=  0.00009288
 Variable       Old X    -DE/DX   Delta X   Delta X   Delta X     New X
                                 (Linear)    (Quad)   (Total)
    R1        4.51785   0.00037   0.00000   0.00074   0.00074   4.51860
    R2        4.52224  -0.00062   0.00000  -0.00204  -0.00203   4.52022
    R3        4.50797   0.00054   0.00000   0.00467   0.00466   4.51263
    R4        4.74128   0.00147   0.00000   0.01722   0.01724   4.75852
    R5        5.18427   0.00019   0.00000   0.00454   0.00454   5.18882
    R6        5.13854   0.00031   0.00000   0.00077   0.00070   5.13924
    R7        5.04795  -0.00039   0.00000  -0.01067  -0.01087   5.03709
    R8        4.43244   0.00082   0.00000   0.00496   0.00496   4.43740
    R9        4.52575   0.00041   0.00000   0.00149   0.00149   4.52724
   R10        4.30842  -0.00016   0.00000  -0.00361  -0.00366   4.30476
   R11        4.46082   0.00058   0.00000   0.00118   0.00118   4.46200
   R12        4.61362  -0.00082   0.00000  -0.00698  -0.00697   4.60664
   R13        2.56838  -0.00204   0.00000  -0.00811  -0.00811   2.56028
   R14        4.59823   0.00428   0.00000   0.04125   0.04135   4.63958
   R15        4.44830   0.00022   0.00000   0.00155   0.00155   4.44985
   R16        4.25445   0.00001   0.00000  -0.00111  -0.00108   4.25337
   R17        5.30924  -0.00040   0.00000  -0.00091  -0.00085   5.30840
   R18        2.55643  -0.00001   0.00000  -0.00005  -0.00005   2.55638
   R19        4.59291  -0.00017   0.00000   0.00110   0.00112   4.59404
   R20        4.56945  -0.00014   0.00000  -0.00121  -0.00121   4.56824
   R21        4.80085  -0.00017   0.00000  -0.00717  -0.00720   4.79365
   R22        5.48129  -0.00033   0.00000   0.00292   0.00297   5.48426
   R23        2.54934   0.00004   0.00000   0.00015   0.00015   2.54949
   R24        2.55784  -0.00086   0.00000  -0.00335  -0.00335   2.55449
   R25        4.72515   0.00104   0.00000   0.01468   0.01472   4.73987
   R26        3.81641  -0.00300   0.00000  -0.01726  -0.01726   3.79914
   R27        2.18491   0.00233   0.00000   0.00178   0.00178   2.18669
    A1        1.60206  -0.00060   0.00000  -0.00170  -0.00173   1.60033
    A2        1.93417  -0.00016   0.00000  -0.00112  -0.00110   1.93307
    A3        1.92643   0.00136   0.00000   0.01395   0.01395   1.94038
    A4        1.57665  -0.00012   0.00000   0.00078   0.00080   1.57745
    A5        1.78157   0.00029   0.00000  -0.00045  -0.00045   1.78112
    A6        2.59500   0.00062   0.00000   0.00086   0.00068   2.59568
    A7        1.81975  -0.00037   0.00000  -0.00287  -0.00290   1.81686
    A8        2.56605  -0.00041   0.00000   0.00035   0.00033   2.56638
    A9        1.58310  -0.00188   0.00000  -0.01513  -0.01520   1.56790
   A10        1.69598  -0.00039   0.00000  -0.00145  -0.00140   1.69458
   A11        2.52047  -0.00190   0.00000  -0.01729  -0.01739   2.50307
   A12        1.86107  -0.00052   0.00000  -0.00104  -0.00116   1.85991
   A13        2.21612  -0.00022   0.00000   0.00113   0.00119   2.21731
   A14        1.87832  -0.00188   0.00000  -0.04224  -0.04153   1.83679
   A15        1.78841   0.00006   0.00000   0.04282   0.04289   1.83130
   A16        2.40659  -0.00006   0.00000  -0.00032  -0.00031   2.40628
   A17        1.84179  -0.00007   0.00000  -0.00066  -0.00070   1.84110
   A18        1.85672   0.00016   0.00000   0.00102   0.00103   1.85775
   A19        1.90536   0.00035   0.00000   0.00155   0.00163   1.90699
   A20        1.98051  -0.00068   0.00000  -0.00369  -0.00377   1.97674
   A21        1.82615  -0.00029   0.00000  -0.00206  -0.00210   1.82405
   A22        1.82091   0.00011   0.00000   0.00096   0.00094   1.82185
   A23        1.85932  -0.00005   0.00000  -0.00074  -0.00075   1.85857
   A24        2.02558   0.00017   0.00000   0.00123   0.00125   2.02683
   A25        2.52643  -0.00001   0.00000   0.00059   0.00057   2.52700
   A26        1.68514  -0.00004   0.00000  -0.00023  -0.00023   1.68491
   A27        1.76882  -0.00005   0.00000  -0.00010  -0.00012   1.76871
   A28        2.64494   0.00001   0.00000  -0.00070  -0.00070   2.64424
   A29        1.67783  -0.00011   0.00000   0.00095   0.00093   1.67876
   A30        1.92743   0.00014   0.00000   0.00130   0.00131   1.92874
   A31        1.56501  -0.00007   0.00000   0.00120   0.00121   1.56621
   A32        1.60050  -0.00037   0.00000  -0.00011  -0.00014   1.60036
   A33        1.70526   0.00012   0.00000  -0.00033  -0.00034   1.70493
   A34        1.83629   0.00048   0.00000   0.00250   0.00249   1.83878
   A35        1.72284   0.00037   0.00000   0.00087   0.00087   1.72371
   A36        2.62940  -0.00033   0.00000  -0.00128  -0.00128   2.62812
   A37        1.47430  -0.00069   0.00000  -0.00268  -0.00269   1.47161
   A38        1.57389  -0.00010   0.00000  -0.00207  -0.00208   1.57180
   A39        2.41251   0.00011   0.00000  -0.00008  -0.00007   2.41244
   A40        2.39572  -0.00043   0.00000  -0.00163  -0.00167   2.39405
   A41        2.02633  -0.00002   0.00000  -0.00161  -0.00165   2.02468
   A42        1.54136   0.00009   0.00000   0.00028   0.00030   1.54166
   A43        2.80263   0.00004   0.00000  -0.00174  -0.00170   2.80092
   A44        2.51867  -0.00026   0.00000  -0.00094  -0.00099   2.51768
   A45        1.39877   0.00015   0.00000   0.00023   0.00024   1.39902
   A46        1.75651  -0.00002   0.00000   0.00219   0.00222   1.75873
   A47        1.80795  -0.00007   0.00000  -0.00044  -0.00044   1.80751
   A48        1.80560   0.00061   0.00000   0.00369   0.00366   1.80926
   A49        1.79491   0.00032   0.00000  -0.00222  -0.00225   1.79267
   A50        1.71626  -0.00022   0.00000  -0.00125  -0.00127   1.71498
   A51        1.71733  -0.00010   0.00000   0.00479   0.00476   1.72208
   A52        1.97009   0.00047   0.00000   0.00635   0.00626   1.97635
   A53        1.83217   0.00025   0.00000  -0.00282  -0.00285   1.82933
   A54        1.50657  -0.00071   0.00000  -0.00726  -0.00733   1.49924
   A55        1.80386  -0.00097   0.00000  -0.00706  -0.00719   1.79667
   A56        1.70245  -0.00203   0.00000  -0.01257  -0.01260   1.68986
   A57        1.55789   0.00214   0.00000   0.02617   0.02627   1.58416
   A58        2.40369  -0.00048   0.00000  -0.00591  -0.00606   2.39763
   A59        2.84700   0.00036   0.00000  -0.00159  -0.00190   2.84511
   A60        3.14286  -0.00384   0.00000  -0.07525  -0.07525   3.06761
   A61        3.08919   0.00043   0.00000   0.00835   0.00835   3.09754
    D1        1.42383   0.00208   0.00000   0.07646   0.07657   1.50040
    D2       -0.88741  -0.00097   0.00000   0.04364   0.04350  -0.84392
    D3       -2.89470   0.00137   0.00000   0.07142   0.07137  -2.82333
    D4       -2.73024   0.00188   0.00000   0.08170   0.08143  -2.64881
    D5        2.42357   0.00224   0.00000   0.07890   0.07891   2.50248
    D6       -3.02019   0.00022   0.00000   0.00088   0.00083  -3.01936
    D7        0.28150  -0.00013   0.00000  -0.00139  -0.00141   0.28009
    D8        1.04055  -0.00027   0.00000  -0.01020  -0.00998   1.03057
    D9       -1.94094  -0.00063   0.00000  -0.01248  -0.01222  -1.95316
   D10        2.45775   0.00003   0.00000  -0.00160  -0.00166   2.45609
   D11       -0.52374  -0.00033   0.00000  -0.00387  -0.00390  -0.52764
   D12       -0.04402  -0.00001   0.00000   0.00055   0.00054  -0.04348
   D13        1.83908   0.00009   0.00000   0.00041   0.00041   1.83948
   D14       -3.03711   0.00021   0.00000   0.00279   0.00277  -3.03434
   D15        3.00704  -0.00162   0.00000  -0.01797  -0.01801   2.98902
   D16       -1.39305  -0.00151   0.00000  -0.01812  -0.01814  -1.41120
   D17        0.01395  -0.00139   0.00000  -0.01573  -0.01578  -0.00183
   D18       -2.05482   0.00025   0.00000   0.00542   0.00537  -2.04945
   D19        1.12593  -0.00009   0.00000  -0.00915  -0.00928   1.11666
   D20        0.13639  -0.00039   0.00000   0.00199   0.00200   0.13839
   D21       -2.96604  -0.00073   0.00000  -0.01257  -0.01265  -2.97869
   D22       -0.73718  -0.00024   0.00000   0.00472   0.00473  -0.73245
   D23        2.44358  -0.00059   0.00000  -0.00985  -0.00992   2.43366
   D24       -1.24505   0.00013   0.00000   0.00323   0.00328  -1.24177
   D25        1.27523   0.00019   0.00000   0.00038   0.00035   1.27558
   D26       -1.55794   0.00065   0.00000   0.05204   0.05214  -1.50580
   D27       -2.49250   0.00077   0.00000   0.05391   0.05416  -2.43834
   D28        2.80881   0.00124   0.00000   0.05959   0.05981   2.86862
   D29       -0.06232   0.00076   0.00000   0.05497   0.05518  -0.00714
   D30       -2.34409  -0.00010   0.00000   0.00222   0.00227  -2.34183
   D31        2.89023  -0.00024   0.00000   0.00184   0.00181   2.89204
   D32       -1.41392   0.00015   0.00000   0.00414   0.00415  -1.40977
   D33        0.62567   0.00026   0.00000   0.00453   0.00454   0.63021
   D34       -0.55130  -0.00001   0.00000   0.00209   0.00207  -0.54923
   D35       -0.28290   0.00021   0.00000   0.00201   0.00204  -0.28085
   D36       -2.04970   0.00009   0.00000   0.00116   0.00119  -2.04851
   D37        1.67812   0.00068   0.00000   0.00654   0.00655   1.68466
   D38        0.55070   0.00029   0.00000   0.00310   0.00314   0.55384
   D39       -3.13190  -0.00007   0.00000   0.00145   0.00145  -3.13045
   D40        1.38448  -0.00019   0.00000   0.00060   0.00060   1.38508
   D41       -1.17089   0.00040   0.00000   0.00597   0.00596  -1.16493
   D42       -2.29831   0.00001   0.00000   0.00254   0.00255  -2.29576
   D43       -1.60556  -0.00028   0.00000   0.00581   0.00578  -1.59977
   D44       -1.26464   0.00015   0.00000   0.00573   0.00573  -1.25891
   D45        2.16269   0.00058   0.00000   0.00742   0.00742   2.17011
   D46        0.44932   0.00021   0.00000   0.00716   0.00717   0.45649
   D47        0.33216  -0.00021   0.00000   0.00566   0.00564   0.33780
   D48       -3.08321  -0.00033   0.00000   0.00311   0.00312  -3.08009
   D49       -2.20217   0.00004   0.00000   0.00608   0.00609  -2.19607
   D50        1.01914  -0.00019   0.00000  -0.00164  -0.00164   1.01750
   D51        1.99863  -0.00027   0.00000  -0.00188  -0.00188   1.99675
   D52        0.08393  -0.00023   0.00000  -0.00253  -0.00253   0.08140
   D53        0.13834  -0.00047   0.00000  -0.00583  -0.00580   0.13255
   D54       -1.67100   0.00060   0.00000   0.00324   0.00325  -1.66775
   D55       -2.61986  -0.00018   0.00000  -0.00254  -0.00253  -2.62239
   D56       -0.12194   0.00111   0.00000   0.00993   0.00986  -0.11208
   D57       -1.93650  -0.00085   0.00000  -0.01978  -0.01970  -1.95620
   D58        0.71366   0.00134   0.00000   0.01034   0.01027   0.72393
   D59       -1.10090  -0.00062   0.00000  -0.01937  -0.01929  -1.12018
   D60        1.71594   0.00152   0.00000   0.00811   0.00800   1.72394
   D61       -0.09862  -0.00045   0.00000  -0.02160  -0.02155  -0.12017
   D62       -2.78465   0.00151   0.00000   0.01135   0.01129  -2.77335
   D63        1.68398  -0.00045   0.00000  -0.01836  -0.01826   1.66572
   D64       -1.01428  -0.00010   0.00000  -0.00497  -0.00494  -1.01922
   D65       -2.00760  -0.00016   0.00000  -0.00620  -0.00619  -2.01380
   D66        0.02033  -0.00032   0.00000  -0.00475  -0.00479   0.01554
   D67        1.99350   0.00092   0.00000   0.04587   0.04583   2.03933
         Item               Value     Threshold  Converged?
 Maximum Force            0.004277     0.000450     NO 
 RMS     Force            0.000905     0.000300     NO 
 Maximum Displacement     0.185044     0.001800     NO 
 RMS     Displacement     0.019975     0.001200     NO 
 Predicted change in Energy=-1.001304D-03
 GradGradGradGradGradGradGradGradGradGradGradGradGradGradGradGradGradGrad

                          Input orientation:                          
 ---------------------------------------------------------------------
 Center     Atomic      Atomic             Coordinates (Angstroms)
 Number     Number       Type             X           Y           Z
 ---------------------------------------------------------------------
      1         42           0       -0.713700    0.933614   11.696554
      2         16           0        0.646917    2.841450   12.172399
      3         16           0       -2.565041    1.868118   12.888561
      4         16           0       -1.493142    0.991580    9.440103
      5         16           0        0.699236   -1.077540   11.149102
      6          1           0        0.995474   -1.640896   12.345122
      7         42           0       -2.695479    2.566579   10.724227
      8         16           0       -4.917733    2.359124    9.973595
      9          1           0       -4.776391    3.117502    8.862336
     10         16           0       -1.712704    4.560796   10.373092
     11         42           0       -0.021158    2.874143    9.921509
     12         16           0        1.444628    4.645574    9.174941
     13          1           0        0.905603    5.754308    9.722955
     14         16           0        1.719083    1.504516    8.684384
     15          1           0        1.025343    0.432589    8.240534
     16         42           0        1.891350    1.068775   11.148464
     17          6           0        2.607995    0.702023   12.990664
     18          8           0        3.018429    0.394677   14.028002
 ---------------------------------------------------------------------
                    Distance matrix (angstroms):
                    1          2          3          4          5
     1  Mo   0.000000
     2  S    2.391139   0.000000
     3  S    2.391996   3.431754   0.000000
     4  S    2.387983   3.932851   3.716067   0.000000
     5  S    2.518101   4.050724   4.728438   3.465322   0.000000
     6  H    3.157534   4.499195   5.028496   4.643520   1.354840
     7  Mo   2.745805   3.652994   2.277982   2.361188   4.998421
     8  S    4.761782   6.002726   3.777999   3.725938   6.689008
     9  H    5.413651   6.359638   4.760411   3.953869   7.267060
    10  S    3.988234   3.429499   3.782139   3.695670   6.181463
    11  Mo   2.719568   2.348169   4.035693   2.437731   4.200208
    12  S    4.979514   3.588309   6.130471   4.696006   6.099751
    13  H    5.454936   3.814635   6.096631   5.340184   6.982166
    14  S    3.913761   3.886281   6.013404   3.339551   3.712403
    15  H    3.901201   4.626595   6.046135   2.845031   3.293418
    16  Mo   2.665512   2.395711   4.850392   3.791997   2.455159
    17  C    3.572395   3.015382   5.303819   5.432278   3.193988
    18  O    4.433383   3.879952   5.885957   6.462150   3.979214
                    6          7          8          9         10
     6  H    0.000000
     7  Mo   5.826945   0.000000
     8  S    7.522654   2.354762   0.000000
     9  H    8.251459   2.846111   1.352779   0.000000
    10  S    7.048696   2.250787   3.908858   3.708323   0.000000
    11  Mo   5.224272   2.809082   4.923861   4.877839   2.431060
    12  S    7.054892   4.884975   6.807741   6.413563   3.378090
    13  H    7.846840   4.912428   6.745469   6.322853   2.950031
    14  S    4.880393   4.977679   6.814671   6.695115   4.895890
    15  H    4.598682   4.956527   6.483455   6.423045   5.393217
    16  Mo   3.094658   4.843799   7.029149   7.340465   5.077855
    17  C    2.916542   6.061364   8.275583   8.798112   6.356905
    18  O    3.326859   6.948440   9.125784   9.739460   7.286873
                   11         12         13         14         15
    11  Mo   0.000000
    12  S    2.417408   0.000000
    13  H    3.032106   1.349132   0.000000
    14  S    2.536690   3.190959   4.449844   0.000000
    15  H    3.143569   4.335684   5.525632   1.351779   0.000000
    16  Mo   2.902147   4.109482   4.995798   2.508234   3.100122
    17  C    4.588056   5.609346   6.253131   4.469699   5.014092
    18  O    5.678919   6.640721   7.191878   5.610196   6.121161
                   16         17         18
    16  Mo   0.000000
    17  C    2.010420   0.000000
    18  O    3.164878   1.157146   0.000000
 Symmetry turned off by external request.
 Stoichiometry    CH4Mo4OS8
 Framework group  C1[X(CH4Mo4OS8)]
 Deg. of freedom    48
 Full point group                 C1      NOp   1
 Rotational constants (GHZ):           0.2627911           0.1497049           0.1223606
 Basis read from rwf:  (5D, 7F)
 Pseudo-potential data read from rwf file.
   280 basis functions,   696 primitive gaussians,   298 cartesian basis functions
   101 alpha electrons      101 beta electrons
       nuclear repulsion energy      2722.7405693834 Hartrees.
 NAtoms=   18 NActive=   18 NUniq=   18 SFac= 1.00D+00 NAtFMM=   60 NAOKFM=F Big=F
 Integral buffers will be    131072 words long.
 Raffenetti 2 integral format.
 Two-electron integral symmetry is turned off.
 One-electron integrals computed using PRISM.
   1 Symmetry operations used in ECPInt.
 ECPInt:  NShTT=    4278 NPrTT=   30745 LenC2=    3931 LenP2D=   19243.
 LDataN:  DoStor=T MaxTD1= 5 Len=  102
 NBasis=   280 RedAO= T EigKep=  1.05D-03  NBF=   280
 NBsUse=   280 1.00D-06 EigRej= -1.00D+00 NBFU=   280
 Defaulting to unpruned grid for atomic number  42.
 Defaulting to unpruned grid for atomic number  42.
 Defaulting to unpruned grid for atomic number  42.
 Defaulting to unpruned grid for atomic number  42.
 Initial guess from the checkpoint file:  "/localscratch/chesayan/sagar/Gau-187504.chk"
 B after Tr=    -0.004768   -0.003136    0.003882
         Rot=    0.999999    0.000225   -0.000662   -0.001066 Ang=   0.15 deg.
 ExpMin= 2.47D-02 ExpMax= 2.19D+04 ExpMxC= 3.30D+03 IAcc=3 IRadAn=         5 AccDes= 0.00D+00
 Harris functional with IExCor=  402 and IRadAn=       5 diagonalized for initial guess.
 HarFok:  IExCor=  402 AccDes= 0.00D+00 IRadAn=         5 IDoV= 1 UseB2=F ITyADJ=14
 ICtDFT=  3500011 ScaDFX=  1.000000  1.000000  1.000000  1.000000
 Defaulting to unpruned grid for atomic number  42.
 FoFCou: FMM=F IPFlag=           0 FMFlag=      100000 FMFlg1=           0
         NFxFlg=           0 DoJE=T BraDBF=F KetDBF=T FulRan=T
         wScrn=  0.000000 ICntrl=       500 IOpCl=  0 I1Cent=   200000004 NGrid=           0
         NMat0=    1 NMatS0=      1 NMatT0=    0 NMatD0=    1 NMtDS0=    0 NMtDT0=    0
 Symmetry not used in FoFCou.
 Requested convergence on RMS density matrix=1.00D-08 within 128 cycles.
 Requested convergence on MAX density matrix=1.00D-06.
 Requested convergence on             energy=1.00D-06.
 No special actions if energy rises.
 Defaulting to unpruned grid for atomic number  42.
 Defaulting to unpruned grid for atomic number  42.
 Defaulting to unpruned grid for atomic number  42.
 Defaulting to unpruned grid for atomic number  42.
 Defaulting to unpruned grid for atomic number  42.
 Defaulting to unpruned grid for atomic number  42.
 Defaulting to unpruned grid for atomic number  42.
 Defaulting to unpruned grid for atomic number  42.
 Defaulting to unpruned grid for atomic number  42.
 Defaulting to unpruned grid for atomic number  42.
 Defaulting to unpruned grid for atomic number  42.
 Defaulting to unpruned grid for atomic number  42.
 Defaulting to unpruned grid for atomic number  42.
 Defaulting to unpruned grid for atomic number  42.
 Defaulting to unpruned grid for atomic number  42.
 Defaulting to unpruned grid for atomic number  42.
 Defaulting to unpruned grid for atomic number  42.
 Defaulting to unpruned grid for atomic number  42.
 Defaulting to unpruned grid for atomic number  42.
 Defaulting to unpruned grid for atomic number  42.
 Defaulting to unpruned grid for atomic number  42.
 Defaulting to unpruned grid for atomic number  42.
 Defaulting to unpruned grid for atomic number  42.
 Defaulting to unpruned grid for atomic number  42.
 Defaulting to unpruned grid for atomic number  42.
 Defaulting to unpruned grid for atomic number  42.
 Defaulting to unpruned grid for atomic number  42.
 Defaulting to unpruned grid for atomic number  42.
 Defaulting to unpruned grid for atomic number  42.
 Defaulting to unpruned grid for atomic number  42.
 Defaulting to unpruned grid for atomic number  42.
 Defaulting to unpruned grid for atomic number  42.
 Defaulting to unpruned grid for atomic number  42.
 Defaulting to unpruned grid for atomic number  42.
 Defaulting to unpruned grid for atomic number  42.
 Defaulting to unpruned grid for atomic number  42.
 Defaulting to unpruned grid for atomic number  42.
 Defaulting to unpruned grid for atomic number  42.
 Defaulting to unpruned grid for atomic number  42.
 Defaulting to unpruned grid for atomic number  42.
 Defaulting to unpruned grid for atomic number  42.
 Defaulting to unpruned grid for atomic number  42.
 Defaulting to unpruned grid for atomic number  42.
 Defaulting to unpruned grid for atomic number  42.
 Defaulting to unpruned grid for atomic number  42.
 Defaulting to unpruned grid for atomic number  42.
 Defaulting to unpruned grid for atomic number  42.
 Defaulting to unpruned grid for atomic number  42.
 SCF Done:  E(RB3LYP) =  -3571.77027744     A.U. after   18 cycles
            NFock= 18  Conv=0.74D-08     -V/T= 2.0557
   1 Symmetry operations used in ECPInt.
 ECPInt:  NShTT=    4278 NPrTT=   30745 LenC2=    3931 LenP2D=   19243.
 LDataN:  DoStor=T MaxTD1= 6 Len=  172
 Calling FoFJK, ICntrl=      2127 FMM=F ISym2X=0 I1Cent= 0 IOpClX= 0 NMat=1 NMatS=1 NMatT=0.
 Defaulting to unpruned grid for atomic number  42.
 Defaulting to unpruned grid for atomic number  42.
 Defaulting to unpruned grid for atomic number  42.
 Defaulting to unpruned grid for atomic number  42.
 Defaulting to unpruned grid for atomic number  42.
 Defaulting to unpruned grid for atomic number  42.
 Defaulting to unpruned grid for atomic number  42.
 Defaulting to unpruned grid for atomic number  42.
 Defaulting to unpruned grid for atomic number  42.
 Defaulting to unpruned grid for atomic number  42.
 Defaulting to unpruned grid for atomic number  42.
 Defaulting to unpruned grid for atomic number  42.
 Defaulting to unpruned grid for atomic number  42.
 Defaulting to unpruned grid for atomic number  42.
 Defaulting to unpruned grid for atomic number  42.
 Defaulting to unpruned grid for atomic number  42.
 Defaulting to unpruned grid for atomic number  42.
 Defaulting to unpruned grid for atomic number  42.
 Defaulting to unpruned grid for atomic number  42.
 Defaulting to unpruned grid for atomic number  42.
 Defaulting to unpruned grid for atomic number  42.
 Defaulting to unpruned grid for atomic number  42.
 Defaulting to unpruned grid for atomic number  42.
 Defaulting to unpruned grid for atomic number  42.
 Defaulting to unpruned grid for atomic number  42.
 Defaulting to unpruned grid for atomic number  42.
 Defaulting to unpruned grid for atomic number  42.
 Defaulting to unpruned grid for atomic number  42.
 Defaulting to unpruned grid for atomic number  42.
 Defaulting to unpruned grid for atomic number  42.
 Defaulting to unpruned grid for atomic number  42.
 Defaulting to unpruned grid for atomic number  42.
 Defaulting to unpruned grid for atomic number  42.
 Defaulting to unpruned grid for atomic number  42.
 Defaulting to unpruned grid for atomic number  42.
 Defaulting to unpruned grid for atomic number  42.
 Defaulting to unpruned grid for atomic number  42.
 Defaulting to unpruned grid for atomic number  42.
 Defaulting to unpruned grid for atomic number  42.
 Defaulting to unpruned grid for atomic number  42.
 Defaulting to unpruned grid for atomic number  42.
 Defaulting to unpruned grid for atomic number  42.
 Defaulting to unpruned grid for atomic number  42.
 Defaulting to unpruned grid for atomic number  42.
 Defaulting to unpruned grid for atomic number  42.
 Defaulting to unpruned grid for atomic number  42.
 Defaulting to unpruned grid for atomic number  42.
 Defaulting to unpruned grid for atomic number  42.
 -------------------------------------------------------------------
 Center     Atomic                   Forces (Hartrees/Bohr)
 Number     Number              X              Y              Z
 -------------------------------------------------------------------
      1       42           0.001234950    0.000540987    0.001884769
      2       16          -0.000392607    0.000669407    0.000185409
      3       16           0.000268191    0.000420735    0.000016631
      4       16           0.000412509   -0.000094721   -0.000077678
      5       16           0.000032260   -0.000356511   -0.002904022
[...]
 -0.03752643,-0.04473420,-0.01150627,0.09748602,-0.05074097,-0.07036659
 ,-0.01525791,-0.00085613,0.13503155,-0.00329948,-0.01225897,-0.0066052
 0,0.01732798,0.03851897,0.14751968,-0.04833369,0.01616108,0.03513683,-
 0.00582711,0.00003968,0.00227603,0.06522885,0.01336872,-0.01294148,-0.
 02183098,-0.00279738,0.00038817,0.00168175,-0.01958442,0.03206476,0.03
 690963,-0.02655501,-0.04516974,0.00189428,0.00180984,0.00216146,-0.039
 84861,-0.00783822,0.17550119,-0.00748879,-0.00110655,-0.02467677,-0.00
 053556,-0.00068901,0.00011493,-0.00134262,0.00141890,0.00331910,0.0927
 3112,0.00461166,-0.00409448,0.00223203,0.00008533,-0.00026714,0.000149
 88,-0.00081911,0.00444387,-0.00013266,-0.00528228,0.12308935,-0.031578
 60,0.00635739,-0.09754429,-0.00204821,0.00017143,0.00315066,-0.0007737
 1,-0.00212713,-0.00381028,0.00239915,0.05074382,0.13728233,-0.01485707
 ,0.02927657,0.01734919,0.00200591,-0.00021198,0.00100371,-0.00110813,0
 .00071968,-0.00179347,-0.00137457,0.00104012,-0.00251436,0.06602891,0.
 02580601,-0.04589010,-0.01641174,0.00318071,-0.00197723,-0.00076145,0.
 00300451,-0.00098065,0.00064380,0.00258123,-0.00103966,0.00200215,-0.0
 2003901,0.14783994,0.00529825,-0.01850760,-0.02043473,0.00127946,-0.00
 227887,0.00148754,-0.00072979,-0.00054534,0.00208430,-0.00312687,0.003
 60727,0.00046935,0.04249135,-0.06916760,0.24290636,-0.00271279,0.00135
 272,-0.00814844,-0.00017223,-0.00026384,0.00026517,-0.00032514,-0.0001
 3337,0.00072728,-0.00053682,0.00115311,0.00096627,-0.02312357,0.021966
 61,-0.04509409,0.02409352,0.00146034,-0.00277252,0.00384088,0.00002494
 ,0.00021748,0.00064545,0.00033596,0.00020866,-0.00055976,0.00039997,0.
 00020132,-0.00011819,0.01959550,-0.04627606,0.07697460,-0.01878073,0.0
 5948412,-0.00146632,0.00125179,0.00385789,0.00027500,-0.00000611,0.000
 42402,0.00068043,-0.00015151,-0.00032069,0.00006658,0.00000397,-0.0001
 4036,-0.04439461,0.08628109,-0.20759812,0.04395570,-0.08616117,0.20057
 893,-0.02329904,0.02061880,-0.01900385,-0.00747267,0.00306553,-0.00218
 024,-0.00890419,0.00162216,-0.00640592,-0.03549636,0.03794169,0.031340
 89,-0.00269839,-0.00037237,0.00186874,0.00055838,-0.00074658,-0.000143
 34,0.27309695,0.03509427,-0.03824290,0.02471341,-0.00203733,0.00043573
 ,-0.00096979,-0.00307517,-0.01787305,0.02157589,0.04200464,-0.05370006
 ,-0.04007150,-0.00157963,0.00128760,0.00005916,0.00020375,0.00005952,-
 0.00013817,-0.00055480,0.24342771,-0.02819601,0.02337424,-0.01074203,-
 0.00355321,-0.00037770,-0.00265336,0.00079203,0.02660143,-0.13299808,0
 .03460322,-0.03968043,-0.03404285,-0.00055960,-0.00087582,0.00119157,-
 0.00012978,-0.00004829,-0.00012870,-0.00623443,-0.02362901,0.23212900,
 -0.00241111,0.00006256,-0.00310213,0.00051458,0.00066165,0.00010531,0.
 00165928,0.00298826,-0.00463764,-0.00275013,-0.00032295,0.00182318,-0.
 00015316,0.00048030,0.00054565,0.00003320,-0.00009889,-0.00005506,-0.1
 0136521,-0.01275374,-0.02156106,0.11722059,-0.00108114,0.00498936,-0.0
 0249705,0.00029302,0.00001771,-0.00017855,-0.00061546,-0.00099387,0.00
 049014,0.00124219,0.00062217,0.00117344,-0.00007258,0.00014403,0.00044
 780,-0.00000357,-0.00019603,-0.00006805,-0.00848229,-0.01384053,0.0003
 8833,0.02329329,0.08206688,0.00021408,-0.00025659,0.00074034,0.0003517
 9,-0.00045885,0.00012898,-0.00150379,-0.00110020,0.00021793,0.00124133
 ,0.00111709,0.00133460,0.00023888,-0.00012963,-0.00015862,-0.00003055,
 0.00000548,0.00000289,-0.02668583,0.00259220,-0.02158753,0.00543880,-0
 .11273934,0.19879184,0.00036757,-0.00022986,0.00065823,0.00013250,-0.0
 0025839,0.00001492,0.00002026,-0.00072595,0.00101559,0.00018809,0.0005
 5101,-0.00038688,0.00012236,-0.00010546,-0.00014884,-0.00002059,0.0000
 3193,0.00000024,-0.00021950,0.00551771,-0.00908522,-0.01087587,-0.0161
 2010,0.02612805,0.01260174,-0.00015862,-0.00157636,0.00095884,-0.00016
 875,0.00007737,-0.00006601,0.00076752,0.00086339,-0.00106763,0.0003381
 1,0.00008807,-0.00034502,0.00005814,-0.00005113,-0.00008666,0.00001387
 ,0.00005269,0.00000860,0.00077668,-0.00061467,0.00333719,-0.01320952,-
 0.07465541,0.11455448,0.01325874,0.07461154,0.00028987,-0.00089490,0.0
 0061907,-0.00015703,0.00001247,-0.00004541,0.00002040,0.00011967,-0.00
 004914,0.00021602,-0.00011289,-0.00007072,0.00000461,-0.00005481,-0.00
 007475,0.00001856,0.00003219,0.00000915,-0.00239072,0.00169265,-0.0041
 0886,0.02200683,0.11465161,-0.18234298,-0.01961345,-0.11638067,0.18569
 289,-0.00482473,0.00409168,0.00489440,-0.00417311,0.00397570,0.0010409
 5,0.00176402,-0.00423501,0.00482127,-0.00085139,-0.00149101,-0.0030428
 8,0.00068012,-0.00055937,0.00011029,0.00000669,0.00003437,0.00004253,-
 0.03187210,-0.04460488,0.00409919,0.00051213,-0.00137085,-0.00120641,-
 0.00113542,0.00042097,0.00082297,0.06754285,0.00099754,-0.00376416,-0.
 00015974,0.00275420,0.00030548,0.00143238,0.00156933,-0.00011914,0.008
 39898,0.00136964,-0.00578075,0.00070461,-0.00009999,0.00043355,0.00029
 322,0.00012089,-0.00004841,0.00007199,-0.04772305,-0.12738851,0.008973
 21,-0.00441392,0.00023412,-0.00312043,-0.00067160,0.00092751,0.0010303
 8,0.01449359,0.19755950,0.00171895,0.00001842,0.00009330,-0.00326725,0
 .00323570,0.00076351,0.00033033,0.00527840,0.00195572,-0.00165380,-0.0
 0157267,0.00341262,0.00043176,0.00049573,-0.00052666,0.00003449,0.0001
 2940,0.00006476,0.01062189,0.01210427,-0.01566085,0.00120436,-0.000565
 51,0.00080737,0.00026744,-0.00108064,-0.00019449,-0.01293079,-0.009463
 61,0.02048257,-0.00420067,-0.00983442,-0.00945709,-0.01328088,-0.00329
 993,-0.03716547,-0.00036885,0.00434310,0.00146516,-0.02387430,-0.04111
 629,-0.00055045,0.00034113,0.00305815,-0.00129797,-0.00060222,0.000748
 01,0.00064512,-0.05921082,-0.02882121,0.02907773,0.00008308,0.00477281
 ,-0.00467267,-0.00183315,-0.00234582,-0.00165281,-0.00966488,0.0355324
 8,-0.00201143,0.18816449,-0.01983191,-0.02479951,0.03453013,-0.0000606
 9,-0.00572462,0.00451315,0.00178322,-0.00551257,0.00263746,-0.03923469
 ,-0.06867804,-0.02201718,0.00058485,-0.00312335,0.00266835,0.00010687,
 -0.00110067,-0.00077319,-0.00790824,0.01055401,-0.00039591,0.00496717,
 0.00228818,-0.00114154,-0.00188972,0.00069292,0.00011435,0.02291847,-0
 .06741393,-0.00462089,0.04371391,0.25471855,-0.00168095,0.03253657,-0.
 04466328,-0.02488372,0.00117649,-0.12087162,0.00414432,-0.00116840,-0.
 00203617,-0.01660915,-0.02249096,-0.00948483,0.00006102,-0.00060320,-0
 .00099564,-0.00005072,-0.00009427,-0.00010564,0.01762391,0.00596622,-0
 .01821266,-0.00212636,-0.00167307,0.00296234,0.00131896,0.00056937,0.0
 0083927,-0.00007165,-0.00976372,-0.01391978,-0.00292031,-0.01105955,0.
 26002381,-0.00130776,-0.00599412,0.00341358,0.00167793,0.00206356,0.00
 195638,0.00081132,-0.00070824,-0.00055689,-0.00282893,-0.00201764,-0.0
 0056581,-0.00000624,-0.00022002,0.00048289,0.00007572,-0.00011828,-0.0
 0018115,0.00065180,0.00104369,-0.00118206,0.00020270,-0.00021848,0.000
 57383,-0.00000040,0.00014132,0.00007677,-0.00824997,-0.00617441,0.0043
 0861,-0.03865382,-0.01327824,0.01735956,0.10078836,-0.00370936,-0.0031
 3830,0.00307859,-0.00082450,-0.00027514,0.00248101,-0.00036237,0.00006
 063,-0.00018917,-0.00289550,0.00037271,0.00043415,0.00001508,0.0002652
 6,-0.00018607,-0.00009899,0.00011454,0.00001542,0.00012518,-0.00154654
 ,0.00027919,-0.00132346,-0.00021897,0.00023662,0.00029530,-0.00018052,
 -0.00001832,-0.00038609,0.00277992,-0.00002969,-0.02692877,-0.05131953
 ,0.01449529,-0.05579457,0.23927519,0.00113762,0.00070953,0.00319647,0.
 00195248,0.00320797,-0.00133791,0.00026703,-0.00014624,-0.00008830,0.0
 0545593,0.00607327,0.00152355,0.00008029,-0.00019329,0.00012887,-0.000
 01159,-0.00001686,-0.00000276,-0.00183589,0.00035164,0.00269420,0.0003
 3079,0.00045901,-0.00068955,-0.00025357,-0.00030880,-0.00022202,0.0028
 6391,0.00177166,0.00092167,0.01149463,0.00422834,-0.02763338,-0.068917
 05,0.06881916,0.07256853,-0.00041899,0.00015838,0.00076263,-0.00000642
 ,-0.00001016,-0.00003773,-0.00052788,0.00003116,0.00011887,-0.00013938
 ,0.00028441,-0.00071825,0.00001183,-0.00011456,-0.00011613,-0.00004189
 ,-0.00001125,0.00000273,-0.00033637,-0.00000842,0.00077036,-0.00012388
 ,-0.00022026,0.00003665,0.00007218,0.00007506,0.00005457,-0.00137726,-
 0.00073303,-0.00027699,0.00419148,-0.00847707,-0.00281257,-0.05502091,
 0.09004471,0.04807059,0.05390028,0.00001240,0.00060305,0.00014878,0.00
 005893,-0.00015630,0.00000358,-0.00006539,0.00002757,-0.00007234,0.000
 70933,0.00071773,0.00026150,0.00002304,-0.00000972,-0.00003626,-0.0000
 1408,0.00001283,0.00001257,0.00023299,-0.00080673,0.00091865,-0.000094
 43,0.00021395,-0.00026127,-0.00006653,-0.00017132,-0.00010052,-0.00033
 134,0.00193939,0.00003509,-0.00075641,-0.00987064,-0.00263048,0.081311
 15,-0.17445062,-0.08284861,-0.08065642,0.18269137,0.00010209,-0.000313
 07,-0.00005730,-0.00005333,0.00006350,0.00026680,-0.00039008,0.0000829
 0,0.00016597,-0.00076052,-0.00132415,-0.00102749,-0.00002997,-0.000079
 99,-0.00007343,-0.00001789,0.00000452,0.00001443,0.00147533,0.00111853
 ,-0.00062196,-0.00014205,-0.00045314,0.00018527,0.00014862,0.00026129,
 0.00020415,-0.00030154,0.00041335,-0.00068565,0.00236931,0.00500726,0.
 00213038,0.04492737,-0.08871753,-0.05142950,-0.04675608,0.08448889,0.0
 4998469,-0.00172819,-0.00073596,0.00377944,0.00119705,0.00048369,-0.00
 079130,0.00018327,-0.00008987,-0.00013411,-0.00919924,0.00364885,0.003
 99404,0.00009581,-0.00052452,0.00108891,-0.00006974,-0.00037210,-0.000
 14719,0.00104674,0.00184142,-0.00029426,-0.00030577,-0.00052765,0.0003
 6958,0.00036289,0.00020152,0.00016396,-0.00495908,0.00368625,-0.000653
 21,-0.03410627,-0.00127540,0.01367803,0.00295407,0.00006530,-0.0016127
 3,-0.00007993,-0.00093398,0.00009143,0.13151982,-0.00090809,-0.0013835
 1,0.00013342,0.00228898,0.00097242,-0.00076390,-0.00025754,0.00000926,
 -0.00000440,-0.00211827,-0.00006348,0.00122823,0.00010323,-0.00064626,
 0.00086044,-0.00078002,0.00090953,0.00081642,0.00145484,-0.00134827,0.
 00064090,0.00002291,0.00010462,0.00012834,0.00009088,-0.00017520,-0.00
 016944,0.00377029,0.00063483,0.00048067,0.01057893,-0.01667135,-0.0159
 8136,0.00113410,-0.01076387,-0.00065847,-0.00045036,-0.00035883,-0.000
 67236,0.09783835,0.20177832,0.00337477,0.00076758,-0.00286232,0.001588
 75,0.00010292,-0.00220491,-0.00020570,0.00081502,0.00044301,0.00052671
 ,0.00004001,0.00168043,0.00091963,0.00098509,0.00157600,-0.00055068,-0
 .00083434,-0.00004761,-0.00143803,-0.00203430,-0.00053917,0.00034055,-
 0.00013368,0.00030121,0.00001975,0.00006485,-0.00004777,0.00384356,-0.
 00264232,0.00016755,0.01125414,-0.00669918,-0.02284747,-0.00160911,-0.
 00039308,0.00110300,0.00077384,-0.00001652,0.00061289,0.02336645,0.069
 54350,0.11389746,-0.00009442,-0.00042131,-0.00081260,0.00031698,0.0006
 3754,0.00031452,0.00014332,0.00021607,-0.00000431,-0.00028682,0.000253
 06,0.00037696,-0.00010008,0.00002102,-0.00019948,-0.00011000,0.0002123
 5,0.00010627,-0.00088273,0.00054952,0.00027580,0.00012598,0.00024716,-
 0.00021039,-0.00013384,-0.00008284,-0.00004618,-0.00067680,-0.00077201
 ,0.00028267,0.00447012,0.00578970,0.00392622,-0.00022836,0.00022385,0.
 00017949,0.00005752,0.00028338,0.00001445,-0.08356913,-0.10783443,-0.0
 4260303,0.08154708,-0.00027530,-0.00013676,-0.00007029,-0.00035385,-0.
 00043929,0.00012233,-0.00006251,-0.00010662,0.00006199,0.00070040,0.00
 153556,0.00062601,-0.00014230,0.00022488,0.00017870,0.00021881,-0.0001
 3098,-0.00033806,-0.00061297,0.00037287,0.00046080,-0.00011839,-0.0002
 8853,0.00036093,0.00020631,0.00006675,0.00003919,-0.00031419,0.0001437
 4,-0.00037306,-0.00021773,-0.00648905,-0.00307475,0.00056103,-0.000081
 67,-0.00051282,0.00008020,-0.00016359,-0.00008713,-0.10121788,-0.16417
 749,-0.06151851,0.10041122,0.16641541,-0.00091850,-0.00067445,-0.00017
 834,0.00044004,0.00016575,0.00000931,0.00005714,0.00005197,-0.00018822
 ,0.00084672,0.00021926,0.00014215,0.00016651,0.00023835,-0.00110408,-0
 .00021294,0.00053270,0.00055806,0.00051050,-0.00026427,0.00004548,0.00
 001466,0.00008872,-0.00009154,-0.00001861,-0.00007473,-0.00005332,0.00
 016466,0.00069939,0.00017983,-0.00192990,-0.00239173,-0.00169620,0.000
 04964,-0.00060625,-0.00031406,-0.00004616,0.00022427,0.00043303,-0.035
 54551,-0.05672952,-0.02855445,0.03890084,0.06318171,0.03874108,-0.0494
 4839,-0.00802182,-0.00175871,-0.03158138,0.03829819,0.02418953,-0.0032
 8562,0.00246883,0.00250420,-0.00630416,0.00090786,0.00174795,-0.022271
 15,-0.03660494,0.00441046,0.00264778,-0.00405744,0.00003054,-0.0035047
 6,0.01083025,0.00041680,-0.00292685,-0.00157266,-0.00024048,0.00043903
 ,0.00000668,0.00026640,-0.00276469,-0.00013693,0.00191656,-0.01457375,
 0.01330577,-0.00937116,-0.00024646,0.00228760,0.00073215,-0.00003482,0
 .00026069,-0.00073847,-0.00668090,-0.00832500,0.00933792,-0.00053211,0
 .00098581,-0.00365718,0.17928905,-0.00522736,-0.01147696,0.00223403,0.
 03681990,-0.05524260,-0.04078009,0.00183771,0.00043950,0.00033204,0.00
 022426,0.00324920,0.00102791,-0.02368795,-0.04850488,0.01428594,-0.005
 78429,-0.01148842,-0.00029636,-0.00070146,-0.00042391,-0.00057311,0.00
 012399,-0.00065095,0.00030099,0.00013042,0.00021004,0.00012572,0.00280
 206,-0.00019303,-0.00475338,0.01587574,-0.01176870,0.01648984,-0.00160
 612,-0.00101734,-0.00098398,-0.00005145,-0.00021244,0.00021967,-0.0034
 9678,-0.01281310,-0.00594462,0.00110220,0.00387613,-0.00629026,-0.0187
 8799,0.18987479,0.00231983,0.00918547,-0.01738243,0.01945331,-0.030614
 51,-0.02297731,0.00108393,-0.00100383,0.00398414,-0.00282652,0.0015986
 0,-0.00326020,-0.01287979,-0.00253575,-0.01813481,0.00802423,0.0046401
 7,0.00212062,0.00308989,-0.00253208,0.00551145,-0.00131762,0.00069209,
 -0.00119154,-0.00010596,-0.00057449,-0.00018242,-0.00684532,0.00215161
 ,0.00281829,0.01295038,-0.01149059,-0.00097852,-0.00005398,0.00073927,
 -0.00060576,0.00010215,-0.00006316,-0.00037390,-0.00374495,-0.00466595
 ,-0.04887279,-0.00095655,0.00081943,-0.00879748,0.00117580,0.01295084,
 0.23628927,-0.00925537,-0.00102567,-0.00321835,-0.00355340,0.00905258,
 -0.00716898,0.00035083,0.00181722,0.00000526,0.00002671,0.00073217,-0.
 00079265,-0.00590543,-0.00256855,-0.00962347,0.00054913,0.00292814,-0.
 00024710,-0.00028107,-0.00580548,0.00092184,0.00143386,0.00067408,0.00
 020981,-0.00011973,-0.00006873,-0.00012446,0.00055814,-0.00005849,-0.0
 0057808,0.00268897,0.00060617,0.00369673,-0.00116633,-0.00153277,0.000
 20427,-0.00015831,0.00002662,0.00008965,0.00588746,0.00499193,-0.01054
 419,0.00000263,-0.00010721,0.00219014,-0.04203167,-0.01076900,0.011834
 89,0.22727799,0.00137541,0.00119281,-0.00628980,0.00773096,-0.00352611
 ,0.00839755,-0.00077303,-0.00028220,0.00107361,0.00051587,-0.00076578,
 -0.00005553,-0.00636631,-0.00247942,-0.01005917,0.00040817,0.00056372,
 -0.00139203,0.00157357,0.00004334,0.00106940,-0.00077864,0.00017506,-0
 .00029811,-0.00002273,-0.00024871,-0.00010141,0.00060781,-0.00009451,0
 .00092169,-0.00528559,0.00444332,-0.00431483,-0.00005418,0.00054817,-0
 .00004812,0.00007887,-0.00000691,-0.00002724,0.00200581,0.00702029,0.0
 1016052,-0.00115387,-0.00101611,0.00262875,-0.00065131,-0.06297393,0.0
 0406712,-0.07785751,0.14503529,-0.00333002,-0.00535196,0.01186393,-0.0
 0019372,0.00089466,-0.00098712,-0.00148609,0.00244783,-0.00418414,0.00
 090565,-0.00067821,0.00020520,-0.00302667,-0.00001003,-0.00259300,0.00
 068059,0.00363800,0.00026926,-0.00080485,-0.00267070,-0.00058468,0.003
 09290,0.00007241,0.00139762,0.00005321,0.00045411,0.00000426,0.0030365
 4,-0.00182728,-0.00102217,-0.01248653,0.01358325,-0.00310259,-0.000925
 53,-0.00158158,0.00058102,0.00013320,-0.00011922,0.00034691,-0.0047657
 2,0.00769004,-0.01546943,0.00079965,-0.00015350,0.00162355,0.00445682,
 -0.00841357,-0.08043108,0.34757965,-0.20341899,0.93409378,0.00248377,0
 .00079171,-0.00139857,0.00079822,-0.00194771,0.00203376,-0.00013792,-0
 .00071984,0.00060033,0.00006313,-0.00015999,0.00032338,0.00231171,0.00
 101027,0.00276064,-0.00024946,-0.00158623,0.00082963,0.00018933,0.0021
 5539,-0.00016135,-0.00087340,-0.00023751,-0.00025267,0.00003189,-0.000
 02433,0.00004368,-0.00051450,0.00025950,0.00025448,0.00043035,-0.00182
 018,-0.00128217,0.00054726,0.00079934,-0.00013834,0.00003275,0.0000000
 5,-0.00002833,-0.00254884,-0.00160074,0.00160468,-0.00004934,0.0002585
 6,-0.00101205,0.00381087,0.01119611,-0.03130374,-0.17630441,0.07864672
 ,-0.33371907,0.16997859,-0.00038401,-0.00063621,0.00207799,-0.00140415
 ,0.00052910,-0.00216729,0.00011601,0.00030377,-0.00060455,-0.00017822,
 0.00006942,0.00000388,0.00078354,0.00078319,0.00149209,0.00031409,0.00
 018870,0.00086280,-0.00030966,-0.00039562,-0.00046307,0.00051381,-0.00
 001179,0.00020983,0.00000801,0.00008303,0.00001471,0.00017779,-0.00015
 560,-0.00023991,-0.00001698,-0.00022502,0.00162082,-0.00007053,-0.0004
 2396,0.00009662,-0.00001983,0.00000121,0.00001470,-0.00059705,-0.00302
 789,-0.00226294,0.00031741,0.00039475,-0.00099968,0.00880639,0.0191166
 1,0.01663574,0.07896452,-0.08762829,0.19544473,-0.08702113,0.07103460,
 0.00201632,0.00204217,-0.00629647,0.00109966,-0.00036574,0.00177087,0.
 00014930,-0.00116713,0.00233105,-0.00004169,0.00020676,0.00018013,0.00
 245151,0.00017711,0.00184985,-0.00042562,-0.00261051,0.00044387,0.0005
 9195,0.00213584,0.00030902,-0.00196112,-0.00015516,-0.00080862,-0.0000
 1248,-0.00022408,0.00002309,-0.00134168,0.00103629,0.00034240,0.004888
 14,-0.00669253,0.00059200,0.00084294,0.00114300,-0.00039407,-0.0000616
 8,0.00005505,-0.00007529,0.00115716,-0.00187656,0.00166435,-0.00034433
 ,0.00027702,-0.00075479,-0.03541913,0.02006838,-0.04753553,-0.33443497
 ,0.19768659,-0.84201133,0.36084572,-0.21173648,0.88836946\\0.00000424,
 -0.00001929,-0.00000605,-0.00000717,0.00000322,-0.00000423,0.00000104,
 0.00000187,-0.00000077,-0.00000152,0.00000808,-0.00000235,-0.00000599,
 -0.00001708,-0.00000837,0.00000446,0.00001083,0.00000294,-0.00000400,-
 0.00000656,0.00000175,0.00000577,0.00000858,-0.00000027,-0.00000327,-0
 .00000153,-0.00000110,-0.00000568,0.00000225,-0.00000483,0.00002415,0.
 00000939,0.00002016,-0.00000836,0.00000070,-0.00001067,-0.00000093,0.0
 0000030,0.00000028,-0.00000342,0.00000617,-0.00000080,-0.00000025,-0.0
 0000021,0.00000018,0.00000237,-0.00001501,0.00000864,-0.00000181,0.000
 00700,0.00000360,0.00000035,0.00000129,0.00000189\\\@
 The archive entry for this job was punched.


 THOUGH I SPEAK WITH THE TONGUES OF MEN AND OF ANGELS, 
 AND HAVE NOT LOVE,
 I AM BECOME AS SOUNDING BRASS, A TINKLING CYMBAL.
 AND THOUGH I HAVE THE GIFT OF PROPHECY,
 AND UNDERSTAND ALL MYSTERIES, AND ALL KNOWLEDGE.
 AND THOUGH I HAVE ALL FAITH, SO THAT I COULD REMOVE MOUNTAINS,
 AND HAVE NOT LOVE, I AM NOTHING.
 AND THOUGH I BESTOW ALL MY GOODS TO FEED THE POOR,
 AND THOUGH I GIVE MY BODY TO BE BURNED,
 AND HAVE NOT LOVE IT PROFITETH ME NOTHING.
 LOVE SUFFERETH LONG, AND IS KIND,
 LOVE ENVIETH NOT,
 LOVE VAUNTETH NOT ITSELF, IS NOT PUFFED UP,
 DOTH NOT BEHAVE ITSELF UNSEEMLY, SEEKETH NOT HER OWN,
 IS NOT EASILY PROVOKED, THINKETH NO EVIL,
 REJOICETH NOT IN INIQUITY, BUT REJOICETH IN THE TRUTH,
 BEARETH ALL THINGS, BELIEVETH ALL THINGS,
 HOPETH ALL THINGS, ENDURETH ALL THINGS.
 LOVE NEVER FAILETH, BUT WHETHER THERE BE PROPHECIES, THEY SHALL FAIL, 
 WHETHER THERE BE TONGUES, THEY SHALL CEASE,
 WHETHER THERE BE KNOWLEDGE, IT SHALL VANISH AWAY.
 FOR WE KNOW IN PART, AND WE PROPHESY IN PART.
 BUT WHEN THAT WHICH IS PERFECT IS COME, THEN THAT WHICH IS IN PART 
 SHALL BE DONE AWAY. 
 WHEN I WAS A CHILD, I SPAKE AS A CHILD, I UNDERSTOOD AS A CHILD, 
 I THOUGHT AS A CHILD.
 BUT WHEN I BECAME A MAN, I PUT AWAY CHILDISH THINGS.
 FOR NOW WE SEE THROUGH A GLASS, DARKLY, BUT THEN FACE TO FACE.
 NOW I KNOW IN PART. BUT THEN SHALL I KNOW EVEN AS ALSO I AM KNOWN.
 AND NOW ABIDETH FAITH, HOPE AND LOVE, THESE THREE.
 BUT THE GREATEST OF THESE IS LOVE.

                     I CORINTHIANS 13
 Job cpu time:       0 days  0 hours 54 minutes 45.4 seconds.
 Elapsed time:       0 days  0 hours  1 minutes  9.3 seconds.
 File lengths (MBytes):  RWF=    286 Int=      0 D2E=      0 Chk=      9 Scr=      2
 Normal termination of Gaussian 16 at Mon Dec  5 17:17:25 2022.
