 Entering Gaussian System, Link 0=/apps/GAU16/avx2/g16/g16
 Initial command:
 /apps/GAU16/avx2//g16/l1.exe "/localscratch/chesayan/sagar/Gau-6739.inp" -scrdir="/localscratch/chesayan/sagar/"
 Entering Link 1 = /apps/GAU16/avx2//g16/l1.exe PID=      6742.
  
 Copyright (c) 1988-2019, Gaussian, Inc.  All Rights Reserved.
  
 This is part of the Gaussian(R) 16 program.  It is based on
 the Gaussian(R) 09 system (copyright 2009, Gaussian, Inc.),
 the Gaussian(R) 03 system (copyright 2003, Gaussian, Inc.),
 the Gaussian(R) 98 system (copyright 1998, Gaussian, Inc.),
 the Gaussian(R) 94 system (copyright 1995, Gaussian, Inc.),
 the Gaussian 92(TM) system (copyright 1992, Gaussian, Inc.),
 the Gaussian 90(TM) system (copyright 1990, Gaussian, Inc.),
 the Gaussian 88(TM) system (copyright 1988, Gaussian, Inc.),
 the Gaussian 86(TM) system (copyright 1986, Carnegie Mellon
 University), and the Gaussian 82(TM) system (copyright 1983,
 Carnegie Mellon University). Gaussian is a federally registered
 trademark of Gaussian, Inc.
  
 This software contains proprietary and confidential information,
 including trade secrets, belonging to Gaussian, Inc.
  
 This software is provided under written license and may be
 used, copied, transmitted, or stored only in accord with that
 written license.
  
 The following legend is applicable only to US Government
 contracts under FAR:
  
                    RESTRICTED RIGHTS LEGEND
  
 Use, reproduction and disclosure by the US Government is
 subject to restrictions as set forth in subparagraphs (a)
 and (c) of the Commercial Computer Software - Restricted
 Rights clause in FAR 52.227-19.
  
 Gaussian, Inc.
 340 Quinnipiac St., Bldg. 40, Wallingford CT 06492
  
  
 ---------------------------------------------------------------
 Warning -- This program may not be used in any manner that
 competes with the business of Gaussian, Inc. or will provide
 assistance to any competitor of Gaussian, Inc.  The licensee
 of this program is prohibited from giving any competitor of
 Gaussian, Inc. access to this program.  By using this program,
 the user acknowledges that Gaussian, Inc. is engaged in the
 business of creating and licensing software in the field of
 computational chemistry and represents and warrants to the
 licensee that it is not a competitor of Gaussian, Inc. and that
 it will not use this program in any manner prohibited above.
 ---------------------------------------------------------------
  

 Cite this work as:
 Gaussian 16, Revision C.01,
 M. J. Frisch, G. W. Trucks, H. B. Schlegel, G. E. Scuseria, 
 M. A. Robb, J. R. Cheeseman, G. Scalmani, V. Barone, 
 G. A. Petersson, H. Nakatsuji, X. Li, M. Caricato, A. V. Marenich, 
 J. Bloino, B. G. Janesko, R. Gomperts, B. Mennucci, H. P. Hratchian, 
 J. V. Ortiz, A. F. Izmaylov, J. L. Sonnenberg, D. Williams-Young, 
 F. Ding, F. Lipparini, F. Egidi, J. Goings, B. Peng, A. Petrone, 
 T. Henderson, D. Ranasinghe, V. G. Zakrzewski, J. Gao, N. Rega, 
 G. Zheng, W. Liang, M. Hada, M. Ehara, K. Toyota, R. Fukuda, 
 J. Hasegawa, M. Ishida, T. Nakajima, Y. Honda, O. Kitao, H. Nakai, 
 T. Vreven, K. Throssell, J. A. Montgomery, Jr., J. E. Peralta, 
 F. Ogliaro, M. J. Bearpark, J. J. Heyd, E. N. Brothers, K. N. Kudin, 
 V. N. Staroverov, T. A. Keith, R. Kobayashi, J. Normand, 
 K. Raghavachari, A. P. Rendell, J. C. Burant, S. S. Iyengar, 
 J. Tomasi, M. Cossi, J. M. Millam, M. Klene, C. Adamo, R. Cammi, 
 J. W. Ochterski, R. L. Martin, K. Morokuma, O. Farkas, 
 J. B. Foresman, and D. J. Fox, Gaussian, Inc., Wallingford CT, 2019.
 
 ******************************************
 Gaussian 16:  ES64L-G16RevC.01  3-Jul-2019
                 5-Dec-2022 
 ******************************************
 %nprocshared=48
 Will use up to   48 processors via shared memory.
 %mem=100GB
 ---------------------------------------
 # opt freq b3lyp/gen nosymm pseudo=read
 ---------------------------------------
 1/18=20,19=15,26=3,38=1/1,3;
 2/9=110,12=2,15=1,17=6,18=5,40=1/2;
 3/5=7,11=2,16=1,17=8,25=1,30=1,71=1,74=-5/1,2,3;
 4//1;
 5/5=2,38=5/2;
 6/7=2,8=2,9=2,10=2,28=1/1;
 7/30=1/1,2,3,16;
 1/18=20,19=15,26=3/3(2);
 2/9=110,15=1/2;
 99//99;
 2/9=110,15=1/2;
 3/5=7,6=1,11=2,16=1,17=8,25=1,30=1,71=1,74=-5,82=7/1,2,3;
 4/5=5,16=3,69=1/1;
 5/5=2,38=5/2;
 7/30=1/1,2,3,16;
 1/18=20,19=15,26=3/3(-5);
 2/9=110,15=1/2;
 6/7=2,8=2,9=2,10=2,19=2,28=1/1;
 99/9=1/99;
 -------------------
 Title Card Required
 -------------------
 Symbolic Z-matrix:
 Charge =  0 Multiplicity = 1
 42                    0.19563   1.43208   11.46677 
 16                    1.20855   3.58449   11.64482 
 16                   -1.45912   1.96837   13.07701 
 16                   -1.05664   1.21883   9.47139 
 16                    1.90427  -0.2546    10.69478 
 1                     2.65397  -0.63154   11.76742 
 42                   -2.23662   2.61343   10.99114 
 16                   -4.32915   1.79392   10.31772 
 1                    -4.10222   0.77095   9.46913 
 16                   -1.74149   4.74497   10.43253 
 42                    0.07209   3.37553   9.58374 
 16                    1.05215   5.31562   8.4995 
 1                     0.47224   6.3484    9.14438 
 16                    1.75634   2.2164    8.04109 
 1                     1.18648   1.01293   7.77491 
 42                    2.48544   2.07651   10.33875 
 16                    4.21784   1.92113   12.23389 
 1                     5.40407   2.34376   11.73314 
 1                     4.59668   0.62292   12.2257 
 

 GradGradGradGradGradGradGradGradGradGradGradGradGradGradGradGradGradGrad
 Berny optimization.
 Initialization pass.
                           ----------------------------
                           !    Initial Parameters    !
                           ! (Angstroms and Degrees)  !
 --------------------------                            --------------------------
 ! Name  Definition              Value          Derivative Info.                !
 --------------------------------------------------------------------------------
 ! R1    R(1,2)                  2.3855         estimate D2E/DX2                !
 ! R2    R(1,3)                  2.3704         estimate D2E/DX2                !
 ! R3    R(1,4)                  2.3654         estimate D2E/DX2                !
 ! R4    R(1,5)                  2.522          estimate D2E/DX2                !
 ! R5    R(1,7)                  2.7455         estimate D2E/DX2                !
 ! R6    R(1,11)                 2.7089         estimate D2E/DX2                !
 ! R7    R(1,16)                 2.6327         estimate D2E/DX2                !
 ! R8    R(2,11)                 2.3629         estimate D2E/DX2                !
 ! R9    R(2,16)                 2.3686         estimate D2E/DX2                !
 ! R10   R(3,7)                  2.3176         estimate D2E/DX2                !
 ! R11   R(4,7)                  2.3763         estimate D2E/DX2                !
 ! R12   R(4,11)                 2.4368         estimate D2E/DX2                !
 ! R13   R(5,6)                  1.3619         estimate D2E/DX2                !
 ! R14   R(5,16)                 2.4287         estimate D2E/DX2                !
 ! R15   R(7,8)                  2.346          estimate D2E/DX2                !
 ! R16   R(7,10)                 2.2585         estimate D2E/DX2                !
 ! R17   R(7,11)                 2.8092         estimate D2E/DX2                !
 ! R18   R(8,9)                  1.3484         estimate D2E/DX2                !
 ! R19   R(10,11)                2.4259         estimate D2E/DX2                !
 ! R20   R(11,12)                2.429          estimate D2E/DX2                !
 ! R21   R(11,14)                2.5613         estimate D2E/DX2                !
 ! R22   R(11,16)                2.8428         estimate D2E/DX2                !
 ! R23   R(12,13)                1.3486         estimate D2E/DX2                !
 ! R24   R(14,15)                1.3579         estimate D2E/DX2                !
 ! R25   R(14,16)                2.4146         estimate D2E/DX2                !
 ! R26   R(16,17)                2.5723         estimate D2E/DX2                !
 ! R27   R(17,18)                1.3552         estimate D2E/DX2                !
 ! R28   R(17,19)                1.3524         estimate D2E/DX2                !
 ! A1    A(2,1,3)               92.3829         estimate D2E/DX2                !
 ! A2    A(2,1,4)              111.66           estimate D2E/DX2                !
 ! A3    A(2,1,5)              109.7927         estimate D2E/DX2                !
 ! A4    A(2,1,7)               90.0489         estimate D2E/DX2                !
 ! A5    A(3,1,4)              102.9365         estimate D2E/DX2                !
 ! A6    A(3,1,5)              146.3275         estimate D2E/DX2                !
 ! A7    A(3,1,11)             106.1445         estimate D2E/DX2                !
 ! A8    A(3,1,16)             147.4441         estimate D2E/DX2                !
 ! A9    A(4,1,5)               92.3016         estimate D2E/DX2                !
 ! A10   A(4,1,16)              96.9547         estimate D2E/DX2                !
 ! A11   A(5,1,7)              146.611          estimate D2E/DX2                !
 ! A12   A(5,1,11)             107.3333         estimate D2E/DX2                !
 ! A13   A(7,1,16)             126.2266         estimate D2E/DX2                !
 ! A14   A(1,5,6)              108.48           estimate D2E/DX2                !
 ! A15   A(6,5,16)             104.4414         estimate D2E/DX2                !
 ! A16   A(1,7,8)              133.5992         estimate D2E/DX2                !
 ! A17   A(1,7,10)             104.758          estimate D2E/DX2                !
 ! A18   A(3,7,4)              104.2207         estimate D2E/DX2                !
 ! A19   A(3,7,8)              117.4092         estimate D2E/DX2                !
 ! A20   A(3,7,10)             114.3145         estimate D2E/DX2                !
 ! A21   A(3,7,11)             104.5187         estimate D2E/DX2                !
 ! A22   A(4,7,8)               93.114          estimate D2E/DX2                !
 ! A23   A(4,7,10)             106.6691         estimate D2E/DX2                !
 ! A24   A(8,7,10)             117.0157         estimate D2E/DX2                !
 ! A25   A(8,7,11)             133.1564         estimate D2E/DX2                !
 ! A26   A(7,8,9)              107.1911         estimate D2E/DX2                !
 ! A27   A(1,11,10)            101.296          estimate D2E/DX2                !
 ! A28   A(1,11,12)            149.8732         estimate D2E/DX2                !
 ! A29   A(1,11,14)             93.6697         estimate D2E/DX2                !
 ! A30   A(2,11,4)             109.9542         estimate D2E/DX2                !
 ! A31   A(2,11,7)              88.9834         estimate D2E/DX2                !
 ! A32   A(2,11,10)             90.2546         estimate D2E/DX2                !
 ! A33   A(2,11,12)             97.1614         estimate D2E/DX2                !
 ! A34   A(2,11,14)            104.4255         estimate D2E/DX2                !
 ! A35   A(4,11,10)             99.7569         estimate D2E/DX2                !
 ! A36   A(4,11,12)            150.8352         estimate D2E/DX2                !
 ! A37   A(4,11,14)             82.8933         estimate D2E/DX2                !
 ! A38   A(4,11,16)             90.0599         estimate D2E/DX2                !
 ! A39   A(7,11,12)            140.5253         estimate D2E/DX2                !
 ! A40   A(7,11,14)            136.0051         estimate D2E/DX2                !
 ! A41   A(7,11,16)            116.1456         estimate D2E/DX2                !
 ! A42   A(10,11,12)            90.3974         estimate D2E/DX2                !
 ! A43   A(10,11,14)           163.3008         estimate D2E/DX2                !
 ! A44   A(10,11,16)           143.0993         estimate D2E/DX2                !
 ! A45   A(12,11,14)            80.0549         estimate D2E/DX2                !
 ! A46   A(12,11,16)            98.1055         estimate D2E/DX2                !
 ! A47   A(11,12,13)           102.9861         estimate D2E/DX2                !
 ! A48   A(11,14,15)           104.0754         estimate D2E/DX2                !
 ! A49   A(15,14,16)           105.1825         estimate D2E/DX2                !
 ! A50   A(1,16,14)             99.1644         estimate D2E/DX2                !
 ! A51   A(1,16,17)            104.792          estimate D2E/DX2                !
 ! A52   A(2,16,5)             113.6558         estimate D2E/DX2                !
 ! A53   A(2,16,14)            108.9676         estimate D2E/DX2                !
 ! A54   A(2,16,17)             89.7292         estimate D2E/DX2                !
 ! A55   A(5,16,11)            105.9248         estimate D2E/DX2                !
 ! A56   A(5,16,14)             97.0562         estimate D2E/DX2                !
 ! A57   A(5,16,17)             89.7241         estimate D2E/DX2                !
 ! A58   A(11,16,17)           142.6545         estimate D2E/DX2                !
 ! A59   A(14,16,17)           155.2179         estimate D2E/DX2                !
 ! A60   A(16,17,18)           107.3639         estimate D2E/DX2                !
 ! A61   A(16,17,19)           104.0149         estimate D2E/DX2                !
 ! A62   A(18,17,19)            92.9764         estimate D2E/DX2                !
 ! D1    D(2,1,5,6)             80.3151         estimate D2E/DX2                !
 ! D2    D(3,1,5,6)            -47.9919         estimate D2E/DX2                !
 ! D3    D(4,1,5,6)           -165.6651         estimate D2E/DX2                !
 ! D4    D(7,1,5,6)           -156.4783         estimate D2E/DX2                !
 ! D5    D(11,1,5,6)           138.3727         estimate D2E/DX2                !
 ! D6    D(2,1,7,8)            170.7485         estimate D2E/DX2                !
 ! D7    D(2,1,7,10)            16.6574         estimate D2E/DX2                !
 ! D8    D(5,1,7,8)             42.6798         estimate D2E/DX2                !
 ! D9    D(5,1,7,10)          -111.4112         estimate D2E/DX2                !
 ! D10   D(16,1,7,8)           124.4851         estimate D2E/DX2                !
 ! D11   D(16,1,7,10)          -29.606          estimate D2E/DX2                !
 ! D12   D(3,1,11,10)           -1.1481         estimate D2E/DX2                !
 ! D13   D(3,1,11,12)          109.8478         estimate D2E/DX2                !
 ! D14   D(3,1,11,14)         -173.7012         estimate D2E/DX2                !
 ! D15   D(5,1,11,10)          175.1833         estimate D2E/DX2                !
 ! D16   D(5,1,11,12)          -73.8208         estimate D2E/DX2                !
 ! D17   D(5,1,11,14)            2.6302         estimate D2E/DX2                !
 ! D18   D(3,1,16,14)         -122.8626         estimate D2E/DX2                !
 ! D19   D(3,1,16,17)           63.536          estimate D2E/DX2                !
 ! D20   D(4,1,16,14)            4.7391         estimate D2E/DX2                !
 ! D21   D(4,1,16,17)         -168.8623         estimate D2E/DX2                !
 ! D22   D(7,1,16,14)          -46.181          estimate D2E/DX2                !
 ! D23   D(7,1,16,17)          140.2176         estimate D2E/DX2                !
 ! D24   D(1,2,11,16)          -71.2296         estimate D2E/DX2                !
 ! D25   D(1,4,7,11)            73.1879         estimate D2E/DX2                !
 ! D26   D(6,5,16,2)           -86.0317         estimate D2E/DX2                !
 ! D27   D(6,5,16,11)         -142.0727         estimate D2E/DX2                !
 ! D28   D(6,5,16,14)          159.6515         estimate D2E/DX2                !
 ! D29   D(6,5,16,17)            3.5518         estimate D2E/DX2                !
 ! D30   D(1,7,8,9)            -34.4723         estimate D2E/DX2                !
 ! D31   D(3,7,8,9)           -101.0627         estimate D2E/DX2                !
 ! D32   D(4,7,8,9)              6.7161         estimate D2E/DX2                !
 ! D33   D(10,7,8,9)           117.2152         estimate D2E/DX2                !
 ! D34   D(11,7,8,9)            49.7851         estimate D2E/DX2                !
 ! D35   D(3,7,11,2)           -18.6057         estimate D2E/DX2                !
 ! D36   D(3,7,11,12)         -118.66           estimate D2E/DX2                !
 ! D37   D(3,7,11,14)           91.2916         estimate D2E/DX2                !
 ! D38   D(3,7,11,16)           28.8076         estimate D2E/DX2                !
 ! D39   D(8,7,11,2)          -172.0727         estimate D2E/DX2                !
 ! D40   D(8,7,11,12)           87.8729         estimate D2E/DX2                !
 ! D41   D(8,7,11,14)          -62.1755         estimate D2E/DX2                !
 ! D42   D(8,7,11,16)         -124.6594         estimate D2E/DX2                !
 ! D43   D(1,11,12,13)         -94.9576         estimate D2E/DX2                !
 ! D44   D(2,11,12,13)         -71.547          estimate D2E/DX2                !
 ! D45   D(4,11,12,13)         129.8714         estimate D2E/DX2                !
 ! D46   D(7,11,12,13)          25.6009         estimate D2E/DX2                !
 ! D47   D(10,11,12,13)         18.7596         estimate D2E/DX2                !
 ! D48   D(14,11,12,13)       -175.0136         estimate D2E/DX2                !
 ! D49   D(16,11,12,13)       -125.2148         estimate D2E/DX2                !
 ! D50   D(1,11,14,15)          59.1755         estimate D2E/DX2                !
 ! D51   D(2,11,14,15)         114.5703         estimate D2E/DX2                !
 ! D52   D(4,11,14,15)           5.7237         estimate D2E/DX2                !
 ! D53   D(7,11,14,15)          10.6812         estimate D2E/DX2                !
 ! D54   D(10,11,14,15)        -94.5731         estimate D2E/DX2                !
 ! D55   D(12,11,14,15)       -150.52           estimate D2E/DX2                !
 ! D56   D(4,11,16,5)           -7.2856         estimate D2E/DX2                !
 ! D57   D(4,11,16,17)        -118.7346         estimate D2E/DX2                !
 ! D58   D(7,11,16,5)           41.0098         estimate D2E/DX2                !
 ! D59   D(7,11,16,17)         -70.4391         estimate D2E/DX2                !
 ! D60   D(10,11,16,5)          99.1918         estimate D2E/DX2                !
 ! D61   D(10,11,16,17)        -12.2571         estimate D2E/DX2                !
 ! D62   D(12,11,16,5)        -159.1924         estimate D2E/DX2                !
 ! D63   D(12,11,16,17)         89.3587         estimate D2E/DX2                !
 ! D64   D(15,14,16,1)         -55.4997         estimate D2E/DX2                !
 ! D65   D(15,14,16,2)        -113.2978         estimate D2E/DX2                !
 ! D66   D(15,14,16,5)           4.7403         estimate D2E/DX2                !
 ! D67   D(15,14,16,17)        109.6046         estimate D2E/DX2                !
 ! D68   D(1,16,17,18)        -175.382          estimate D2E/DX2                !
 ! D69   D(1,16,17,19)          86.9101         estimate D2E/DX2                !
 ! D70   D(2,16,17,18)        -120.0894         estimate D2E/DX2                !
 ! D71   D(2,16,17,19)         142.2028         estimate D2E/DX2                !
 ! D72   D(5,16,17,18)         126.2528         estimate D2E/DX2                !
 ! D73   D(5,16,17,19)          28.545          estimate D2E/DX2                !
 ! D74   D(11,16,17,18)       -117.2601         estimate D2E/DX2                !
 ! D75   D(11,16,17,19)        145.0321         estimate D2E/DX2                !
 ! D76   D(14,16,17,18)         19.8352         estimate D2E/DX2                !
 ! D77   D(14,16,17,19)        -77.8727         estimate D2E/DX2                !
 --------------------------------------------------------------------------------
 Trust Radius=3.00D-01 FncErr=1.00D-07 GrdErr=1.00D-06 EigMax=2.50D+02 EigMin=1.00D-04
 Number of steps in this run=    114 maximum allowed number of steps=    114.
 GradGradGradGradGradGradGradGradGradGradGradGradGradGradGradGradGradGrad

                          Input orientation:                          
 ---------------------------------------------------------------------
 Center     Atomic      Atomic             Coordinates (Angstroms)
 Number     Number       Type             X           Y           Z
 ---------------------------------------------------------------------
      1         42           0        0.195632    1.432075   11.466771
      2         16           0        1.208550    3.584488   11.644819
      3         16           0       -1.459115    1.968365   13.077012
      4         16           0       -1.056636    1.218832    9.471386
      5         16           0        1.904266   -0.254599   10.694778
      6          1           0        2.653967   -0.631541   11.767418
      7         42           0       -2.236621    2.613431   10.991142
      8         16           0       -4.329152    1.793924   10.317725
      9          1           0       -4.102223    0.770950    9.469134
     10         16           0       -1.741491    4.744973   10.432532
     11         42           0        0.072093    3.375529    9.583740
     12         16           0        1.052151    5.315619    8.499499
     13          1           0        0.472242    6.348397    9.144384
     14         16           0        1.756335    2.216401    8.041090
     15          1           0        1.186484    1.012926    7.774910
     16         42           0        2.485438    2.076506   10.338753
     17         16           0        4.217842    1.921133   12.233894
     18          1           0        5.404073    2.343760   11.733135
     19          1           0        4.596681    0.622920   12.225696
 ---------------------------------------------------------------------
                    Distance matrix (angstroms):
                    1          2          3          4          5
     1  Mo   0.000000
     2  S    2.385495   0.000000
     3  S    2.370374   3.432123   0.000000
     4  S    2.365419   3.930802   3.704636   0.000000
     5  S    2.521958   4.015618   4.682835   3.526277   0.000000
     6  H    3.223711   4.458605   5.039047   4.739643   1.361871
     7  Mo   2.745483   3.638605   2.317645   2.376327   5.045827
     8  S    4.682404   5.969375   3.985123   3.428758   6.572223
     9  H    4.785311   6.391706   4.629968   3.078344   6.215454
    10  S    3.974593   3.393981   3.844810   3.718400   6.193225
    11  Mo   2.708889   2.362889   4.065422   2.436800   4.215340
    12  S    4.961879   3.593649   6.201951   4.709056   6.047535
    13  H    5.444283   3.799147   6.195190   5.362540   6.932097
    14  S    3.845290   3.893404   5.980063   3.309637   3.629020
    15  H    3.845427   4.646462   6.002028   2.819932   3.263045
    16  Mo   2.632665   2.368599   4.803046   3.746227   2.428696
    17  S    4.123812   3.488495   5.739418   5.995398   3.529210
    18  H    5.294334   4.376028   7.003590   6.936983   4.480882
    19  H    4.538715   4.537371   6.261599   6.316750   3.219138
                    6          7          8          9         10
     6  H    0.000000
     7  Mo   5.920329   0.000000
     8  S    7.533156   2.346011   0.000000
     9  H    7.272908   3.031784   1.348362   0.000000
    10  S    7.071695   2.258466   3.926558   4.721658   0.000000
    11  Mo   5.243199   2.809223   4.734043   4.921573   2.425884
    12  S    6.972361   4.932152   6.683315   6.939869   3.444806
    13  H    7.769155   4.969751   6.721111   7.220741   3.021739
    14  S    4.775148   4.980375   6.511122   6.200914   4.934314
    15  H    4.560471   4.962198   6.123570   5.558720   5.437294
    16  Mo   3.066432   4.797055   6.820479   6.771853   4.999644
    17  S    3.029760   6.609372   8.760079   8.842528   6.836127
    18  H    4.051749   7.681372   9.850958   9.897934   7.649606
    19  H    2.357504   7.223591   9.202288   9.126416   7.770404
                   11         12         13         14         15
    11  Mo   0.000000
    12  S    2.429000   0.000000
    13  H    3.031682   1.348629   0.000000
    14  S    2.561253   3.211100   4.465372   0.000000
    15  H    3.177362   4.365346   5.554534   1.357915   0.000000
    16  Mo   2.842840   3.991118   4.871194   2.414626   3.064600
    17  S    5.130869   5.957335   6.570788   4.870914   5.467770
    18  H    5.840758   6.182845   6.860154   5.191667   5.935210
    19  H    5.918504   6.962016   7.699777   5.302610   5.620591
                   16         17         18         19
    16  Mo   0.000000
    17  S    2.572338   0.000000
    18  H    3.245636   1.355182   0.000000
    19  H    3.182894   1.352384   1.963616   0.000000
 Symmetry turned off by external request.
 Stoichiometry    H6Mo4S9
 Framework group  C1[X(H6Mo4S9)]
 Deg. of freedom    51
 Full point group                 C1      NOp   1
 Rotational constants (GHZ):           0.2641447           0.1461776           0.1214442
 General basis read from cards:  (5D, 7F)
 ======================================================================================================
                                       Pseudopotential Parameters
 ======================================================================================================
  Center     Atomic      Valence      Angular      Power
  Number     Number     Electrons     Momentum     of R      Exponent        Coefficient   SO-Coeffient
 ======================================================================================================
    1         42           14
                                      F and up 
                                                     0      537.9667807       -0.04694920    0.00000000
                                                     1      147.8982938      -20.20800840    0.00000000
                                                     2       45.7358898     -106.21163020    0.00000000
                                                     2       13.2911467      -41.81073680    0.00000000
                                                     2        4.7059961       -4.20541030    0.00000000
                                      S - F
                                                     0      110.2991760        2.80637170    0.00000000
                                                     1       23.2014645       44.51620120    0.00000000
                                                     2        5.3530131       82.77852270    0.00000000
                                      P - F
                                                     0       63.2901397        4.94208760    0.00000000
                                                     1       23.3315302       25.86049760    0.00000000
                                                     2       24.6759423      132.47087420    0.00000000
                                                     2        4.6493040       57.31497940    0.00000000
                                      D - F
                                                     0      104.4839977        3.00545910    0.00000000
                                                     1       66.2307245       26.36378510    0.00000000
                                                     2       39.1283176      183.38491990    0.00000000
                                                     2       13.1164437       98.44530680    0.00000000
                                                     2        3.6280263       22.49013770    0.00000000
    2         16
                                   No pseudopotential on this center.
    3         16
                                   No pseudopotential on this center.
    4         16
                                   No pseudopotential on this center.
    5         16
                                   No pseudopotential on this center.
    6          1
                                   No pseudopotential on this center.
    7         42           14
                                      F and up 
                                                     0      537.9667807       -0.04694920    0.00000000
                                                     1      147.8982938      -20.20800840    0.00000000
                                                     2       45.7358898     -106.21163020    0.00000000
                                                     2       13.2911467      -41.81073680    0.00000000
                                                     2        4.7059961       -4.20541030    0.00000000
                                      S - F
                                                     0      110.2991760        2.80637170    0.00000000
                                                     1       23.2014645       44.51620120    0.00000000
                                                     2        5.3530131       82.77852270    0.00000000
                                      P - F
                                                     0       63.2901397        4.94208760    0.00000000
                                                     1       23.3315302       25.86049760    0.00000000
                                                     2       24.6759423      132.47087420    0.00000000
                                                     2        4.6493040       57.31497940    0.00000000
                                      D - F
                                                     0      104.4839977        3.00545910    0.00000000
                                                     1       66.2307245       26.36378510    0.00000000
                                                     2       39.1283176      183.38491990    0.00000000
                                                     2       13.1164437       98.44530680    0.00000000
                                                     2        3.6280263       22.49013770    0.00000000
    8         16
                                   No pseudopotential on this center.
    9          1
                                   No pseudopotential on this center.
   10         16
                                   No pseudopotential on this center.
   11         42           14
                                      F and up 
                                                     0      537.9667807       -0.04694920    0.00000000
                                                     1      147.8982938      -20.20800840    0.00000000
                                                     2       45.7358898     -106.21163020    0.00000000
                                                     2       13.2911467      -41.81073680    0.00000000
                                                     2        4.7059961       -4.20541030    0.00000000
                                      S - F
                                                     0      110.2991760        2.80637170    0.00000000
                                                     1       23.2014645       44.51620120    0.00000000
                                                     2        5.3530131       82.77852270    0.00000000
                                      P - F
                                                     0       63.2901397        4.94208760    0.00000000
                                                     1       23.3315302       25.86049760    0.00000000
                                                     2       24.6759423      132.47087420    0.00000000
                                                     2        4.6493040       57.31497940    0.00000000
                                      D - F
                                                     0      104.4839977        3.00545910    0.00000000
                                                     1       66.2307245       26.36378510    0.00000000
                                                     2       39.1283176      183.38491990    0.00000000
                                                     2       13.1164437       98.44530680    0.00000000
                                                     2        3.6280263       22.49013770    0.00000000
   12         16
                                   No pseudopotential on this center.
   13          1
                                   No pseudopotential on this center.
   14         16
                                   No pseudopotential on this center.
   15          1
                                   No pseudopotential on this center.
   16         42           14
                                      F and up 
                                                     0      537.9667807       -0.04694920    0.00000000
                                                     1      147.8982938      -20.20800840    0.00000000
                                                     2       45.7358898     -106.21163020    0.00000000
                                                     2       13.2911467      -41.81073680    0.00000000
                                                     2        4.7059961       -4.20541030    0.00000000
                                      S - F
                                                     0      110.2991760        2.80637170    0.00000000
                                                     1       23.2014645       44.51620120    0.00000000
                                                     2        5.3530131       82.77852270    0.00000000
                                      P - F
                                                     0       63.2901397        4.94208760    0.00000000
                                                     1       23.3315302       25.86049760    0.00000000
                                                     2       24.6759423      132.47087420    0.00000000
                                                     2        4.6493040       57.31497940    0.00000000
                                      D - F
                                                     0      104.4839977        3.00545910    0.00000000
                                                     1       66.2307245       26.36378510    0.00000000
                                                     2       39.1283176      183.38491990    0.00000000
                                                     2       13.1164437       98.44530680    0.00000000
                                                     2        3.6280263       22.49013770    0.00000000
   17         16
                                   No pseudopotential on this center.
   18          1
                                   No pseudopotential on this center.
   19          1
                                   No pseudopotential on this center.
 ======================================================================================================
   280 basis functions,   706 primitive gaussians,   297 cartesian basis functions
   103 alpha electrons      103 beta electrons
       nuclear repulsion energy      2801.5509778986 Hartrees.
 NAtoms=   19 NActive=   19 NUniq=   19 SFac= 1.00D+00 NAtFMM=   60 NAOKFM=F Big=F
 Integral buffers will be    131072 words long.
 Raffenetti 2 integral format.
 Two-electron integral symmetry is turned off.
 One-electron integrals computed using PRISM.
   1 Symmetry operations used in ECPInt.
 ECPInt:  NShTT=    4560 NPrTT=   31993 LenC2=    4181 LenP2D=   20033.
 LDataN:  DoStor=T MaxTD1= 5 Len=  102
 NBasis=   280 RedAO= T EigKep=  9.98D-04  NBF=   280
 NBsUse=   280 1.00D-06 EigRej= -1.00D+00 NBFU=   280
 Defaulting to unpruned grid for atomic number  42.
 Defaulting to unpruned grid for atomic number  42.
 Defaulting to unpruned grid for atomic number  42.
 Defaulting to unpruned grid for atomic number  42.
 ExpMin= 2.47D-02 ExpMax= 2.19D+04 ExpMxC= 3.30D+03 IAcc=3 IRadAn=         5 AccDes= 0.00D+00
 Harris functional with IExCor=  402 and IRadAn=       5 diagonalized for initial guess.
 HarFok:  IExCor=  402 AccDes= 0.00D+00 IRadAn=         5 IDoV= 1 UseB2=F ITyADJ=14
 ICtDFT=  3500011 ScaDFX=  1.000000  1.000000  1.000000  1.000000
 Defaulting to unpruned grid for atomic number  42.
 FoFCou: FMM=F IPFlag=           0 FMFlag=      100000 FMFlg1=           0
         NFxFlg=           0 DoJE=T BraDBF=F KetDBF=T FulRan=T
         wScrn=  0.000000 ICntrl=       500 IOpCl=  0 I1Cent=   200000004 NGrid=           0
         NMat0=    1 NMatS0=      1 NMatT0=    0 NMatD0=    1 NMtDS0=    0 NMtDT0=    0
 Symmetry not used in FoFCou.
 Requested convergence on RMS density matrix=1.00D-08 within 128 cycles.
 Requested convergence on MAX density matrix=1.00D-06.
 Requested convergence on             energy=1.00D-06.
 No special actions if energy rises.
 Defaulting to unpruned grid for atomic number  42.
 Defaulting to unpruned grid for atomic number  42.
 Defaulting to unpruned grid for atomic number  42.
 Defaulting to unpruned grid for atomic number  42.
 Defaulting to unpruned grid for atomic number  42.
 Defaulting to unpruned grid for atomic number  42.
 Defaulting to unpruned grid for atomic number  42.
 Defaulting to unpruned grid for atomic number  42.
 Defaulting to unpruned grid for atomic number  42.
 Defaulting to unpruned grid for atomic number  42.
 Defaulting to unpruned grid for atomic number  42.
 Defaulting to unpruned grid for atomic number  42.
 Defaulting to unpruned grid for atomic number  42.
 Defaulting to unpruned grid for atomic number  42.
 Defaulting to unpruned grid for atomic number  42.
 Defaulting to unpruned grid for atomic number  42.
 Defaulting to unpruned grid for atomic number  42.
 Defaulting to unpruned grid for atomic number  42.
 Defaulting to unpruned grid for atomic number  42.
 Defaulting to unpruned grid for atomic number  42.
 Defaulting to unpruned grid for atomic number  42.
 Defaulting to unpruned grid for atomic number  42.
 Defaulting to unpruned grid for atomic number  42.
 Defaulting to unpruned grid for atomic number  42.
 Defaulting to unpruned grid for atomic number  42.
 Defaulting to unpruned grid for atomic number  42.
 Defaulting to unpruned grid for atomic number  42.
 Defaulting to unpruned grid for atomic number  42.
 Defaulting to unpruned grid for atomic number  42.
 Defaulting to unpruned grid for atomic number  42.
 Defaulting to unpruned grid for atomic number  42.
 Defaulting to unpruned grid for atomic number  42.
 Defaulting to unpruned grid for atomic number  42.
 Defaulting to unpruned grid for atomic number  42.
 Defaulting to unpruned grid for atomic number  42.
 Defaulting to unpruned grid for atomic number  42.
 Defaulting to unpruned grid for atomic number  42.
 Defaulting to unpruned grid for atomic number  42.
 Defaulting to unpruned grid for atomic number  42.
 Defaulting to unpruned grid for atomic number  42.
 Defaulting to unpruned grid for atomic number  42.
 Defaulting to unpruned grid for atomic number  42.
 Defaulting to unpruned grid for atomic number  42.
 Defaulting to unpruned grid for atomic number  42.
 Defaulting to unpruned grid for atomic number  42.
 Defaulting to unpruned grid for atomic number  42.
 Defaulting to unpruned grid for atomic number  42.
 Defaulting to unpruned grid for atomic number  42.
 EnCoef did     4 forward-backward iterations
 EnCoef did   100 forward-backward iterations
 EnCoef did     1 forward-backward iterations
 EnCoef did     4 forward-backward iterations
 EnCoef did   100 forward-backward iterations
 EnCoef did     7 forward-backward iterations
 EnCoef did   100 forward-backward iterations
 EnCoef did     6 forward-backward iterations
 EnCoef did     7 forward-backward iterations
 Restarting incremental Fock formation.
 SCF Done:  E(RB3LYP) =  -3857.81964086     A.U. after   27 cycles
            NFock= 27  Conv=0.79D-08     -V/T= 2.0514

 **********************************************************************

            Population analysis using the SCF Density.

 **********************************************************************

 Alpha  occ. eigenvalues --  -88.95512 -88.90042 -88.89266 -88.88974 -88.88690
 Alpha  occ. eigenvalues --  -88.85801 -88.85788 -88.85659 -88.83879  -8.03102
 Alpha  occ. eigenvalues --   -7.97599  -7.96949  -7.96555  -7.96355  -7.93588
 Alpha  occ. eigenvalues --   -7.93582  -7.93497  -7.91531  -5.99422  -5.99157
 Alpha  occ. eigenvalues --   -5.98619  -5.93907  -5.93399  -5.93387  -5.92951
 Alpha  occ. eigenvalues --   -5.92908  -5.92841  -5.92820  -5.92401  -5.92356
 Alpha  occ. eigenvalues --   -5.92344  -5.92302  -5.92273  -5.89774  -5.89609
 Alpha  occ. eigenvalues --   -5.89600  -5.89568  -5.89551  -5.89445  -5.89429
 Alpha  occ. eigenvalues --   -5.89383  -5.89180  -5.87829  -5.87444  -5.87204
 Alpha  occ. eigenvalues --   -2.52261  -2.51870  -2.51610  -2.50320  -1.55969
 Alpha  occ. eigenvalues --   -1.55585  -1.55302  -1.54614  -1.54204  -1.54021
 Alpha  occ. eigenvalues --   -1.53580  -1.53345  -1.52935  -1.52497  -1.52179
 Alpha  occ. eigenvalues --   -1.51744  -0.82518  -0.75375  -0.74338  -0.72731
 Alpha  occ. eigenvalues --   -0.72008  -0.70949  -0.69182  -0.68621  -0.67988
 Alpha  occ. eigenvalues --   -0.52104  -0.46207  -0.45709  -0.44377  -0.42072
 Alpha  occ. eigenvalues --   -0.39494  -0.39315  -0.38930  -0.38455  -0.37704
 Alpha  occ. eigenvalues --   -0.37168  -0.36629  -0.35913  -0.34943  -0.34470
 Alpha  occ. eigenvalues --   -0.33477  -0.32673  -0.32450  -0.31897  -0.31641
 Alpha  occ. eigenvalues --   -0.30894  -0.30593  -0.29732  -0.28664  -0.27640
 Alpha  occ. eigenvalues --   -0.27490  -0.26951  -0.26503  -0.24392  -0.23665
 Alpha  occ. eigenvalues --   -0.22864  -0.21906  -0.19961
 Alpha virt. eigenvalues --   -0.13176  -0.12106  -0.11911  -0.10945  -0.10283
 Alpha virt. eigenvalues --   -0.09506  -0.08776  -0.08052  -0.07693  -0.07487
 Alpha virt. eigenvalues --   -0.06917  -0.05504  -0.05099  -0.04663  -0.03677
 Alpha virt. eigenvalues --   -0.02163  -0.01248   0.00144   0.00968   0.01863
 Alpha virt. eigenvalues --    0.02209   0.03164   0.03975   0.04334   0.04905
 Alpha virt. eigenvalues --    0.05214   0.05382   0.06415   0.07073   0.07299
 Alpha virt. eigenvalues --    0.08082   0.08872   0.09288   0.10723   0.11099
 Alpha virt. eigenvalues --    0.13553   0.14509   0.15450   0.16944   0.18214
 Alpha virt. eigenvalues --    0.19693   0.20617   0.21191   0.22899   0.24875
 Alpha virt. eigenvalues --    0.26267   0.27190   0.27844   0.28881   0.29297
 Alpha virt. eigenvalues --    0.29757   0.30621   0.30784   0.31919   0.33040
 Alpha virt. eigenvalues --    0.33482   0.33816   0.34178   0.34538   0.35240
 Alpha virt. eigenvalues --    0.36212   0.36436   0.36852   0.37933   0.38194
 Alpha virt. eigenvalues --    0.38873   0.39644   0.40165   0.40298   0.40604
 Alpha virt. eigenvalues --    0.41334   0.41869   0.42347   0.42648   0.43368
 Alpha virt. eigenvalues --    0.43927   0.44685   0.45388   0.47013   0.48126
 Alpha virt. eigenvalues --    0.49619   0.50059   0.50609   0.52221   0.53020
 Alpha virt. eigenvalues --    0.53654   0.54412   0.54821   0.55259   0.57477
 Alpha virt. eigenvalues --    0.58333   0.59150   0.59554   0.62438   0.63848
 Alpha virt. eigenvalues --    0.65389   0.65914   0.66605   0.67502   0.69190
 Alpha virt. eigenvalues --    0.70183   0.70776   0.72114   0.72919   0.73441
 Alpha virt. eigenvalues --    0.73593   0.74912   0.75497   0.75721   0.76250
 Alpha virt. eigenvalues --    0.77048   0.77581   0.77904   0.78777   0.79481
 Alpha virt. eigenvalues --    0.80342   0.81265   0.82054   0.82670   0.84367
 Alpha virt. eigenvalues --    0.85373   0.86353   0.87513   0.88373   0.88785
 Alpha virt. eigenvalues --    0.89755   0.92287   0.92861   0.94066   0.95343
 Alpha virt. eigenvalues --    0.96404   0.96851   0.97186   0.98713   0.99828
 Alpha virt. eigenvalues --    1.01484   1.01745   1.02419   1.03559   1.04961
 Alpha virt. eigenvalues --    1.05296   1.07031   1.08373   1.08969   1.09584
 Alpha virt. eigenvalues --    1.11393   1.12770   1.13028   1.14996   1.17674
 Alpha virt. eigenvalues --    1.18576   1.18738   1.20073   1.21904   1.25611
 Alpha virt. eigenvalues --    1.93210   1.97485   2.06559   2.07580   2.08850
 Alpha virt. eigenvalues --    2.08937   2.09375   2.10213   2.11261   2.12038
 Alpha virt. eigenvalues --    2.12921   2.13434   2.64539   2.70158   2.72605
 Alpha virt. eigenvalues --    2.73519   2.74567   2.76846   6.18430   8.58316
 Alpha virt. eigenvalues --    9.35183  12.63298
          Condensed to atoms (all electrons):
               1          2          3          4          5          6
     1  Mo  14.154304   0.125195   0.222114   0.136999   0.128014  -0.020680
     2  S    0.125195  15.398837  -0.021487   0.016985   0.004501   0.000390
     3  S    0.222114  -0.021487  15.698606  -0.009901  -0.001031  -0.000100
     4  S    0.136999   0.016985  -0.009901  15.616721  -0.006520   0.000382
     5  S    0.128014   0.004501  -0.001031  -0.006520  15.528929   0.213487
     6  H   -0.020680   0.000390  -0.000100   0.000382   0.213487   0.793172
     7  Mo  -0.289980  -0.040361   0.250466   0.216264  -0.018582   0.000319
     8  S   -0.020614   0.000123   0.008689  -0.010326   0.000001   0.000000
     9  H    0.006490  -0.000000  -0.000299  -0.005571  -0.000005   0.000000
    10  S   -0.024422  -0.017329   0.011074  -0.014624  -0.000094  -0.000000
    11  Mo  -0.140483   0.186171  -0.015095   0.053380   0.005009  -0.000364
    12  S   -0.017760  -0.003422  -0.000019  -0.003732  -0.000114   0.000001
    13  H    0.002323  -0.000189   0.000004  -0.000070   0.000000  -0.000000
    14  S   -0.042484   0.001329  -0.000193  -0.024276  -0.000837   0.000456
    15  H   -0.007499  -0.000313   0.000015   0.004621   0.000352  -0.000047
    16  Mo  -0.304292   0.136661  -0.023779  -0.019771   0.196655  -0.031875
    17  S    0.023205  -0.008907   0.000007  -0.000020  -0.020852  -0.011729
    18  H   -0.000374   0.000110   0.000001   0.000000   0.000452  -0.000225
    19  H   -0.006786   0.000431  -0.000005  -0.000003  -0.002127   0.011479
               7          8          9         10         11         12
     1  Mo  -0.289980  -0.020614   0.006490  -0.024422  -0.140483  -0.017760
     2  S   -0.040361   0.000123  -0.000000  -0.017329   0.186171  -0.003422
     3  S    0.250466   0.008689  -0.000299   0.011074  -0.015095  -0.000019
     4  S    0.216264  -0.010326  -0.005571  -0.014624   0.053380  -0.003732
     5  S   -0.018582   0.000001  -0.000005  -0.000094   0.005009  -0.000114
     6  H    0.000319   0.000000   0.000000  -0.000000  -0.000364   0.000001
     7  Mo  13.487911   0.306427  -0.034207   0.278708  -0.298648  -0.017781
     8  S    0.306427  15.612301   0.270248   0.008065  -0.012761   0.000021
     9  H   -0.034207   0.270248   0.671544  -0.000262   0.002717  -0.000000
    10  S    0.278708   0.008065  -0.000262  15.679615   0.176279  -0.013104
    11  Mo  -0.298648  -0.012761   0.002717   0.176279  14.199136   0.349952
    12  S   -0.017781   0.000021  -0.000000  -0.013104   0.349952  15.610532
    13  H    0.002488   0.000000   0.000000  -0.006732  -0.034871   0.270006
    14  S   -0.006600  -0.000004  -0.000002  -0.004874   0.165989  -0.030185
    15  H    0.003004  -0.000005   0.000000  -0.000004  -0.019894   0.000363
    16  Mo   0.099727  -0.002393   0.000300  -0.003356  -0.253475  -0.037193
    17  S   -0.000588  -0.000000  -0.000000   0.000015  -0.008172   0.000086
    18  H   -0.000115  -0.000000  -0.000000  -0.000000   0.000041  -0.000002
    19  H   -0.000099   0.000000   0.000000  -0.000000   0.001492   0.000000
              13         14         15         16         17         18
     1  Mo   0.002323  -0.042484  -0.007499  -0.304292   0.023205  -0.000374
     2  S   -0.000189   0.001329  -0.000313   0.136661  -0.008907   0.000110
     3  S    0.000004  -0.000193   0.000015  -0.023779   0.000007   0.000001
     4  S   -0.000070  -0.024276   0.004621  -0.019771  -0.000020   0.000000
     5  S    0.000000  -0.000837   0.000352   0.196655  -0.020852   0.000452
     6  H   -0.000000   0.000456  -0.000047  -0.031875  -0.011729  -0.000225
     7  Mo   0.002488  -0.006600   0.003004   0.099727  -0.000588  -0.000115
     8  S    0.000000  -0.000004  -0.000005  -0.002393  -0.000000  -0.000000
     9  H    0.000000  -0.000002   0.000000   0.000300  -0.000000  -0.000000
    10  S   -0.006732  -0.004874  -0.000004  -0.003356   0.000015  -0.000000
    11  Mo  -0.034871   0.165989  -0.019894  -0.253475  -0.008172   0.000041
    12  S    0.270006  -0.030185   0.000363  -0.037193   0.000086  -0.000002
    13  H    0.683831   0.000919  -0.000003   0.003464   0.000000  -0.000000
    14  S    0.000919  15.478651   0.265590   0.213205  -0.004027   0.000031
    15  H   -0.000003   0.265590   0.672633  -0.024583   0.000023   0.000001
    16  Mo   0.003464   0.213205  -0.024583  14.081469   0.140396  -0.022785
    17  S    0.000000  -0.004027   0.000023   0.140396  15.307657   0.283144
    18  H   -0.000000   0.000031   0.000001  -0.022785   0.283144   0.642739
    19  H    0.000000   0.000109  -0.000004  -0.023772   0.286217  -0.027684
              19
     1  Mo  -0.006786
     2  S    0.000431
     3  S   -0.000005
     4  S   -0.000003
     5  S   -0.002127
     6  H    0.011479
     7  Mo  -0.000099
     8  S    0.000000
     9  H    0.000000
    10  S   -0.000000
    11  Mo   0.001492
    12  S    0.000000
    13  H    0.000000
    14  S    0.000109
    15  H   -0.000004
    16  Mo  -0.023772
    17  S    0.286217
    18  H   -0.027684
    19  H    0.650556
 Mulliken charges:
               1
     1  Mo   0.076730
     2  S    0.221277
     3  S   -0.119065
     4  S    0.049460
     5  S   -0.027237
     6  H    0.045333
     7  Mo   0.061649
     8  S   -0.159772
     9  H    0.089048
    10  S   -0.068955
    11  Mo  -0.356404
    12  S   -0.107649
    13  H    0.078829
    14  S   -0.012796
    15  H    0.105748
    16  Mo  -0.124602
    17  S    0.013545
    18  H    0.124667
    19  H    0.110195
 Sum of Mulliken charges =  -0.00000
 Mulliken charges with hydrogens summed into heavy atoms:
               1
     1  Mo   0.076730
     2  S    0.221277
     3  S   -0.119065
     4  S    0.049460
     5  S    0.018097
     7  Mo   0.061649
     8  S   -0.070723
    10  S   -0.068955
    11  Mo  -0.356404
    12  S   -0.028820
    14  S    0.092952
    16  Mo  -0.124602
    17  S    0.248406
 Electronic spatial extent (au):  <R**2>=          93033.5868
 Charge=              0.0000 electrons
 Dipole moment (field-independent basis, Debye):
    X=              8.2932    Y=             -4.2122    Z=              1.8836  Tot=              9.4904
 Quadrupole moment (field-independent basis, Debye-Ang):
   XX=           -185.1074   YY=           -233.7288   ZZ=           -180.2925
   XY=             12.0279   XZ=            101.4438   YZ=            -35.6008
 Traceless Quadrupole moment (field-independent basis, Debye-Ang):
   XX=             14.6021   YY=            -34.0192   ZZ=             19.4171
   XY=             12.0279   XZ=            101.4438   YZ=            -35.6008
 Octapole moment (field-independent basis, Debye-Ang**2):
  XXX=            126.7397  YYY=          -1642.9619  ZZZ=          -6320.9917  XYY=            -21.3627
  XXY=           -492.0260  XXZ=          -1910.6368  XZZ=           1181.6887  YZZ=           -850.1650
  YYZ=          -2407.1756  XYZ=            145.0214
 Hexadecapole moment (field-independent basis, Debye-Ang**3):
 XXXX=          -5472.0858 YYYY=         -10572.9071 ZZZZ=        -140012.7340 XXXY=            387.0139
 XXXZ=           1587.1268 YYYX=            -62.7722 YYYZ=         -16695.8694 ZZZX=          13361.1545
 ZZZY=         -19514.9576 XXYY=          -2718.3931 XXZZ=         -21143.8645 YYZZ=         -27104.3754
 XXYZ=          -4967.4320 YYXZ=           -129.2807 ZZXY=           1649.3663
 N-N= 2.801550977899D+03 E-N=-1.468129284470D+04  KE= 3.669374008402D+03
   1 Symmetry operations used in ECPInt.
 ECPInt:  NShTT=    4560 NPrTT=   31993 LenC2=    4181 LenP2D=   20033.
 LDataN:  DoStor=T MaxTD1= 6 Len=  172
 Calling FoFJK, ICntrl=      2127 FMM=F ISym2X=0 I1Cent= 0 IOpClX= 0 NMat=1 NMatS=1 NMatT=0.
 Defaulting to unpruned grid for atomic number  42.
 Defaulting to unpruned grid for atomic number  42.
 Defaulting to unpruned grid for atomic number  42.
 Defaulting to unpruned grid for atomic number  42.
 Defaulting to unpruned grid for atomic number  42.
 Defaulting to unpruned grid for atomic number  42.
 Defaulting to unpruned grid for atomic number  42.
 Defaulting to unpruned grid for atomic number  42.
 Defaulting to unpruned grid for atomic number  42.
 Defaulting to unpruned grid for atomic number  42.
 Defaulting to unpruned grid for atomic number  42.
 Defaulting to unpruned grid for atomic number  42.
 Defaulting to unpruned grid for atomic number  42.
 Defaulting to unpruned grid for atomic number  42.
 Defaulting to unpruned grid for atomic number  42.
 Defaulting to unpruned grid for atomic number  42.
 Defaulting to unpruned grid for atomic number  42.
 Defaulting to unpruned grid for atomic number  42.
 Defaulting to unpruned grid for atomic number  42.
 Defaulting to unpruned grid for atomic number  42.
 Defaulting to unpruned grid for atomic number  42.
 Defaulting to unpruned grid for atomic number  42.
 Defaulting to unpruned grid for atomic number  42.
 Defaulting to unpruned grid for atomic number  42.
 Defaulting to unpruned grid for atomic number  42.
 Defaulting to unpruned grid for atomic number  42.
 Defaulting to unpruned grid for atomic number  42.
 Defaulting to unpruned grid for atomic number  42.
 Defaulting to unpruned grid for atomic number  42.
 Defaulting to unpruned grid for atomic number  42.
 Defaulting to unpruned grid for atomic number  42.
 Defaulting to unpruned grid for atomic number  42.
 Defaulting to unpruned grid for atomic number  42.
 Defaulting to unpruned grid for atomic number  42.
 Defaulting to unpruned grid for atomic number  42.
 Defaulting to unpruned grid for atomic number  42.
 Defaulting to unpruned grid for atomic number  42.
 Defaulting to unpruned grid for atomic number  42.
 Defaulting to unpruned grid for atomic number  42.
 Defaulting to unpruned grid for atomic number  42.
 Defaulting to unpruned grid for atomic number  42.
 Defaulting to unpruned grid for atomic number  42.
 Defaulting to unpruned grid for atomic number  42.
 Defaulting to unpruned grid for atomic number  42.
 Defaulting to unpruned grid for atomic number  42.
 Defaulting to unpruned grid for atomic number  42.
 Defaulting to unpruned grid for atomic number  42.
 Defaulting to unpruned grid for atomic number  42.
 -------------------------------------------------------------------
 Center     Atomic                   Forces (Hartrees/Bohr)
 Number     Number              X              Y              Z
 -------------------------------------------------------------------
      1       42           0.001449571    0.002492814    0.001455946
      2       16          -0.000448561    0.000791722    0.000945707
      3       16          -0.000229395    0.000349808   -0.000287894
      4       16           0.000879837    0.000572276   -0.000735040
      5       16           0.000987333   -0.002969235   -0.003018763
      6        1          -0.001622504   -0.001689593    0.001396660
      7       42          -0.001086400   -0.000449159    0.000555687
      8       16           0.000170332   -0.000064041   -0.000135425
      9        1          -0.000059280   -0.000031069    0.000039748
     10       16          -0.000010365   -0.000133120    0.000352191
     11       42           0.001548166   -0.001176378   -0.000787219
     12       16          -0.000294716   -0.000039885   -0.000130638
     13        1           0.000003866    0.000002066    0.000074769
     14       16          -0.002326955   -0.000778221   -0.002885235
     15        1           0.000790951    0.001433191    0.000347819
     16       42           0.000286360   -0.000049497    0.004104697
     17       16          -0.000463562    0.003923568   -0.002373003
     18        1          -0.000331233   -0.000633046    0.000431250
     19        1           0.000756556   -0.001552201    0.000648743
 -------------------------------------------------------------------
 Cartesian Forces:  Max     0.004104697 RMS     0.001365097

 GradGradGradGradGradGradGradGradGradGradGradGradGradGradGradGradGradGrad
 Berny optimization.
 FormGI is forming the generalized inverse of G from B-inverse, IUseBI=4.
 Internal  Forces:  Max     0.002826451 RMS     0.000569634
 Search for a local minimum.
 Step number   1 out of a maximum of  114
 All quantities printed in internal units (Hartrees-Bohrs-Radians)
 Mixed Optimization -- En-DIIS/RFO-DIIS
 Second derivative matrix not updated -- first step.
 ITU=  0
     Eigenvalues ---    0.00230   0.00230   0.00230   0.01253   0.01485
     Eigenvalues ---    0.01707   0.02839   0.03069   0.03585   0.03748
     Eigenvalues ---    0.04360   0.04784   0.05360   0.05527   0.06598
     Eigenvalues ---    0.07594   0.08088   0.08131   0.08387   0.08460
     Eigenvalues ---    0.08735   0.10134   0.10461   0.10610   0.11111
     Eigenvalues ---    0.11248   0.11455   0.11609   0.11997   0.12346
     Eigenvalues ---    0.13239   0.13386   0.13754   0.13942   0.14114
     Eigenvalues ---    0.14416   0.14510   0.15044   0.16000   0.16000
     Eigenvalues ---    0.16000   0.16000   0.16432   0.17344   0.18124
     Eigenvalues ---    0.24747   0.25039   0.25244   0.25456   0.25744
     Eigenvalues ---    0.25764
 RFO step:  Lambda=-9.70807411D-04 EMin= 2.30000000D-03
 Linear search not attempted -- first point.
 Iteration  1 RMS(Cart)=  0.01760382 RMS(Int)=  0.00042011
 Iteration  2 RMS(Cart)=  0.00045315 RMS(Int)=  0.00006035
 Iteration  3 RMS(Cart)=  0.00000027 RMS(Int)=  0.00006035
 Variable       Old X    -DE/DX   Delta X   Delta X   Delta X     New X
                                 (Linear)    (Quad)   (Total)
    R1        4.50793   0.00010   0.00000  -0.00049  -0.00048   4.50746
    R2        4.47936   0.00002   0.00000   0.00165   0.00166   4.48101
    R3        4.46999   0.00023   0.00000   0.00188   0.00189   4.47188
    R4        4.76581   0.00136   0.00000   0.01639   0.01638   4.78219
    R5        5.18821   0.00003   0.00000   0.00327   0.00328   5.19150
    R6        5.11906   0.00016   0.00000  -0.00025  -0.00025   5.11881
    R7        4.97502  -0.00039   0.00000  -0.01021  -0.01032   4.96470
    R8        4.46521   0.00066   0.00000   0.00398   0.00396   4.46918
    R9        4.47600   0.00047   0.00000   0.00227   0.00227   4.47827
   R10        4.37971  -0.00027   0.00000  -0.00350  -0.00354   4.37618
   R11        4.49061   0.00051   0.00000   0.00167   0.00167   4.49228
   R12        4.60488  -0.00105   0.00000  -0.00843  -0.00842   4.59647
   R13        2.57356   0.00067   0.00000   0.00272   0.00272   2.57628
   R14        4.58957   0.00283   0.00000   0.02700   0.02705   4.61662
   R15        4.43332  -0.00004   0.00000  -0.00027  -0.00027   4.43305
   R16        4.26788  -0.00006   0.00000  -0.00130  -0.00129   4.26659
   R17        5.30866   0.00009   0.00000   0.00467   0.00471   5.31337
   R18        2.54803  -0.00001   0.00000  -0.00004  -0.00004   2.54799
   R19        4.58426   0.00005   0.00000   0.00306   0.00307   4.58733
   R20        4.59014  -0.00012   0.00000  -0.00107  -0.00107   4.58908
   R21        4.84007  -0.00010   0.00000  -0.00689  -0.00696   4.83311
   R22        5.37219  -0.00053   0.00000  -0.00206  -0.00201   5.37017
   R23        2.54854   0.00004   0.00000   0.00014   0.00014   2.54868
   R24        2.56609  -0.00167   0.00000  -0.00664  -0.00664   2.55944
   R25        4.56298   0.00212   0.00000   0.02140   0.02143   4.58441
   R26        4.86101  -0.00108   0.00000  -0.01278  -0.01278   4.84823
   R27        2.56092  -0.00065   0.00000  -0.00255  -0.00255   2.55837
   R28        2.55564   0.00170   0.00000   0.00664   0.00664   2.56228
    A1        1.61239  -0.00031   0.00000  -0.00059  -0.00060   1.61179
    A2        1.94883  -0.00017   0.00000  -0.00115  -0.00115   1.94768
    A3        1.91624   0.00089   0.00000   0.00924   0.00927   1.92551
    A4        1.57165  -0.00013   0.00000   0.00083   0.00084   1.57249
    A5        1.79658   0.00018   0.00000  -0.00033  -0.00033   1.79625
    A6        2.55390   0.00017   0.00000  -0.00126  -0.00133   2.55257
    A7        1.85257  -0.00008   0.00000  -0.00069  -0.00071   1.85187
    A8        2.57339  -0.00011   0.00000   0.00159   0.00160   2.57498
    A9        1.61097  -0.00092   0.00000  -0.00739  -0.00742   1.60355
   A10        1.69218  -0.00032   0.00000  -0.00176  -0.00175   1.69043
   A11        2.55884  -0.00090   0.00000  -0.00887  -0.00894   2.54991
   A12        1.87332  -0.00020   0.00000   0.00077   0.00074   1.87406
   A13        2.20307  -0.00011   0.00000   0.00154   0.00157   2.20464
   A14        1.89333  -0.00057   0.00000  -0.02173  -0.02133   1.87200
   A15        1.82285   0.00058   0.00000   0.03696   0.03701   1.85986
   A16        2.33175  -0.00003   0.00000  -0.00062  -0.00062   2.33113
   A17        1.82837  -0.00013   0.00000  -0.00161  -0.00162   1.82675
   A18        1.81900   0.00018   0.00000   0.00120   0.00120   1.82020
   A19        2.04918   0.00007   0.00000   0.00114   0.00117   2.05034
   A20        1.99516  -0.00030   0.00000  -0.00227  -0.00230   1.99286
   A21        1.82419   0.00002   0.00000  -0.00076  -0.00077   1.82342
   A22        1.62515   0.00011   0.00000   0.00017   0.00016   1.62531
   A23        1.86173  -0.00020   0.00000  -0.00219  -0.00219   1.85954
   A24        2.04231   0.00019   0.00000   0.00187   0.00187   2.04418
   A25        2.32402  -0.00009   0.00000  -0.00097  -0.00098   2.32304
   A26        1.87084   0.00015   0.00000   0.00092   0.00092   1.87176
   A27        1.76795  -0.00018   0.00000  -0.00160  -0.00161   1.76634
   A28        2.61578   0.00012   0.00000   0.00052   0.00052   2.61630
   A29        1.63485   0.00028   0.00000   0.00327   0.00328   1.63812
   A30        1.91906   0.00006   0.00000   0.00076   0.00076   1.91982
   A31        1.55305  -0.00025   0.00000  -0.00032  -0.00031   1.55274
   A32        1.57524  -0.00049   0.00000  -0.00168  -0.00168   1.57357
   A33        1.69579   0.00023   0.00000   0.00068   0.00068   1.69647
   A34        1.82257   0.00071   0.00000   0.00559   0.00559   1.82816
   A35        1.74109   0.00020   0.00000  -0.00043  -0.00043   1.74065
   A36        2.63257  -0.00029   0.00000  -0.00099  -0.00099   2.63158
   A37        1.44676  -0.00032   0.00000  -0.00170  -0.00170   1.44506
   A38        1.57184  -0.00002   0.00000  -0.00145  -0.00147   1.57037
   A39        2.45263  -0.00002   0.00000  -0.00101  -0.00100   2.45163
   A40        2.37374  -0.00011   0.00000  -0.00092  -0.00094   2.37279
   A41        2.02712  -0.00006   0.00000  -0.00170  -0.00173   2.02540
   A42        1.57773   0.00005   0.00000   0.00026   0.00027   1.57801
   A43        2.85014  -0.00017   0.00000  -0.00307  -0.00307   2.84706
   A44        2.49755  -0.00034   0.00000  -0.00152  -0.00154   2.49602
   A45        1.39722  -0.00006   0.00000   0.00000  -0.00000   1.39722
   A46        1.71226   0.00011   0.00000   0.00302   0.00304   1.71531
   A47        1.79745  -0.00010   0.00000  -0.00063  -0.00063   1.79682
   A48        1.81646   0.00039   0.00000   0.00216   0.00212   1.81858
   A49        1.83578   0.00021   0.00000  -0.00142  -0.00144   1.83434
   A50        1.73075  -0.00009   0.00000  -0.00056  -0.00056   1.73018
   A51        1.82897   0.00007   0.00000   0.00898   0.00900   1.83796
   A52        1.98367   0.00033   0.00000   0.00533   0.00531   1.98898
   A53        1.90184   0.00013   0.00000  -0.00227  -0.00231   1.89953
   A54        1.56607  -0.00035   0.00000  -0.00579  -0.00585   1.56022
   A55        1.84874  -0.00036   0.00000  -0.00130  -0.00135   1.84739
   A56        1.69395  -0.00094   0.00000  -0.00485  -0.00484   1.68911
   A57        1.56598   0.00108   0.00000   0.02100   0.02114   1.58712
   A58        2.48979  -0.00017   0.00000  -0.00547  -0.00569   2.48411
   A59        2.70906   0.00009   0.00000  -0.00414  -0.00446   2.70460
   A60        1.87385   0.00071   0.00000   0.00494   0.00493   1.87878
   A61        1.81540   0.00158   0.00000   0.01040   0.01038   1.82579
   A62        1.62274  -0.00059   0.00000  -0.00177  -0.00181   1.62093
    D1        1.40176   0.00133   0.00000   0.05463   0.05464   1.45640
    D2       -0.83762  -0.00015   0.00000   0.03784   0.03779  -0.79982
    D3       -2.89140   0.00094   0.00000   0.05222   0.05218  -2.83922
    D4       -2.73106   0.00156   0.00000   0.06286   0.06272  -2.66834
    D5        2.41506   0.00154   0.00000   0.05722   0.05721   2.47227
    D6        2.98012   0.00015   0.00000  -0.00095  -0.00097   2.97915
    D7        0.29073   0.00001   0.00000  -0.00042  -0.00043   0.29030
    D8        0.74490  -0.00046   0.00000  -0.01207  -0.01197   0.73293
    D9       -1.94449  -0.00060   0.00000  -0.01155  -0.01144  -1.95593
   D10        2.17267  -0.00001   0.00000  -0.00347  -0.00351   2.16917
   D11       -0.51672  -0.00015   0.00000  -0.00294  -0.00297  -0.51969
   D12       -0.02004   0.00021   0.00000   0.00123   0.00123  -0.01881
   D13        1.91721   0.00006   0.00000  -0.00082  -0.00081   1.91639
   D14       -3.03166   0.00039   0.00000   0.00476   0.00476  -3.02690
   D15        3.05752  -0.00075   0.00000  -0.01001  -0.01006   3.04746
   D16       -1.28842  -0.00089   0.00000  -0.01207  -0.01210  -1.30052
   D17        0.04591  -0.00057   0.00000  -0.00649  -0.00653   0.03938
   D18       -2.14436   0.00020   0.00000   0.00417   0.00419  -2.14017
   D19        1.10891  -0.00007   0.00000  -0.01153  -0.01167   1.09725
   D20        0.08271  -0.00022   0.00000   0.00193   0.00196   0.08467
   D21       -2.94720  -0.00049   0.00000  -0.01377  -0.01389  -2.96110
   D22       -0.80601  -0.00012   0.00000   0.00436   0.00441  -0.80160
   D23        2.44726  -0.00039   0.00000  -0.01134  -0.01145   2.43581
   D24       -1.24319   0.00009   0.00000   0.00265   0.00268  -1.24051
   D25        1.27737   0.00019   0.00000   0.00035   0.00034   1.27771
   D26       -1.50154   0.00029   0.00000   0.03590   0.03595  -1.46559
   D27       -2.47964   0.00018   0.00000   0.03491   0.03501  -2.44463
   D28        2.78644   0.00054   0.00000   0.03931   0.03944   2.82588
   D29        0.06199   0.00038   0.00000   0.03874   0.03890   0.10089
   D30       -0.60166  -0.00000   0.00000   0.00866   0.00867  -0.59298
   D31       -1.76388  -0.00009   0.00000   0.00756   0.00755  -1.75632
   D32        0.11722   0.00020   0.00000   0.00929   0.00929   0.12651
   D33        2.04579   0.00008   0.00000   0.00733   0.00733   2.05312
   D34        0.86891  -0.00006   0.00000   0.00584   0.00584   0.87475
   D35       -0.32473  -0.00006   0.00000   0.00040   0.00042  -0.32431
   D36       -2.07101  -0.00012   0.00000  -0.00009  -0.00008  -2.07109
   D37        1.59334   0.00068   0.00000   0.00801   0.00803   1.60136
   D38        0.50279  -0.00003   0.00000   0.00166   0.00169   0.50448
   D39       -3.00324  -0.00010   0.00000   0.00155   0.00155  -3.00169
   D40        1.53367  -0.00016   0.00000   0.00106   0.00105   1.53473
   D41       -1.08517   0.00064   0.00000   0.00916   0.00916  -1.07601
   D42       -2.17572  -0.00007   0.00000   0.00282   0.00283  -2.17289
   D43       -1.65732   0.00001   0.00000   0.00789   0.00788  -1.64944
   D44       -1.24873   0.00029   0.00000   0.00702   0.00701  -1.24172
   D45        2.26668   0.00013   0.00000   0.00425   0.00426   2.27094
   D46        0.44682   0.00018   0.00000   0.00707   0.00708   0.45390
   D47        0.32742  -0.00020   0.00000   0.00537   0.00536   0.33278
   D48       -3.05456  -0.00040   0.00000   0.00143   0.00142  -3.05314
   D49       -2.18541   0.00012   0.00000   0.00624   0.00624  -2.17917
   D50        1.03281  -0.00008   0.00000  -0.00082  -0.00081   1.03199
   D51        1.99963  -0.00013   0.00000  -0.00093  -0.00091   1.99872
   D52        0.09990  -0.00009   0.00000  -0.00108  -0.00106   0.09884
   D53        0.18642  -0.00050   0.00000  -0.00627  -0.00626   0.18016
   D54       -1.65061   0.00035   0.00000   0.00760   0.00756  -1.64306
   D55       -2.62707  -0.00001   0.00000  -0.00107  -0.00106  -2.62813
   D56       -0.12716   0.00063   0.00000   0.00566   0.00565  -0.12151
   D57       -2.07231  -0.00068   0.00000  -0.02656  -0.02653  -2.09883
   D58        0.71576   0.00086   0.00000   0.00592   0.00589   0.72165
   D59       -1.22939  -0.00044   0.00000  -0.02630  -0.02628  -1.25568
   D60        1.73122   0.00082   0.00000   0.00232   0.00226   1.73349
   D61       -0.21393  -0.00049   0.00000  -0.02990  -0.02991  -0.24383
   D62       -2.77843   0.00090   0.00000   0.00632   0.00631  -2.77212
   D63        1.55960  -0.00040   0.00000  -0.02590  -0.02586   1.53374
   D64       -0.96865  -0.00007   0.00000  -0.00267  -0.00265  -0.97130
   D65       -1.97742  -0.00007   0.00000  -0.00367  -0.00366  -1.98108
   D66        0.08273  -0.00010   0.00000  -0.00072  -0.00073   0.08200
   D67        1.91296   0.00051   0.00000   0.03759   0.03752   1.95048
   D68       -3.06099   0.00005   0.00000  -0.03722  -0.03715  -3.09814
   D69        1.51687  -0.00007   0.00000  -0.04038  -0.04032   1.47655
   D70       -2.09596  -0.00005   0.00000  -0.03969  -0.03973  -2.13569
   D71        2.48191  -0.00017   0.00000  -0.04285  -0.04290   2.43900
   D72        2.20353  -0.00037   0.00000  -0.04491  -0.04491   2.15862
   D73        0.49820  -0.00049   0.00000  -0.04806  -0.04808   0.45013
   D74       -2.04657   0.00046   0.00000  -0.02005  -0.02012  -2.06670
   D75        2.53129   0.00034   0.00000  -0.02320  -0.02329   2.50799
   D76        0.34619  -0.00054   0.00000  -0.07772  -0.07764   0.26855
   D77       -1.35914  -0.00066   0.00000  -0.08088  -0.08081  -1.43995
         Item               Value     Threshold  Converged?
 Maximum Force            0.002826     0.000450     NO 
 RMS     Force            0.000570     0.000300     NO 
 Maximum Displacement     0.115724     0.001800     NO 
 RMS     Displacement     0.017712     0.001200     NO 
 Predicted change in Energy=-5.112448D-04
 GradGradGradGradGradGradGradGradGradGradGradGradGradGradGradGradGradGrad

                          Input orientation:                          
 ---------------------------------------------------------------------
 Center     Atomic      Atomic             Coordinates (Angstroms)
 Number     Number       Type             X           Y           Z
 ---------------------------------------------------------------------
      1         42           0        0.203102    1.433792   11.466356
      2         16           0        1.212986    3.587114   11.647245
      3         16           0       -1.454210    1.968198   13.075875
      4         16           0       -1.047880    1.223595    9.468659
      5         16           0        1.901082   -0.270135   10.680509
      6          1           0        2.592729   -0.687992   11.778521
      7         42           0       -2.233309    2.611135   10.992021
      8         16           0       -4.322998    1.786799   10.316181
      9          1           0       -4.093900    0.758858    9.474237
     10         16           0       -1.739523    4.743315   10.437432
     11         42           0        0.076586    3.377342    9.583812
     12         16           0        1.051711    5.319702    8.500454
     13          1           0        0.475807    6.350356    9.152439
     14         16           0        1.751223    2.223735    8.032702
     15          1           0        1.184382    1.022896    7.766105
     16         42           0        2.487624    2.076775   10.339526
     17         16           0        4.227782    1.958826   12.221044
     18          1           0        5.419590    2.337185   11.702100
     19          1           0        4.587731    0.652594   12.272601
 ---------------------------------------------------------------------
                    Distance matrix (angstroms):
                    1          2          3          4          5
     1  Mo   0.000000
     2  S    2.385242   0.000000
     3  S    2.371249   3.431590   0.000000
     4  S    2.366417   3.929882   3.705610   0.000000
     5  S    2.530624   4.035644   4.691044   3.520822   0.000000
     6  H    3.210877   4.494158   5.011605   4.716318   1.363309
     7  Mo   2.747222   3.641264   2.315773   2.377213   5.048955
     8  S    4.683278   5.971598   3.984816   3.429561   6.565278
     9  H    4.784171   6.394062   4.626257   3.081274   6.201106
    10  S    3.973087   3.393783   3.839799   3.715551   6.200627
    11  Mo   2.708757   2.364987   4.064913   2.432346   4.223224
    12  S    4.961552   3.595853   6.200539   4.703593   6.059731
    13  H    5.440697   3.795128   6.190446   5.357732   6.942428
    14  S    3.848463   3.900439   5.981111   3.301095   3.640430
    15  H    3.850143   4.651804   6.004117   2.814598   3.267926
    16  Mo   2.627206   2.369800   4.799734   3.739801   2.443008
    17  S    4.128349   3.474128   5.745943   5.995732   3.571421
    18  H    5.299381   4.388718   7.019440   6.932280   4.496851
    19  H    4.526066   4.515681   6.235472   6.320462   3.256420
                    6          7          8          9         10
     6  H    0.000000
     7  Mo   5.898598   0.000000
     8  S    7.489346   2.345867   0.000000
     9  H    7.219009   3.032556   1.348339   0.000000
    10  S    7.075735   2.257784   3.928108   4.727233   0.000000
    11  Mo   5.260671   2.811715   4.735244   4.925588   2.427510
    12  S    7.015186   4.933113   6.683245   6.944556   3.446026
    13  H    7.804871   4.970427   6.723755   7.228459   3.023487
    14  S    4.818449   4.978368   6.503948   6.195913   4.931158
    15  H    4.583674   4.960812   6.116998   5.554069   5.433851
    16  Mo   3.118604   4.795675   6.816832   6.767723   4.998879
    17  S    3.142431   6.609213   8.762074   8.845070   6.822271
    18  H    4.141096   7.690652   9.856050   9.897524   7.657790
    19  H    2.453838   7.211265   9.193209   9.122107   7.754740
                   11         12         13         14         15
    11  Mo   0.000000
    12  S    2.428435   0.000000
    13  H    3.030557   1.348703   0.000000
    14  S    2.557569   3.208289   4.462006   0.000000
    15  H    3.174065   4.361125   5.550301   1.354400   0.000000
    16  Mo   2.841774   3.995072   4.870326   2.425968   3.071091
    17  S    5.118555   5.935124   6.540581   4.872960   5.475832
    18  H    5.840956   6.182581   6.859104   5.189824   5.929284
    19  H    5.916440   6.965229   7.688161   5.337697   5.659366
                   16         17         18         19
    16  Mo   0.000000
    17  S    2.565575   0.000000
    18  H    3.243586   1.353833   0.000000
    19  H    3.189910   1.355899   1.963493   0.000000
 Symmetry turned off by external request.
 Stoichiometry    H6Mo4S9
 Framework group  C1[X(H6Mo4S9)]
 Deg. of freedom    51
 Full point group                 C1      NOp   1
 Rotational constants (GHZ):           0.2636743           0.1461276           0.1215735
 Basis read from rwf:  (5D, 7F)
 Pseudo-potential data read from rwf file.
   280 basis functions,   706 primitive gaussians,   297 cartesian basis functions
   103 alpha electrons      103 beta electrons
       nuclear repulsion energy      2800.5305950893 Hartrees.
 NAtoms=   19 NActive=   19 NUniq=   19 SFac= 1.00D+00 NAtFMM=   60 NAOKFM=F Big=F
 Integral buffers will be    131072 words long.
 Raffenetti 2 integral format.
 Two-electron integral symmetry is turned off.
 One-electron integrals computed using PRISM.
   1 Symmetry operations used in ECPInt.
 ECPInt:  NShTT=    4560 NPrTT=   31993 LenC2=    4184 LenP2D=   20033.
 LDataN:  DoStor=T MaxTD1= 5 Len=  102
 NBasis=   280 RedAO= T EigKep=  9.96D-04  NBF=   280
 NBsUse=   280 1.00D-06 EigRej= -1.00D+00 NBFU=   280
 Defaulting to unpruned grid for atomic number  42.
 Defaulting to unpruned grid for atomic number  42.
 Defaulting to unpruned grid for atomic number  42.
 Defaulting to unpruned grid for atomic number  42.
 Initial guess from the checkpoint file:  "/localscratch/chesayan/sagar/Gau-6742.chk"
 B after Tr=    -0.004564    0.011699   -0.004341
         Rot=    1.000000   -0.000226   -0.000457   -0.000760 Ang=  -0.10 deg.
 ExpMin= 2.47D-02 ExpMax= 2.19D+04 ExpMxC= 3.30D+03 IAcc=3 IRadAn=         5 AccDes= 0.00D+00
 Harris functional with IExCor=  402 and IRadAn=       5 diagonalized for initial guess.
 HarFok:  IExCor=  402 AccDes= 0.00D+00 IRadAn=         5 IDoV= 1 UseB2=F ITyADJ=14
 ICtDFT=  3500011 ScaDFX=  1.000000  1.000000  1.000000  1.000000
 Defaulting to unpruned grid for atomic number  42.
 FoFCou: FMM=F IPFlag=           0 FMFlag=      100000 FMFlg1=           0
         NFxFlg=           0 DoJE=T BraDBF=F KetDBF=T FulRan=T
         wScrn=  0.000000 ICntrl=       500 IOpCl=  0 I1Cent=   200000004 NGrid=           0
         NMat0=    1 NMatS0=      1 NMatT0=    0 NMatD0=    1 NMtDS0=    0 NMtDT0=    0
 Symmetry not used in FoFCou.
 Requested convergence on RMS density matrix=1.00D-08 within 128 cycles.
 Requested convergence on MAX density matrix=1.00D-06.
 Requested convergence on             energy=1.00D-06.
 No special actions if energy rises.
 Defaulting to unpruned grid for atomic number  42.
 Defaulting to unpruned grid for atomic number  42.
 Defaulting to unpruned grid for atomic number  42.
 Defaulting to unpruned grid for atomic number  42.
 Defaulting to unpruned grid for atomic number  42.
 Defaulting to unpruned grid for atomic number  42.
 Defaulting to unpruned grid for atomic number  42.
 Defaulting to unpruned grid for atomic number  42.
 Defaulting to unpruned grid for atomic number  42.
 Defaulting to unpruned grid for atomic number  42.
 Defaulting to unpruned grid for atomic number  42.
 Defaulting to unpruned grid for atomic number  42.
 Defaulting to unpruned grid for atomic number  42.
 Defaulting to unpruned grid for atomic number  42.
 Defaulting to unpruned grid for atomic number  42.
 Defaulting to unpruned grid for atomic number  42.
 Defaulting to unpruned grid for atomic number  42.
 Defaulting to unpruned grid for atomic number  42.
 Defaulting to unpruned grid for atomic number  42.
 Defaulting to unpruned grid for atomic number  42.
 Defaulting to unpruned grid for atomic number  42.
 Defaulting to unpruned grid for atomic number  42.
 Defaulting to unpruned grid for atomic number  42.
 Defaulting to unpruned grid for atomic number  42.
 Defaulting to unpruned grid for atomic number  42.
 Defaulting to unpruned grid for atomic number  42.
 Defaulting to unpruned grid for atomic number  42.
 Defaulting to unpruned grid for atomic number  42.
 Defaulting to unpruned grid for atomic number  42.
 Defaulting to unpruned grid for atomic number  42.
 Defaulting to unpruned grid for atomic number  42.
 Defaulting to unpruned grid for atomic number  42.
 Defaulting to unpruned grid for atomic number  42.
 Defaulting to unpruned grid for atomic number  42.
 Defaulting to unpruned grid for atomic number  42.
 Defaulting to unpruned grid for atomic number  42.
 Defaulting to unpruned grid for atomic number  42.
 Defaulting to unpruned grid for atomic number  42.
 Defaulting to unpruned grid for atomic number  42.
 Defaulting to unpruned grid for atomic number  42.
 Defaulting to unpruned grid for atomic number  42.
 Defaulting to unpruned grid for atomic number  42.
 Defaulting to unpruned grid for atomic number  42.
 Defaulting to unpruned grid for atomic number  42.
 Defaulting to unpruned grid for atomic number  42.
 Defaulting to unpruned grid for atomic number  42.
 Defaulting to unpruned grid for atomic number  42.
[...]
 ,0.00125715,0.00078599,0.00064002,-0.00158264,-0.00014146,-0.00047321,
 -0.00235552,0.00036965,-0.00218472,0.11488858,0.02724847,-0.03335377,-
 0.01443561,0.00502457,-0.00205435,-0.00094261,0.00209651,0.00042974,-0
 .00095558,0.00176866,-0.00018246,0.00111097,-0.03576236,0.12277189,0.0
 0552543,-0.02096779,-0.01931588,0.00183377,-0.00168117,0.00239621,0.00
 126632,0.00020552,0.00088236,-0.00250869,0.00263793,0.00087486,0.08732
 742,-0.03676291,0.19767368,-0.00373740,0.00136722,-0.00508513,0.000016
 24,-0.00051875,0.00047037,0.00036953,-0.00004629,0.00040343,-0.0005689
 2,0.00076111,0.00052226,-0.07115667,0.02634137,-0.09174131,0.06889468,
 0.00159144,-0.00231312,0.00098609,-0.00029043,0.00023742,0.00050580,-0
 .00026925,0.00006974,-0.00009086,0.00008737,0.00051263,0.00011423,0.02
 623053,-0.02512712,0.04218801,-0.03119290,0.03809867,0.00078023,0.0017
 1449,0.00568758,0.00056391,0.00034174,0.00015964,0.00021469,0.00001083
 ,-0.00042711,0.00037203,-0.00061139,-0.00036209,-0.09267257,0.04565152
 ,-0.16477945,0.09015320,-0.05103002,0.15818508,-0.05171863,0.02042077,
 -0.00128492,-0.00708518,0.00063590,-0.00237560,-0.00823287,0.00164443,
 -0.02511661,-0.03283160,0.02805230,0.03464612,-0.00211569,-0.00090167,
 0.00124802,0.00006659,-0.00009517,0.00026182,0.25398298,0.03965200,-0.
 02674951,0.00581719,-0.00557806,0.00087701,-0.00057980,-0.00033531,-0.
 01302039,0.01409273,0.03079906,-0.03644565,-0.04027841,-0.00134196,0.0
 0050307,-0.00031600,0.00020418,-0.00022642,0.00009796,0.00877952,0.252
 79518,-0.01320852,0.00343944,0.00905240,-0.00146817,-0.00237610,-0.000
 77168,-0.01781810,0.02005524,-0.11355759,0.03480552,-0.03787894,-0.045
 84371,0.00059943,-0.00085252,-0.00149213,-0.00081873,0.00070896,0.0002
 8989,-0.00975054,0.00611184,0.22185440,0.00059009,-0.00198472,-0.00267
 864,0.00029659,0.00053863,0.00046934,-0.00183051,0.00497191,-0.0054845
 1,-0.00790942,-0.00021521,-0.00042373,0.00011994,0.00015934,-0.0000358
 8,-0.00009093,0.00015422,-0.00014044,-0.08244946,-0.01894053,-0.017325
 75,0.10879408,-0.00270820,0.00266285,-0.00081699,0.00010006,-0.0000202
 5,0.00011588,-0.00053436,0.00189878,-0.00268333,0.00212352,0.00275077,
 0.00078487,0.00005096,0.00003601,0.00037663,0.00000153,-0.00002327,-0.
 00015291,-0.02918888,-0.03412499,-0.01236582,-0.01252450,0.18299049,-0
 .00182457,0.00451886,-0.00230982,0.00048206,-0.00031898,-0.00007898,-0
 .00370777,-0.00248067,0.00346519,0.00207907,0.00116263,0.00234594,-0.0
 0017605,0.00023878,0.00062606,0.00008891,-0.00022171,-0.00004221,-0.02
 502578,-0.01563929,-0.02923569,-0.00973593,0.13854254,0.12007625,-0.00
 076063,0.00143854,-0.00034169,0.00013692,-0.00004612,-0.00001446,-0.00
 017786,-0.00070668,0.00040187,-0.00082482,0.00015270,0.00047860,-0.000
 03937,0.00005214,0.00017770,0.00001879,-0.00006209,-0.00001474,-0.0043
 4728,-0.01160215,-0.00854376,-0.01682540,0.04497055,0.03590390,0.02254
 497,0.00033356,0.00116868,-0.00049988,0.00022776,-0.00002721,-0.000087
 64,-0.00053385,-0.00061128,0.00127922,0.00031034,0.00022007,0.00098321
 ,-0.00019240,0.00013713,0.00012139,0.00001072,-0.00004179,0.00003754,-
 0.00306008,-0.00339729,-0.00372669,0.03682310,-0.15724866,-0.12159863,
 -0.03471687,0.16002130,0.00045814,-0.00187220,0.00118881,-0.00009997,0
 .00010682,0.00004257,0.00072740,0.00023034,-0.00126396,0.00097012,0.00
 113914,0.00016900,0.00004430,-0.00010034,-0.00022456,-0.00005922,0.000
 11724,-0.00002055,-0.00252084,-0.00202706,0.00036945,0.02991118,-0.122
 87233,-0.09877892,-0.02791650,0.12397453,0.09904749,-0.00439104,0.0038
 9422,0.00489832,-0.00470771,0.00322435,0.00222764,0.00227420,-0.002118
 63,0.00184329,-0.00128566,-0.00257890,-0.00102569,0.00075815,0.0000765
 4,-0.00005083,-0.00006999,0.00004060,0.00004181,-0.01225897,-0.0160615
 7,0.00179903,-0.00135955,-0.00216148,-0.00023579,0.00021689,-0.0000929
 1,0.00016861,0.05730181,-0.00031504,-0.00320887,0.00255464,0.00256489,
 0.00128238,0.00149660,0.00523702,-0.00072717,0.00809359,0.00112080,-0.
 00591913,0.00000461,0.00000779,0.00022207,0.00032065,0.00016158,-0.000
 05616,0.00002992,-0.02215962,-0.14110637,0.01590540,-0.00574716,0.0020
 7311,-0.00207600,0.00049521,-0.00054715,0.00116135,-0.01485548,0.19265
 525,0.00282663,-0.00178852,-0.00220694,-0.00250845,0.00215989,0.000795
 81,-0.00117157,0.00619615,0.00262715,0.00081757,-0.00052561,0.00376442
 ,-0.00026640,0.00042320,-0.00056557,-0.00001077,0.00017949,-0.00006413
 ,0.00549825,0.02275985,-0.02036416,0.00444322,-0.00215068,0.00208068,-
 0.00065195,0.00016102,-0.00072921,-0.01740156,-0.01249599,0.02845862,-
 0.00946652,0.00443600,-0.02073418,-0.03145364,-0.00700022,-0.05127127,
 0.00130999,0.00364717,0.00123201,-0.01040320,-0.03295287,0.00500520,-0
 .00100124,0.00201373,-0.00428612,-0.00091879,0.00183779,0.00081621,-0.
 04482538,-0.03294170,0.02880944,0.00131720,-0.00149073,0.00100894,-0.0
 0028077,0.00129458,-0.00175072,-0.02099533,0.04056077,-0.00253427,0.17
 484485,-0.01163499,-0.03080207,0.03568493,-0.00404322,-0.00598353,-0.0
 0550031,0.00328144,-0.00309970,0.00119447,-0.03036957,-0.08524777,-0.0
 1072367,0.00186866,-0.00087454,0.00185668,-0.00002747,-0.00068639,-0.0
 0007031,-0.00567788,0.00582395,0.00949770,-0.00307238,-0.00132765,-0.0
 0350061,-0.00023219,0.00026515,0.00056804,0.02820000,-0.05021373,-0.01
 183496,0.01892096,0.26497719,-0.01664058,0.03615137,-0.04309612,-0.044
 37327,-0.00421845,-0.09761730,0.00351896,-0.00164422,-0.00377125,-0.01
 111435,-0.01688610,-0.00783436,0.00087920,-0.00215599,0.00018007,0.000
 02693,-0.00061303,-0.00009063,0.02093677,0.01228005,-0.02438706,-0.000
 39064,0.00150139,0.00152636,0.00062185,-0.00075440,0.00068116,0.002251
 17,-0.01711435,-0.01481545,0.02307617,-0.01984814,0.26009808,0.0031431
 6,-0.00555163,0.00220927,0.00208309,0.00328580,0.00046674,-0.00014755,
 -0.00019503,-0.00081956,-0.00119142,-0.00127521,0.00009836,0.00006035,
 -0.00016576,0.00067524,0.00017490,-0.00026481,-0.00017895,0.00100321,0
 .00207667,0.00007792,-0.00052586,-0.00008251,-0.00015313,0.00002849,-0
 .00000337,0.00001165,-0.00493419,-0.00621946,0.00611963,-0.02269417,-0
 .00624648,0.01314750,0.08844688,-0.00155691,-0.00448633,0.00394390,0.0
 0004120,0.00064207,0.00254317,-0.00073668,0.00035527,-0.00017949,-0.00
 283955,-0.00037874,0.00140596,-0.00002427,0.00020173,-0.00044300,-0.00
 009446,0.00002323,0.00004425,0.00034936,-0.00193245,0.00044392,-0.0007
 0640,-0.00023694,0.00022555,0.00002672,0.00010929,-0.00013265,-0.00193
 048,0.00180918,0.00121868,-0.01672778,-0.05679755,0.02370985,-0.071701
 59,0.21933980,0.00011409,0.00239205,0.00285599,0.00070739,0.00185220,-
 0.00165349,0.00081041,-0.00017095,0.00024718,0.00488055,0.00772541,0.0
 0031730,0.00017019,-0.00000447,0.00018728,-0.00004498,-0.00002191,0.00
 001750,-0.00188489,0.00058194,0.00171929,0.00060505,-0.00064283,-0.000
 01164,-0.00027770,0.00017527,-0.00035140,0.00343676,0.00345665,-0.0009
 1907,0.01110316,0.01104164,-0.03612427,-0.08036798,0.06188745,0.100360
 24,-0.00036061,0.00044340,0.00047289,0.00013516,-0.00004556,-0.0000090
 4,-0.00042483,-0.00025000,0.00028464,-0.00067153,-0.00034000,-0.000939
 50,0.00008124,-0.00014232,-0.00009345,-0.00002455,-0.00003911,0.000023
 73,0.00002042,-0.00010230,0.00096827,0.00013445,0.00013840,-0.00013446
 ,0.00000098,-0.00009580,0.00013626,-0.00089500,-0.00098373,-0.00036360
 ,0.00450307,-0.00453712,-0.00233628,-0.06491936,0.09224901,0.06077532,
 0.06245565,-0.00062541,0.00058977,0.00053930,0.00005747,-0.00022098,0.
 00006410,0.00000456,-0.00002724,0.00012449,0.00058936,0.00085158,-0.00
 009165,0.00006490,0.00001145,-0.00004750,-0.00002619,-0.00001028,0.000
 03153,0.00026623,-0.00049540,0.00057611,0.00013680,-0.00026179,-0.0000
 4244,-0.00007408,0.00006342,-0.00008294,-0.00059537,0.00171880,0.00007
 361,0.00135643,-0.01051979,-0.00291722,0.08493323,-0.14840512,-0.08656
 183,-0.08615411,0.15770555,0.00019832,-0.00000644,-0.00043346,0.000142
 23,0.00017708,0.00016707,-0.00018226,-0.00020433,0.00017618,-0.0007859
 2,-0.00158639,-0.00086654,-0.00001627,-0.00008366,0.00001581,0.0000154
 6,0.00000347,0.00001031,0.00086387,0.00092653,-0.00051145,0.00009061,0
 .00031598,-0.00008786,0.00006741,-0.00016542,0.00024202,0.00004960,0.0
 0042045,-0.00083356,0.00064592,0.00683864,0.00237755,0.05940235,-0.094
 43164,-0.06742264,-0.06008423,0.08807978,0.06622577,0.00234549,-0.0005
 5390,0.00460131,-0.00036171,-0.00021482,-0.00213652,0.00067748,-0.0001
 9097,-0.00030242,-0.00918123,0.00191285,0.00646682,0.00148954,0.000610
 86,0.00145006,0.00002089,-0.00096639,-0.00021617,0.00018911,0.00117570
 ,-0.00070727,-0.00007118,0.00011979,-0.00029754,-0.00002676,-0.0001089
 1,0.00038700,-0.00446715,0.00189282,0.00027568,-0.02767221,-0.00220898
 ,0.01820738,0.00175229,0.00154059,-0.00215733,0.00026664,-0.00085954,0
 .00045388,0.10441639,0.00019076,-0.00144544,0.00298849,0.00119994,0.00
 200997,-0.00243201,-0.00023985,0.00010378,-0.00014468,-0.00393465,-0.0
 0042796,0.00300711,0.00105974,-0.00080612,0.00147443,-0.00167920,0.000
 54719,0.00046175,0.00124343,-0.00114533,-0.00028342,0.00031570,-0.0000
 3919,0.00029968,0.00001086,0.00007607,-0.00013897,0.00302684,0.0011754
 7,-0.00008866,0.00401233,-0.01442345,-0.01499138,0.00317972,-0.0091623
 5,-0.00100093,-0.00034184,-0.00075051,-0.00032713,0.09097785,0.2396389
 5,0.00228489,0.00212265,-0.00574382,0.00178910,0.00020433,-0.00070136,
 0.00006225,0.00092369,0.00036034,0.00221925,0.00048350,0.00094585,0.00
 163118,0.00227407,0.00149709,0.00005057,-0.00153557,0.00041764,-0.0010
 3932,-0.00274142,-0.00105228,0.00025604,0.00036432,0.00020658,0.000089
 22,-0.00003220,0.00001255,0.00429096,-0.00172367,-0.00026646,0.0139468
 1,-0.00820985,-0.02395657,-0.00128568,-0.00013915,0.00160300,0.0008009
 0,0.00030418,0.00050226,0.01414159,0.04493545,0.11289895,-0.00097567,-
 0.00056423,-0.00060716,0.00060810,0.00118904,0.00037682,0.00008523,0.0
 0031574,0.00004316,0.00038326,0.00015858,-0.00013518,-0.00032041,-0.00
 042158,-0.00073542,-0.00049870,0.00048573,0.00023595,-0.00062079,0.000
 65389,0.00033544,-0.00013780,-0.00012535,-0.00002693,0.00000774,0.0000
 6011,-0.00007096,-0.00057911,-0.00084805,0.00065415,0.00442258,0.00578
 194,0.00218133,-0.00036956,0.00014481,0.00043404,-0.00005660,0.0004001
 9,0.00001821,-0.05694025,-0.09504201,-0.01814354,0.05636873,-0.0004253
 7,-0.00032806,-0.00035572,-0.00007112,-0.00046308,0.00035392,-0.000052
 10,-0.00006010,0.00008131,0.00080492,0.00150539,0.00030941,-0.00032420
 ,0.00005277,0.00014003,0.00007316,0.00007875,-0.00050200,-0.00057279,-
 0.00008800,0.00102442,0.00018658,0.00018887,0.00018228,0.00001144,-0.0
 0005243,0.00000660,-0.00061013,0.00003693,-0.00032095,0.00110707,-0.00
 506192,-0.00231862,0.00034150,0.00000790,-0.00058509,0.00007329,-0.000
 08336,-0.00003026,-0.08987113,-0.20134615,-0.03900137,0.08905968,0.201
 15672,-0.00100397,-0.00082057,0.00091647,-0.00005580,-0.00009518,-0.00
 066561,0.00005641,0.00001703,-0.00027981,0.00062836,0.00031425,-0.0000
 7671,0.00008982,-0.00011123,-0.00109895,-0.00047839,0.00053600,0.00044
 118,0.00059895,-0.00022050,-0.00006833,0.00001545,-0.00015343,-0.00004
 366,-0.00003073,0.00003906,-0.00002909,0.00024578,0.00069902,0.0000066
 3,-0.00233575,-0.00323896,-0.00228424,0.00021247,-0.00048403,-0.000159
 35,-0.00014012,0.00013283,0.00026650,-0.01327537,-0.03179732,-0.014038
 46,0.01830170,0.04221123,0.02559110,-0.04975665,-0.01764819,-0.0013274
 5,-0.03471039,0.03966354,0.03399303,-0.00761840,0.00270093,0.00520813,
 -0.00845895,-0.00043446,0.00366621,-0.01590341,-0.02872753,0.00363590,
 0.00618219,0.00285641,-0.00173863,-0.00925487,0.00410109,0.00190500,-0
 .00020400,0.00149372,0.00206047,0.00044488,-0.00030919,-0.00051976,-0.
 00478590,-0.00089859,0.00418567,-0.01735566,0.00916054,-0.00880919,-0.
 00178836,0.00226856,0.00166761,-0.00022403,0.00057419,-0.00097512,-0.0
 1096773,-0.00597008,-0.01546142,-0.00185624,-0.00011202,-0.00338744,0.
 17948920,-0.01153952,-0.01672021,-0.00393620,0.03778955,-0.04483338,-0
 .04158068,-0.00165588,0.00166856,0.00233797,-0.00131318,0.00332813,0.0
 0302685,-0.01574211,-0.06052899,0.01538491,0.00439479,-0.01147893,0.00
 448543,-0.00034849,-0.00089391,-0.00133858,-0.00015622,0.00088270,0.00
 088820,0.00036299,-0.00020531,-0.00008999,0.00263626,0.00088369,-0.004
 19039,0.01155522,-0.00795657,0.01059213,-0.00172891,-0.00091505,-0.000
 18399,0.00013191,-0.00012255,0.00008199,-0.00453489,-0.01779396,0.0006
 3786,-0.00122988,0.00470768,-0.00855902,-0.01571742,0.17049401,0.01744
 499,0.01064262,-0.01720995,0.03288744,-0.03929469,-0.03707383,-0.00086
 849,-0.00052588,0.00002952,-0.00008361,0.00027087,-0.00203501,-0.01342
 284,0.00558460,-0.01698926,0.00586284,0.00892547,-0.00011933,0.0043592
 4,-0.00115499,0.00454641,0.00045722,-0.00022072,0.00044159,0.00006538,
 0.00010155,-0.00052264,-0.00228598,-0.00051103,0.00266037,0.00026565,-
 0.00564060,-0.00859158,0.00026897,0.00028628,-0.00056919,0.00060293,-0
 .00013546,0.00012088,-0.02373674,-0.00203464,-0.07182865,-0.00341427,-
 0.00137102,-0.00821335,-0.00874979,0.01939413,0.18607934,-0.00343215,-
 0.00132708,0.00442860,-0.00498592,0.00286976,-0.00190852,0.00048999,0.
 00039987,-0.00066457,0.00002033,0.00013562,-0.00055613,-0.00253094,-0.
 00163613,-0.00319422,-0.00018383,0.00129186,-0.00065750,0.00096881,-0.
 00102080,0.00039851,0.00027358,-0.00018270,-0.00041048,-0.00015078,0.0
 0006624,0.00021399,0.00025495,-0.00015163,0.00006729,0.00003197,0.0023
 0840,-0.00163792,-0.00025294,-0.00042515,0.00005922,-0.00000738,-0.000
 09063,0.00010421,-0.00215464,0.00277204,-0.00503869,0.00060848,0.00026
 278,0.00097443,-0.00974809,-0.00990485,-0.00672252,0.25246579,-0.00266
 157,0.00053703,-0.00094778,0.00334151,0.00029235,0.00109454,0.00008063
 ,-0.00004474,0.00012296,0.00017865,-0.00046455,-0.00086599,-0.00454551
 ,-0.00538748,-0.00262283,-0.00290493,-0.00041413,-0.00295390,0.0005549
 0,-0.00014917,0.00100282,-0.00016056,-0.00028675,-0.00009674,-0.000055
 79,0.00008684,-0.00009126,-0.00027079,0.00006318,0.00026041,0.00035076
 ,0.00111328,-0.00076303,-0.00019936,0.00000156,-0.00001285,0.00000648,
 -0.00001417,-0.00000871,0.00166755,0.00281867,0.00196628,-0.00031804,-
 0.00030529,0.00118932,-0.00012301,-0.01824922,0.00474216,-0.02127374,0
 .27075503,-0.00207879,-0.00013054,0.00619612,-0.00020582,-0.00148924,0
 .00033404,0.00093603,-0.00016529,-0.00090703,-0.00021217,-0.00021469,-
 0.00043083,-0.00036312,0.00121159,0.00080820,0.00079923,-0.00012679,0.
 00051446,0.00065991,0.00049244,-0.00023684,-0.00000342,0.00002799,-0.0
 0036582,-0.00005996,-0.00001564,0.00026303,-0.00047424,-0.00035235,0.0
 0049459,-0.00290199,0.00266082,-0.00298952,-0.00001397,0.00007273,-0.0
 0013984,0.00003784,-0.00007601,0.00003769,-0.00345771,0.00038999,0.000
 62923,0.00072641,0.00012541,-0.00008645,-0.00543494,-0.00029266,-0.034
 32727,-0.08035699,-0.05179102,0.10206149,-0.00096673,0.00009840,-0.001
 69070,-0.00012462,0.00027917,-0.00026693,0.00002520,-0.00017507,0.0002
 4632,0.00013132,0.00006627,0.00011814,-0.00004449,0.00057756,-0.000005
 21,0.00056263,-0.00015214,0.00040503,-0.00028359,0.00009423,0.00029755
 ,-0.00001667,-0.00005682,0.00002672,-0.00001888,0.00000143,-0.00006421
 ,-0.00005946,0.00017348,-0.00004614,0.00075582,-0.00095793,0.00044051,
 0.00002931,0.00004192,-0.00001553,-0.00000768,0.00002250,-0.00000402,0
 .00100445,0.00073423,-0.00071661,-0.00002210,-0.00004479,0.00033707,-0
 .00860584,-0.00059851,-0.00034691,-0.20016375,-0.02224075,0.09491279,0
 .20611270,0.00016922,-0.00036077,0.00084989,0.00004277,0.00004887,0.00
 053146,0.00000849,-0.00003029,-0.00020255,-0.00002044,0.00003377,0.000
 04364,-0.00010973,0.00042789,-0.00048125,0.00026570,0.00057287,0.00026
 559,0.00004640,0.00009514,-0.00002118,0.00006194,0.00004172,-0.0000533
 1,0.00000398,-0.00000950,0.00005735,0.00009001,-0.00011732,-0.00004165
 ,0.00014966,0.00063142,-0.00008681,-0.00010247,-0.00007906,0.00002287,
 -0.00000290,-0.00001468,0.00000139,-0.00014603,0.00001188,0.00016982,0
 .00002833,-0.00000008,-0.00002170,0.00070724,-0.00107262,-0.00196800,-
 0.00071578,-0.02340163,0.00769954,0.02231732,0.02932213,-0.00020442,-0
 .00023170,-0.00100644,0.00007071,0.00071360,-0.00003732,-0.00001695,0.
 00014239,0.00019979,0.00011960,0.00007054,-0.00000631,-0.00048870,-0.0
 0018843,-0.00076884,0.00004534,0.00025271,-0.00012444,0.00003900,-0.00
 026729,0.00007197,0.00004566,-0.00007077,0.00001770,-0.00002028,0.0000
 2000,-0.00004681,0.00014605,0.00007704,-0.00005405,0.00031090,-0.00014
 444,0.00021991,0.00000311,-0.00006627,0.00002155,-0.00000259,0.0000037
 1,0.00001787,0.00062612,0.00100629,-0.00142579,-0.00007913,-0.00002417
 ,0.00038615,-0.00554167,-0.00427127,0.00662951,0.09381254,0.02260948,-
 0.05805535,-0.09366658,-0.01936824,0.05751403,0.00162684,0.00023848,-0
 .00122147,0.00023142,-0.00052990,-0.00084965,-0.00016137,-0.00010520,0
 .00022006,-0.00008380,0.00002216,0.00025739,0.00000324,0.00178761,-0.0
 0048874,0.00094334,-0.00124366,0.00175038,-0.00020682,0.00038803,-0.00
 035529,-0.00010516,0.00005699,0.00007837,0.00005288,-0.00001444,-0.000
 02648,-0.00001693,-0.00003560,0.00006661,-0.00011855,-0.00051374,0.000
 01448,0.00010174,0.00008109,-0.00001538,-0.00000602,0.00001947,-0.0000
 0425,-0.00031942,-0.00151580,0.00012249,-0.00010688,0.00016322,-0.0007
 5285,-0.00487775,0.00759914,-0.00258352,-0.03150349,0.04857356,-0.0025
 0908,0.00169237,-0.02279371,0.00480129,0.03285437,-0.00147510,-0.00056
 908,0.00044860,-0.00057116,-0.00024357,0.00018539,0.00010158,0.0000285
 9,-0.00017152,-0.00009240,0.00009907,0.00010216,-0.00158974,0.00352109
 ,-0.00138372,0.00290882,0.00023712,0.00214799,0.00001133,-0.00031949,0
 .00007740,0.00015945,0.00004418,-0.00003014,-0.00002916,-0.00000734,0.
 00004631,0.00008692,-0.00002417,0.00000513,-0.00012915,0.00018367,0.00
 007697,-0.00008033,-0.00009645,0.00004938,-0.00000771,-0.00001470,-0.0
 0000132,-0.00024247,0.00095848,-0.00100294,0.00027110,0.00005345,0.000
 36321,0.00641429,-0.00119407,0.00290935,0.02662193,-0.22695082,0.04197
 373,-0.00018050,-0.00609973,-0.00026317,-0.03217770,0.23039376,0.00200
 293,0.00041579,-0.00108119,0.00000727,-0.00006652,0.00015980,-0.000314
 47,0.00002867,0.00020948,0.00009087,0.00010618,0.00029255,0.00091123,0
 .00009863,0.00009301,-0.00020001,-0.00087758,0.00030666,-0.00011343,0.
 00006424,-0.00038290,-0.00007481,0.00010024,0.00016825,0.00006583,-0.0
 0001229,-0.00004893,0.00007510,0.00005346,-0.00006968,-0.00040611,-0.0
 0063109,0.00047522,0.00012605,0.00009448,0.00002156,0.00000048,0.00002
 542,-0.00000442,-0.00032278,-0.00132404,-0.00006009,-0.00009463,0.0000
 7460,-0.00056401,-0.00437663,0.00761331,-0.00302758,0.00108875,0.02716
 614,-0.01379989,0.00003871,0.01260317,-0.00355314,0.00149565,-0.045532
 80,0.02086530\\-0.00000160,-0.00000854,0.00000128,0.00000431,-0.000002
 01,0.00000085,0.00000220,-0.00000151,0.00000031,-0.00000003,-0.0000019
 6,0.00000176,-0.00000146,0.00000098,0.00000263,0.00000098,0.00000016,-
 0.00000223,0.00000705,0.00000216,-0.00000358,-0.00000137,0.00000103,0.
 00000356,0.00000032,-0.00000091,0.00000068,-0.00000593,-0.00000138,-0.
 00000653,-0.00000829,0.00000901,0.00001055,-0.00000268,-0.00000104,0.0
 0000472,-0.00000110,0.00000103,-0.00000036,-0.00000136,-0.00000082,-0.
 00000061,-0.00000126,0.00000099,0.00000230,0.00001997,0.00000275,-0.00
 001732,-0.00001788,-0.00000265,-0.00000366,0.00000224,0.00000130,0.000
 00142,0.00000591,0.00000142,0.00000421\\\@
 The archive entry for this job was punched.


 MATERIAL COPIED FROM ONE SCHOLARLY BOOK WITHOUT CREDIT COMPRISES PLAGIARISM.
 MATERIAL COPIED FROM TWO SCHOLARLY BOOKS COMPRISES AN ESSAY.
 MATERIAL COPIED FROM THREE SCHOLARLY BOOKS COMPRISES A DISSERTATION.
 MATERIAL COPIED FROM FOUR SCHOLARLY BOOKS COMPRISES A FIFTH SCHOLARLY BOOK.

                               -- C&EN, 25 FEB 1980
 Job cpu time:       0 days  0 hours 56 minutes 10.5 seconds.
 Elapsed time:       0 days  0 hours  1 minutes 11.0 seconds.
 File lengths (MBytes):  RWF=    296 Int=      0 D2E=      0 Chk=      9 Scr=      2
 Normal termination of Gaussian 16 at Mon Dec  5 17:18:49 2022.
