 Entering Gaussian System, Link 0=g16
 Initial command:
 /home/chesagar/softwares/G16_AVX2//g16/l1.exe "/home/chesagar/scratch/Gau-61513.inp" -scrdir="/home/chesagar/scratch/"
 Entering Link 1 = /home/chesagar/softwares/G16_AVX2//g16/l1.exe PID=     61514.
  
 Copyright (c) 1988-2019, Gaussian, Inc.  All Rights Reserved.
  
 This is part of the Gaussian(R) 16 program.  It is based on
 the Gaussian(R) 09 system (copyright 2009, Gaussian, Inc.),
 the Gaussian(R) 03 system (copyright 2003, Gaussian, Inc.),
 the Gaussian(R) 98 system (copyright 1998, Gaussian, Inc.),
 the Gaussian(R) 94 system (copyright 1995, Gaussian, Inc.),
 the Gaussian 92(TM) system (copyright 1992, Gaussian, Inc.),
 the Gaussian 90(TM) system (copyright 1990, Gaussian, Inc.),
 the Gaussian 88(TM) system (copyright 1988, Gaussian, Inc.),
 the Gaussian 86(TM) system (copyright 1986, Carnegie Mellon
 University), and the Gaussian 82(TM) system (copyright 1983,
 Carnegie Mellon University). Gaussian is a federally registered
 trademark of Gaussian, Inc.
  
 This software contains proprietary and confidential information,
 including trade secrets, belonging to Gaussian, Inc.
  
 This software is provided under written license and may be
 used, copied, transmitted, or stored only in accord with that
 written license.
  
 The following legend is applicable only to US Government
 contracts under FAR:
  
                    RESTRICTED RIGHTS LEGEND
  
 Use, reproduction and disclosure by the US Government is
 subject to restrictions as set forth in subparagraphs (a)
 and (c) of the Commercial Computer Software - Restricted
 Rights clause in FAR 52.227-19.
  
 Gaussian, Inc.
 340 Quinnipiac St., Bldg. 40, Wallingford CT 06492
  
  
 ---------------------------------------------------------------
 Warning -- This program may not be used in any manner that
 competes with the business of Gaussian, Inc. or will provide
 assistance to any competitor of Gaussian, Inc.  The licensee
 of this program is prohibited from giving any competitor of
 Gaussian, Inc. access to this program.  By using this program,
 the user acknowledges that Gaussian, Inc. is engaged in the
 business of creating and licensing software in the field of
 computational chemistry and represents and warrants to the
 licensee that it is not a competitor of Gaussian, Inc. and that
 it will not use this program in any manner prohibited above.
 ---------------------------------------------------------------
  

 Cite this work as:
 Gaussian 16, Revision C.01,
 M. J. Frisch, G. W. Trucks, H. B. Schlegel, G. E. Scuseria, 
 M. A. Robb, J. R. Cheeseman, G. Scalmani, V. Barone, 
 G. A. Petersson, H. Nakatsuji, X. Li, M. Caricato, A. V. Marenich, 
 J. Bloino, B. G. Janesko, R. Gomperts, B. Mennucci, H. P. Hratchian, 
 J. V. Ortiz, A. F. Izmaylov, J. L. Sonnenberg, D. Williams-Young, 
 F. Ding, F. Lipparini, F. Egidi, J. Goings, B. Peng, A. Petrone, 
 T. Henderson, D. Ranasinghe, V. G. Zakrzewski, J. Gao, N. Rega, 
 G. Zheng, W. Liang, M. Hada, M. Ehara, K. Toyota, R. Fukuda, 
 J. Hasegawa, M. Ishida, T. Nakajima, Y. Honda, O. Kitao, H. Nakai, 
 T. Vreven, K. Throssell, J. A. Montgomery, Jr., J. E. Peralta, 
 F. Ogliaro, M. J. Bearpark, J. J. Heyd, E. N. Brothers, K. N. Kudin, 
 V. N. Staroverov, T. A. Keith, R. Kobayashi, J. Normand, 
 K. Raghavachari, A. P. Rendell, J. C. Burant, S. S. Iyengar, 
 J. Tomasi, M. Cossi, J. M. Millam, M. Klene, C. Adamo, R. Cammi, 
 J. W. Ochterski, R. L. Martin, K. Morokuma, O. Farkas, 
 J. B. Foresman, and D. J. Fox, Gaussian, Inc., Wallingford CT, 2019.
 
 ******************************************
 Gaussian 16:  ES64L-G16RevC.01  3-Jul-2019
                 4-Nov-2022 
 ******************************************
 %nprocshared=46
 Will use up to   46 processors via shared memory.
 %mem=100GB
 ---------------------------------------
 # opt freq b3lyp/gen nosymm pseudo=read
 ---------------------------------------
 1/18=20,19=15,26=3,38=1/1,3;
 2/9=110,12=2,15=1,17=6,18=5,40=1/2;
 3/5=7,11=2,16=1,17=8,25=1,30=1,71=1,74=-5/1,2,3;
 4//1;
 5/5=2,38=5/2;
 6/7=2,8=2,9=2,10=2,28=1/1;
 7/30=1/1,2,3,16;
 1/18=20,19=15,26=3/3(2);
 2/9=110,15=1/2;
 99//99;
 2/9=110,15=1/2;
 3/5=7,6=1,11=2,16=1,17=8,25=1,30=1,71=1,74=-5,82=7/1,2,3;
 4/5=5,16=3,69=1/1;
 5/5=2,38=5/2;
 7/30=1/1,2,3,16;
 1/18=20,19=15,26=3/3(-5);
 2/9=110,15=1/2;
 6/7=2,8=2,9=2,10=2,19=2,28=1/1;
 99/9=1/99;
 -------------------
 Title Card Required
 -------------------
 Symbolic Z-matrix:
 Charge =  0 Multiplicity = 1
 42                    0.18383   1.59822   11.44539 
 16                    1.19471   3.64292   11.88988 
 16                   -1.97885   1.76935   12.36635 
 16                   -0.20407   1.30812   9.11687 
 16                    1.82397   0.01374   11.50758 
 42                   -2.012     2.46841   10.13598 
 16                   -3.21534   2.50807   7.99622 
 16                   -1.45339   4.76169   10.44637 
 42                    0.46414   3.54267   9.50771 
 16                    0.16907   4.08949   7.07418 
 1                     0.01297   2.90029   6.44963 
 16                    2.82912   2.87077   8.94299 
 42                    2.96388   2.11086   11.05277 
 42                   -1.95915   4.3697    8.1717 
 16                    4.19389   3.57468   12.45929 
 1                     5.43276   3.03107   12.45554 
 16                    4.83906   0.68072   10.98099 
 1                     5.85856   1.57282   10.95634 
 16                   -3.19511   6.31058   7.80001 
 1                    -4.02257   6.36878   8.86697 
 16                   -2.5796    4.48095   5.65958 
 1                    -2.71553   3.25193   5.16974 
 1                    -1.47548   4.48599   4.91811 
 

 GradGradGradGradGradGradGradGradGradGradGradGradGradGradGradGradGradGrad
 Berny optimization.
 Initialization pass.
                           ----------------------------
                           !    Initial Parameters    !
                           ! (Angstroms and Degrees)  !
 --------------------------                            --------------------------
 ! Name  Definition              Value          Derivative Info.                !
 --------------------------------------------------------------------------------
 ! R1    R(1,2)                  2.3239         estimate D2E/DX2                !
 ! R2    R(1,3)                  2.3568         estimate D2E/DX2                !
 ! R3    R(1,4)                  2.3784         estimate D2E/DX2                !
 ! R4    R(1,5)                  2.2813         estimate D2E/DX2                !
 ! R5    R(1,6)                  2.7006         estimate D2E/DX2                !
 ! R6    R(1,9)                  2.7594         estimate D2E/DX2                !
 ! R7    R(1,13)                 2.8541         estimate D2E/DX2                !
 ! R8    R(2,9)                  2.4937         estimate D2E/DX2                !
 ! R9    R(2,13)                 2.4855         estimate D2E/DX2                !
 ! R10   R(3,6)                  2.3376         estimate D2E/DX2                !
 ! R11   R(4,6)                  2.3777         estimate D2E/DX2                !
 ! R12   R(4,9)                  2.3648         estimate D2E/DX2                !
 ! R13   R(5,13)                 2.4298         estimate D2E/DX2                !
 ! R14   R(6,7)                  2.4552         estimate D2E/DX2                !
 ! R15   R(6,8)                  2.3807         estimate D2E/DX2                !
 ! R16   R(6,9)                  2.7713         estimate D2E/DX2                !
 ! R17   R(6,14)                 2.7342         estimate D2E/DX2                !
 ! R18   R(7,14)                 2.2527         estimate D2E/DX2                !
 ! R19   R(8,9)                  2.4585         estimate D2E/DX2                !
 ! R20   R(8,14)                 2.363          estimate D2E/DX2                !
 ! R21   R(9,10)                 2.5116         estimate D2E/DX2                !
 ! R22   R(9,12)                 2.5226         estimate D2E/DX2                !
 ! R23   R(9,14)                 2.8881         estimate D2E/DX2                !
 ! R24   R(10,11)                1.3523         estimate D2E/DX2                !
 ! R25   R(10,14)                2.4109         estimate D2E/DX2                !
 ! R26   R(12,13)                2.2465         estimate D2E/DX2                !
 ! R27   R(13,15)                2.3736         estimate D2E/DX2                !
 ! R28   R(13,17)                2.3594         estimate D2E/DX2                !
 ! R29   R(14,19)                2.3308         estimate D2E/DX2                !
 ! R30   R(14,21)                2.59           estimate D2E/DX2                !
 ! R31   R(15,16)                1.3529         estimate D2E/DX2                !
 ! R32   R(17,18)                1.3549         estimate D2E/DX2                !
 ! R33   R(19,20)                1.3515         estimate D2E/DX2                !
 ! R34   R(21,22)                1.33           estimate D2E/DX2                !
 ! R35   R(21,23)                1.33           estimate D2E/DX2                !
 ! A1    A(2,1,3)              105.1021         estimate D2E/DX2                !
 ! A2    A(2,1,4)              111.4405         estimate D2E/DX2                !
 ! A3    A(2,1,5)              107.047          estimate D2E/DX2                !
 ! A4    A(2,1,6)               99.3764         estimate D2E/DX2                !
 ! A5    A(3,1,4)              103.9912         estimate D2E/DX2                !
 ! A6    A(3,1,5)              134.3862         estimate D2E/DX2                !
 ! A7    A(3,1,9)              108.4487         estimate D2E/DX2                !
 ! A8    A(3,1,13)             159.1543         estimate D2E/DX2                !
 ! A9    A(4,1,5)               93.3954         estimate D2E/DX2                !
 ! A10   A(4,1,13)              92.6419         estimate D2E/DX2                !
 ! A11   A(5,1,6)              145.2416         estimate D2E/DX2                !
 ! A12   A(5,1,9)              115.8192         estimate D2E/DX2                !
 ! A13   A(6,1,13)             131.8684         estimate D2E/DX2                !
 ! A14   A(9,1,13)              71.2084         estimate D2E/DX2                !
 ! A15   A(9,2,13)              82.069          estimate D2E/DX2                !
 ! A16   A(1,6,7)              145.7158         estimate D2E/DX2                !
 ! A17   A(1,6,8)               93.2328         estimate D2E/DX2                !
 ! A18   A(1,6,14)             123.8249         estimate D2E/DX2                !
 ! A19   A(3,6,4)              104.6098         estimate D2E/DX2                !
 ! A20   A(3,6,7)              147.4919         estimate D2E/DX2                !
 ! A21   A(3,6,8)               99.2275         estimate D2E/DX2                !
 ! A22   A(3,6,9)              108.6366         estimate D2E/DX2                !
 ! A23   A(3,6,14)             153.2686         estimate D2E/DX2                !
 ! A24   A(4,6,7)               90.4014         estimate D2E/DX2                !
 ! A25   A(4,6,8)              110.337          estimate D2E/DX2                !
 ! A26   A(4,6,14)              90.9576         estimate D2E/DX2                !
 ! A27   A(7,6,8)              102.3023         estimate D2E/DX2                !
 ! A28   A(7,6,9)              103.537          estimate D2E/DX2                !
 ! A29   A(1,9,8)               90.1182         estimate D2E/DX2                !
 ! A30   A(1,9,10)             145.2733         estimate D2E/DX2                !
 ! A31   A(1,9,12)              93.7125         estimate D2E/DX2                !
 ! A32   A(1,9,14)             116.1925         estimate D2E/DX2                !
 ! A33   A(2,9,4)              106.1796         estimate D2E/DX2                !
 ! A34   A(2,9,6)               93.4846         estimate D2E/DX2                !
 ! A35   A(2,9,8)               81.0158         estimate D2E/DX2                !
 ! A36   A(2,9,10)             162.0355         estimate D2E/DX2                !
 ! A37   A(2,9,12)              87.1283         estimate D2E/DX2                !
 ! A38   A(2,9,14)             132.5475         estimate D2E/DX2                !
 ! A39   A(4,9,8)              108.134          estimate D2E/DX2                !
 ! A40   A(4,9,10)              90.7101         estimate D2E/DX2                !
 ! A41   A(4,9,12)              88.6379         estimate D2E/DX2                !
 ! A42   A(4,9,14)              87.538          estimate D2E/DX2                !
 ! A43   A(6,9,10)             101.4835         estimate D2E/DX2                !
 ! A44   A(6,9,12)             141.7369         estimate D2E/DX2                !
 ! A45   A(8,9,10)              99.8081         estimate D2E/DX2                !
 ! A46   A(8,9,12)             161.5831         estimate D2E/DX2                !
 ! A47   A(10,9,12)             87.2044         estimate D2E/DX2                !
 ! A48   A(12,9,14)            139.4064         estimate D2E/DX2                !
 ! A49   A(9,10,11)            105.6401         estimate D2E/DX2                !
 ! A50   A(11,10,14)           102.1553         estimate D2E/DX2                !
 ! A51   A(9,12,13)             86.3359         estimate D2E/DX2                !
 ! A52   A(1,13,12)             97.5575         estimate D2E/DX2                !
 ! A53   A(1,13,15)            122.2779         estimate D2E/DX2                !
 ! A54   A(1,13,17)            132.0263         estimate D2E/DX2                !
 ! A55   A(2,13,5)              97.7604         estimate D2E/DX2                !
 ! A56   A(2,13,12)             93.7324         estimate D2E/DX2                !
 ! A57   A(2,13,15)             77.8277         estimate D2E/DX2                !
 ! A58   A(2,13,17)            161.7271         estimate D2E/DX2                !
 ! A59   A(5,13,12)            116.0772         estimate D2E/DX2                !
 ! A60   A(5,13,15)            131.6402         estimate D2E/DX2                !
 ! A61   A(5,13,17)             81.6858         estimate D2E/DX2                !
 ! A62   A(12,13,15)           112.2705         estimate D2E/DX2                !
 ! A63   A(12,13,17)           102.9521         estimate D2E/DX2                !
 ! A64   A(15,13,17)            88.8533         estimate D2E/DX2                !
 ! A65   A(6,14,10)            105.2653         estimate D2E/DX2                !
 ! A66   A(6,14,19)            133.1049         estimate D2E/DX2                !
 ! A67   A(6,14,21)            136.2229         estimate D2E/DX2                !
 ! A68   A(7,14,8)             109.3562         estimate D2E/DX2                !
 ! A69   A(7,14,9)             105.5027         estimate D2E/DX2                !
 ! A70   A(7,14,10)            111.1465         estimate D2E/DX2                !
 ! A71   A(7,14,19)            112.3354         estimate D2E/DX2                !
 ! A72   A(7,14,21)             80.0            estimate D2E/DX2                !
 ! A73   A(8,14,10)            105.579          estimate D2E/DX2                !
 ! A74   A(8,14,19)             97.4042         estimate D2E/DX2                !
 ! A75   A(9,14,19)            139.2127         estimate D2E/DX2                !
 ! A76   A(9,14,21)            131.4511         estimate D2E/DX2                !
 ! A77   A(10,14,19)           119.4906         estimate D2E/DX2                !
 ! A78   A(10,14,21)            76.9922         estimate D2E/DX2                !
 ! A79   A(19,14,21)            71.49           estimate D2E/DX2                !
 ! A80   A(13,15,16)           103.0079         estimate D2E/DX2                !
 ! A81   A(13,17,18)           101.5063         estimate D2E/DX2                !
 ! A82   A(14,19,20)           103.5697         estimate D2E/DX2                !
 ! A83   A(14,21,22)           110.0            estimate D2E/DX2                !
 ! A84   A(14,21,23)           110.0            estimate D2E/DX2                !
 ! A85   A(22,21,23)            83.2823         estimate D2E/DX2                !
 ! A86   L(8,14,21,7,-1)       189.3562         estimate D2E/DX2                !
 ! A87   L(8,14,21,7,-2)       172.0825         estimate D2E/DX2                !
 ! D1    D(2,1,6,7)            114.5679         estimate D2E/DX2                !
 ! D2    D(2,1,6,8)             -2.9293         estimate D2E/DX2                !
 ! D3    D(2,1,6,14)            45.5956         estimate D2E/DX2                !
 ! D4    D(5,1,6,7)            -24.8185         estimate D2E/DX2                !
 ! D5    D(5,1,6,8)           -142.3157         estimate D2E/DX2                !
 ! D6    D(5,1,6,14)           -93.7908         estimate D2E/DX2                !
 ! D7    D(13,1,6,7)            62.0133         estimate D2E/DX2                !
 ! D8    D(13,1,6,8)           -55.4839         estimate D2E/DX2                !
 ! D9    D(13,1,6,14)           -6.959          estimate D2E/DX2                !
 ! D10   D(3,1,9,8)             18.1177         estimate D2E/DX2                !
 ! D11   D(3,1,9,10)           -89.4608         estimate D2E/DX2                !
 ! D12   D(3,1,9,12)          -179.9087         estimate D2E/DX2                !
 ! D13   D(3,1,9,14)           -28.2741         estimate D2E/DX2                !
 ! D14   D(5,1,9,8)           -173.196          estimate D2E/DX2                !
 ! D15   D(5,1,9,10)            79.2255         estimate D2E/DX2                !
 ! D16   D(5,1,9,12)           -11.2223         estimate D2E/DX2                !
 ! D17   D(5,1,9,14)           140.4123         estimate D2E/DX2                !
 ! D18   D(13,1,9,8)          -139.8741         estimate D2E/DX2                !
 ! D19   D(13,1,9,10)          112.5474         estimate D2E/DX2                !
 ! D20   D(13,1,9,12)           22.0995         estimate D2E/DX2                !
 ! D21   D(13,1,9,14)          173.7341         estimate D2E/DX2                !
 ! D22   D(3,1,13,12)         -117.7895         estimate D2E/DX2                !
 ! D23   D(3,1,13,15)            4.6207         estimate D2E/DX2                !
 ! D24   D(3,1,13,17)          127.1266         estimate D2E/DX2                !
 ! D25   D(4,1,13,12)           25.4666         estimate D2E/DX2                !
 ! D26   D(4,1,13,15)          147.8768         estimate D2E/DX2                !
 ! D27   D(4,1,13,17)          -89.6173         estimate D2E/DX2                !
 ! D28   D(6,1,13,12)          -18.2978         estimate D2E/DX2                !
 ! D29   D(6,1,13,15)          104.1125         estimate D2E/DX2                !
 ! D30   D(6,1,13,17)         -133.3816         estimate D2E/DX2                !
 ! D31   D(9,1,13,12)          -25.167          estimate D2E/DX2                !
 ! D32   D(9,1,13,15)           97.2433         estimate D2E/DX2                !
 ! D33   D(9,1,13,17)         -140.2508         estimate D2E/DX2                !
 ! D34   D(13,2,9,4)            65.2307         estimate D2E/DX2                !
 ! D35   D(13,2,9,6)           119.1655         estimate D2E/DX2                !
 ! D36   D(13,2,9,8)           171.6241         estimate D2E/DX2                !
 ! D37   D(13,2,9,10)          -94.2721         estimate D2E/DX2                !
 ! D38   D(13,2,9,12)          -22.5148         estimate D2E/DX2                !
 ! D39   D(13,2,9,14)          167.095          estimate D2E/DX2                !
 ! D40   D(9,2,13,5)           -91.4771         estimate D2E/DX2                !
 ! D41   D(9,2,13,12)           25.49           estimate D2E/DX2                !
 ! D42   D(9,2,13,15)          137.4803         estimate D2E/DX2                !
 ! D43   D(9,2,13,17)         -178.4548         estimate D2E/DX2                !
 ! D44   D(1,4,6,9)             76.2628         estimate D2E/DX2                !
 ! D45   D(3,6,9,2)            -12.6058         estimate D2E/DX2                !
 ! D46   D(3,6,9,10)           177.3812         estimate D2E/DX2                !
 ! D47   D(3,6,9,12)            77.1739         estimate D2E/DX2                !
 ! D48   D(7,6,9,2)            172.1138         estimate D2E/DX2                !
 ! D49   D(7,6,9,10)             2.1007         estimate D2E/DX2                !
 ! D50   D(7,6,9,12)           -98.1065         estimate D2E/DX2                !
 ! D51   D(1,6,14,10)           31.8127         estimate D2E/DX2                !
 ! D52   D(1,6,14,19)         -130.8095         estimate D2E/DX2                !
 ! D53   D(1,6,14,21)          118.8086         estimate D2E/DX2                !
 ! D54   D(3,6,14,10)          110.4946         estimate D2E/DX2                !
 ! D55   D(3,6,14,19)          -52.1276         estimate D2E/DX2                !
 ! D56   D(3,6,14,21)         -162.5096         estimate D2E/DX2                !
 ! D57   D(4,6,14,10)          -15.9489         estimate D2E/DX2                !
 ! D58   D(4,6,14,19)         -178.5711         estimate D2E/DX2                !
 ! D59   D(4,6,14,21)           71.0469         estimate D2E/DX2                !
 ! D60   D(6,8,9,14)            74.667          estimate D2E/DX2                !
 ! D61   D(1,9,10,11)          -15.478          estimate D2E/DX2                !
 ! D62   D(2,9,10,11)          148.7523         estimate D2E/DX2                !
 ! D63   D(4,9,10,11)          -11.595          estimate D2E/DX2                !
 ! D64   D(6,9,10,11)          -65.3896         estimate D2E/DX2                !
 ! D65   D(8,9,10,11)         -120.1385         estimate D2E/DX2                !
 ! D66   D(12,9,10,11)          77.0065         estimate D2E/DX2                !
 ! D67   D(1,9,12,13)          -26.9626         estimate D2E/DX2                !
 ! D68   D(2,9,12,13)           24.8644         estimate D2E/DX2                !
 ! D69   D(4,9,12,13)          -81.412          estimate D2E/DX2                !
 ! D70   D(6,9,12,13)          -67.1224         estimate D2E/DX2                !
 ! D71   D(8,9,12,13)           74.6566         estimate D2E/DX2                !
 ! D72   D(10,9,12,13)        -172.1897         estimate D2E/DX2                !
 ! D73   D(14,9,12,13)        -166.0306         estimate D2E/DX2                !
 ! D74   D(1,9,14,7)           -35.6894         estimate D2E/DX2                !
 ! D75   D(1,9,14,19)          122.0087         estimate D2E/DX2                !
 ! D76   D(1,9,14,21)         -125.9503         estimate D2E/DX2                !
 ! D77   D(2,9,14,7)           -97.3056         estimate D2E/DX2                !
 ! D78   D(2,9,14,19)           60.3925         estimate D2E/DX2                !
 ! D79   D(2,9,14,21)          172.4335         estimate D2E/DX2                !
 ! D80   D(4,9,14,7)            12.5174         estimate D2E/DX2                !
 ! D81   D(4,9,14,19)          170.2155         estimate D2E/DX2                !
 ! D82   D(4,9,14,21)          -77.7436         estimate D2E/DX2                !
 ! D83   D(12,9,14,7)           97.5411         estimate D2E/DX2                !
 ! D84   D(12,9,14,19)        -104.7608         estimate D2E/DX2                !
 ! D85   D(12,9,14,21)           7.2802         estimate D2E/DX2                !
 ! D86   D(11,10,14,6)          69.0384         estimate D2E/DX2                !
 ! D87   D(11,10,14,7)           7.9133         estimate D2E/DX2                !
 ! D88   D(11,10,14,8)         126.3878         estimate D2E/DX2                !
 ! D89   D(11,10,14,19)       -125.4698         estimate D2E/DX2                !
 ! D90   D(11,10,14,21)        -65.7999         estimate D2E/DX2                !
 ! D91   D(9,12,13,1)           26.1855         estimate D2E/DX2                !
 ! D92   D(9,12,13,2)          -24.9747         estimate D2E/DX2                !
 ! D93   D(9,12,13,5)           75.5454         estimate D2E/DX2                !
 ! D94   D(9,12,13,15)        -103.3431         estimate D2E/DX2                !
 ! D95   D(9,12,13,17)         162.5282         estimate D2E/DX2                !
 ! D96   D(1,13,15,16)         148.1818         estimate D2E/DX2                !
 ! D97   D(2,13,15,16)         174.3829         estimate D2E/DX2                !
 ! D98   D(5,13,15,16)          84.7806         estimate D2E/DX2                !
 ! D99   D(12,13,15,16)        -96.5553         estimate D2E/DX2                !
 ! D100  D(17,13,15,16)          6.9806         estimate D2E/DX2                !
 ! D101  D(1,13,17,18)        -171.6276         estimate D2E/DX2                !
 ! D102  D(2,13,17,18)         -79.9614         estimate D2E/DX2                !
 ! D103  D(5,13,17,18)        -169.5406         estimate D2E/DX2                !
 ! D104  D(12,13,17,18)         75.4834         estimate D2E/DX2                !
 ! D105  D(15,13,17,18)        -37.12           estimate D2E/DX2                !
 ! D106  D(6,14,19,20)           1.7748         estimate D2E/DX2                !
 ! D107  D(7,14,19,20)          68.2285         estimate D2E/DX2                !
 ! D108  D(8,14,19,20)         -46.2735         estimate D2E/DX2                !
 ! D109  D(9,14,19,20)         -88.4843         estimate D2E/DX2                !
 ! D110  D(10,14,19,20)       -158.8944         estimate D2E/DX2                !
 ! D111  D(21,14,19,20)        138.6242         estimate D2E/DX2                !
 ! D112  D(6,14,21,22)         -15.363          estimate D2E/DX2                !
 ! D113  D(6,14,21,23)        -105.363          estimate D2E/DX2                !
 ! D114  D(7,14,21,22)         -31.3922         estimate D2E/DX2                !
 ! D115  D(7,14,21,23)        -121.3922         estimate D2E/DX2                !
 ! D116  D(9,14,21,22)          70.5178         estimate D2E/DX2                !
 ! D117  D(9,14,21,23)         -19.4822         estimate D2E/DX2                !
 ! D118  D(10,14,21,22)         83.2342         estimate D2E/DX2                !
 ! D119  D(10,14,21,23)         -6.7658         estimate D2E/DX2                !
 ! D120  D(19,14,21,22)       -149.1655         estimate D2E/DX2                !
 ! D121  D(19,14,21,23)        120.8345         estimate D2E/DX2                !
 --------------------------------------------------------------------------------
 Trust Radius=3.00D-01 FncErr=1.00D-07 GrdErr=1.00D-06 EigMax=2.50D+02 EigMin=1.00D-04
 Number of steps in this run=    138 maximum allowed number of steps=    138.
 GradGradGradGradGradGradGradGradGradGradGradGradGradGradGradGradGradGrad

                          Input orientation:                          
 ---------------------------------------------------------------------
 Center     Atomic      Atomic             Coordinates (Angstroms)
 Number     Number       Type             X           Y           Z
 ---------------------------------------------------------------------
      1         42           0        0.183828    1.598218   11.445386
      2         16           0        1.194712    3.642924   11.889879
      3         16           0       -1.978853    1.769345   12.366350
      4         16           0       -0.204068    1.308118    9.116868
      5         16           0        1.823965    0.013742   11.507575
      6         42           0       -2.012001    2.468411   10.135985
      7         16           0       -3.215336    2.508067    7.996224
      8         16           0       -1.453389    4.761687   10.446367
      9         42           0        0.464142    3.542668    9.507708
     10         16           0        0.169069    4.089492    7.074181
     11          1           0        0.012973    2.900291    6.449631
     12         16           0        2.829119    2.870768    8.942986
     13         42           0        2.963875    2.110863   11.052773
     14         42           0       -1.959146    4.369695    8.171703
     15         16           0        4.193891    3.574680   12.459294
     16          1           0        5.432757    3.031073   12.455539
     17         16           0        4.839059    0.680720   10.980991
     18          1           0        5.858562    1.572824   10.956342
     19         16           0       -3.195114    6.310575    7.800012
     20          1           0       -4.022567    6.368779    8.866972
     21         16           0       -2.579604    4.480946    5.659581
     22          1           0       -2.715528    3.251931    5.169736
     23          1           0       -1.475476    4.485994    4.918113
 ---------------------------------------------------------------------
                    Distance matrix (angstroms):
                    1          2          3          4          5
     1  Mo   0.000000
     2  S    2.323851   0.000000
     3  S    2.356830   3.716024   0.000000
     4  S    2.378364   3.885549   3.731183   0.000000
     5  S    2.281333   3.703117   4.275636   3.391726   0.000000
     6  Mo   2.700635   3.839093   2.337589   2.377709   4.756185
     7  S    4.927358   5.991408   4.601370   3.429789   6.629163
     8  S    3.699467   3.216799   3.593961   3.905830   5.866020
     9  Mo   2.759358   2.493697   4.157491   2.364841   4.278073
    10  S    5.031312   4.943917   6.164714   3.471000   6.245430
    11  H    5.165477   5.616432   6.344602   3.113884   6.098742
    12  S    3.857325   3.457122   6.004094   3.416480   3.968633
    13  Mo   2.854052   2.485537   5.125688   3.798419   2.429847
    14  Mo   4.794833   4.929488   4.935309   3.653339   6.664405
    15  S    4.584214   3.053517   6.432001   5.970859   4.382077
    16  H    5.533962   4.319185   7.518768   6.774149   4.798573
    17  S    4.767456   4.783513   7.041892   5.413106   3.132562
    18  H    5.695824   5.187321   7.965665   6.341074   4.360340
    19  S    6.849256   6.566121   6.553892   5.975370   8.864947
    20  H    6.862961   6.617269   6.130025   6.344578   9.030017
    21  S    7.030093   7.332418   7.259093   5.259547   8.575917
    22  H    7.108081   7.784804   7.384579   5.066132   8.441627
    23  H    7.327881   7.513068   7.944168   5.417095   8.620230
                    6          7          8          9         10
     6  Mo   0.000000
     7  S    2.455232   0.000000
     8  S    2.380651   3.766492   0.000000
     9  Mo   2.771289   4.110175   2.458457   0.000000
    10  S    4.093851   3.847761   3.802086   2.511601   0.000000
    11  H    4.228031   3.601079   4.646387   3.157220   1.352268
    12  S    5.002158   6.128894   4.916869   2.522593   3.471828
    13  Mo   5.072246   6.905281   5.187178   3.268938   5.249296
    14  Mo   2.734242   2.252657   2.362952   2.888115   2.410885
    15  S    6.718236   8.715119   6.111680   4.756460   6.742675
    16  H    7.818014   9.744154   7.379079   5.799877   7.601689
    17  S    7.130701   8.781874   7.518977   5.431501   6.977944
    18  H    7.963719   9.590235   7.993344   5.922718   7.333152
    19  S    4.649597   3.807621   3.526451   4.895681   4.096067
    20  H    4.567892   4.039173   3.417296   5.341161   5.096966
    21  S    4.940714   3.123508   4.925494   4.995281   3.116012
    22  H    5.076660   2.965160   5.631624   5.386356   3.556588
    23  H    5.620026   4.051429   5.535169   5.071131   2.740506
                   11         12         13         14         15
    11  H    0.000000
    12  S    3.761432   0.000000
    13  Mo   5.524485   2.246512   0.000000
    14  Mo   3.002321   5.076331   6.135065   0.000000
    15  S    7.351933   3.836993   2.373605   7.541575   0.000000
    16  H    8.090865   4.375232   2.984948   8.647739   1.352890
    17  S    6.982179   3.604113   2.359402   8.228987   3.313099
    18  H    7.499568   3.862096   2.945844   8.757469   3.006230
    19  S    4.872924   7.030650   8.133338   2.330834   9.153766
    20  H    5.844615   7.693339   8.468645   2.955916   9.392654
    21  S    3.137531   6.528989   8.089126   2.590000   9.640417
    22  H    3.034221   6.717575   8.256378   3.291400  10.048975
    23  H    2.659978   6.110491   7.936192   3.291400   9.478482
                   16         17         18         19         20
    16  H    0.000000
    17  S    2.837416   0.000000
    18  H    2.134336   1.354933   0.000000
    19  S   10.337757  10.313187  10.694754   0.000000
    20  H   10.649941  10.740182  11.180490   1.351470   0.000000
    21  S   10.605899   9.889169  10.378607   2.882332   3.991668
    22  H   10.932806   9.871859  10.479467   4.062469   5.009256
    23  H   10.327307   9.545258   9.936543   3.819895   5.062217
                   21         22         23
    21  S    0.000000
    22  H    1.330000   0.000000
    23  H    1.330000   1.767472   0.000000
 Symmetry turned off by external request.
 Stoichiometry    H6Mo5S12
 Framework group  C1[X(H6Mo5S12)]
 Deg. of freedom    63
 Full point group                 C1      NOp   1
 Rotational constants (GHZ):           0.2031868           0.0712719           0.0634201
 General basis read from cards:  (5D, 7F)
 ======================================================================================================
                                       Pseudopotential Parameters
 ======================================================================================================
  Center     Atomic      Valence      Angular      Power
  Number     Number     Electrons     Momentum     of R      Exponent        Coefficient   SO-Coeffient
 ======================================================================================================
    1         42           14
                                      F and up 
                                                     0      537.9667807       -0.04694920    0.00000000
                                                     1      147.8982938      -20.20800840    0.00000000
                                                     2       45.7358898     -106.21163020    0.00000000
                                                     2       13.2911467      -41.81073680    0.00000000
                                                     2        4.7059961       -4.20541030    0.00000000
                                      S - F
                                                     0      110.2991760        2.80637170    0.00000000
                                                     1       23.2014645       44.51620120    0.00000000
                                                     2        5.3530131       82.77852270    0.00000000
                                      P - F
                                                     0       63.2901397        4.94208760    0.00000000
                                                     1       23.3315302       25.86049760    0.00000000
                                                     2       24.6759423      132.47087420    0.00000000
                                                     2        4.6493040       57.31497940    0.00000000
                                      D - F
                                                     0      104.4839977        3.00545910    0.00000000
                                                     1       66.2307245       26.36378510    0.00000000
                                                     2       39.1283176      183.38491990    0.00000000
                                                     2       13.1164437       98.44530680    0.00000000
                                                     2        3.6280263       22.49013770    0.00000000
    2         16
                                   No pseudopotential on this center.
    3         16
                                   No pseudopotential on this center.
    4         16
                                   No pseudopotential on this center.
    5         16
                                   No pseudopotential on this center.
    6         42           14
                                      F and up 
                                                     0      537.9667807       -0.04694920    0.00000000
                                                     1      147.8982938      -20.20800840    0.00000000
                                                     2       45.7358898     -106.21163020    0.00000000
                                                     2       13.2911467      -41.81073680    0.00000000
                                                     2        4.7059961       -4.20541030    0.00000000
                                      S - F
                                                     0      110.2991760        2.80637170    0.00000000
                                                     1       23.2014645       44.51620120    0.00000000
                                                     2        5.3530131       82.77852270    0.00000000
                                      P - F
                                                     0       63.2901397        4.94208760    0.00000000
                                                     1       23.3315302       25.86049760    0.00000000
                                                     2       24.6759423      132.47087420    0.00000000
                                                     2        4.6493040       57.31497940    0.00000000
                                      D - F
                                                     0      104.4839977        3.00545910    0.00000000
                                                     1       66.2307245       26.36378510    0.00000000
                                                     2       39.1283176      183.38491990    0.00000000
                                                     2       13.1164437       98.44530680    0.00000000
                                                     2        3.6280263       22.49013770    0.00000000
    7         16
                                   No pseudopotential on this center.
    8         16
                                   No pseudopotential on this center.
    9         42           14
                                      F and up 
                                                     0      537.9667807       -0.04694920    0.00000000
                                                     1      147.8982938      -20.20800840    0.00000000
                                                     2       45.7358898     -106.21163020    0.00000000
                                                     2       13.2911467      -41.81073680    0.00000000
                                                     2        4.7059961       -4.20541030    0.00000000
                                      S - F
                                                     0      110.2991760        2.80637170    0.00000000
                                                     1       23.2014645       44.51620120    0.00000000
                                                     2        5.3530131       82.77852270    0.00000000
                                      P - F
                                                     0       63.2901397        4.94208760    0.00000000
                                                     1       23.3315302       25.86049760    0.00000000
                                                     2       24.6759423      132.47087420    0.00000000
                                                     2        4.6493040       57.31497940    0.00000000
                                      D - F
                                                     0      104.4839977        3.00545910    0.00000000
                                                     1       66.2307245       26.36378510    0.00000000
                                                     2       39.1283176      183.38491990    0.00000000
                                                     2       13.1164437       98.44530680    0.00000000
                                                     2        3.6280263       22.49013770    0.00000000
   10         16
                                   No pseudopotential on this center.
   11          1
                                   No pseudopotential on this center.
   12         16
                                   No pseudopotential on this center.
   13         42           14
                                      F and up 
                                                     0      537.9667807       -0.04694920    0.00000000
                                                     1      147.8982938      -20.20800840    0.00000000
                                                     2       45.7358898     -106.21163020    0.00000000
                                                     2       13.2911467      -41.81073680    0.00000000
                                                     2        4.7059961       -4.20541030    0.00000000
                                      S - F
                                                     0      110.2991760        2.80637170    0.00000000
                                                     1       23.2014645       44.51620120    0.00000000
                                                     2        5.3530131       82.77852270    0.00000000
                                      P - F
                                                     0       63.2901397        4.94208760    0.00000000
                                                     1       23.3315302       25.86049760    0.00000000
                                                     2       24.6759423      132.47087420    0.00000000
                                                     2        4.6493040       57.31497940    0.00000000
                                      D - F
                                                     0      104.4839977        3.00545910    0.00000000
                                                     1       66.2307245       26.36378510    0.00000000
                                                     2       39.1283176      183.38491990    0.00000000
                                                     2       13.1164437       98.44530680    0.00000000
                                                     2        3.6280263       22.49013770    0.00000000
   14         42           14
                                      F and up 
                                                     0      537.9667807       -0.04694920    0.00000000
                                                     1      147.8982938      -20.20800840    0.00000000
                                                     2       45.7358898     -106.21163020    0.00000000
                                                     2       13.2911467      -41.81073680    0.00000000
                                                     2        4.7059961       -4.20541030    0.00000000
                                      S - F
                                                     0      110.2991760        2.80637170    0.00000000
                                                     1       23.2014645       44.51620120    0.00000000
                                                     2        5.3530131       82.77852270    0.00000000
                                      P - F
                                                     0       63.2901397        4.94208760    0.00000000
                                                     1       23.3315302       25.86049760    0.00000000
                                                     2       24.6759423      132.47087420    0.00000000
                                                     2        4.6493040       57.31497940    0.00000000
                                      D - F
                                                     0      104.4839977        3.00545910    0.00000000
                                                     1       66.2307245       26.36378510    0.00000000
                                                     2       39.1283176      183.38491990    0.00000000
                                                     2       13.1164437       98.44530680    0.00000000
                                                     2        3.6280263       22.49013770    0.00000000
   15         16
                                   No pseudopotential on this center.
   16          1
                                   No pseudopotential on this center.
   17         16
                                   No pseudopotential on this center.
   18          1
                                   No pseudopotential on this center.
   19         16
                                   No pseudopotential on this center.
   20          1
                                   No pseudopotential on this center.
   21         16
                                   No pseudopotential on this center.
   22          1
                                   No pseudopotential on this center.
   23          1
                                   No pseudopotential on this center.
 ======================================================================================================
   356 basis functions,   911 primitive gaussians,   378 cartesian basis functions
   134 alpha electrons      134 beta electrons
       nuclear repulsion energy      4392.3403270759 Hartrees.
 NAtoms=   23 NActive=   23 NUniq=   23 SFac= 1.00D+00 NAtFMM=   60 NAOKFM=F Big=F
 Integral buffers will be    131072 words long.
 Raffenetti 2 integral format.
 Two-electron integral symmetry is turned off.
 One-electron integrals computed using PRISM.
   1 Symmetry operations used in ECPInt.
 ECPInt:  NShTT=    7021 NPrTT=   51519 LenC2=    6179 LenP2D=   29198.
 LDataN:  DoStor=T MaxTD1= 5 Len=  102
 NBasis=   356 RedAO= T EigKep=  8.99D-04  NBF=   356
 NBsUse=   356 1.00D-06 EigRej= -1.00D+00 NBFU=   356
 Defaulting to unpruned grid for atomic number  42.
 Defaulting to unpruned grid for atomic number  42.
 Defaulting to unpruned grid for atomic number  42.
 Defaulting to unpruned grid for atomic number  42.
 Defaulting to unpruned grid for atomic number  42.
 ExpMin= 2.47D-02 ExpMax= 2.19D+04 ExpMxC= 3.30D+03 IAcc=3 IRadAn=         5 AccDes= 0.00D+00
 Harris functional with IExCor=  402 and IRadAn=       5 diagonalized for initial guess.
 HarFok:  IExCor=  402 AccDes= 0.00D+00 IRadAn=         5 IDoV= 1 UseB2=F ITyADJ=14
 ICtDFT=  3500011 ScaDFX=  1.000000  1.000000  1.000000  1.000000
 Defaulting to unpruned grid for atomic number  42.
 FoFCou: FMM=F IPFlag=           0 FMFlag=      100000 FMFlg1=           0
         NFxFlg=           0 DoJE=T BraDBF=F KetDBF=T FulRan=T
         wScrn=  0.000000 ICntrl=       500 IOpCl=  0 I1Cent=   200000004 NGrid=           0
         NMat0=    1 NMatS0=      1 NMatT0=    0 NMatD0=    1 NMtDS0=    0 NMtDT0=    0
 Symmetry not used in FoFCou.
 Requested convergence on RMS density matrix=1.00D-08 within 128 cycles.
 Requested convergence on MAX density matrix=1.00D-06.
 Requested convergence on             energy=1.00D-06.
 No special actions if energy rises.
 Defaulting to unpruned grid for atomic number  42.
 Defaulting to unpruned grid for atomic number  42.
 Defaulting to unpruned grid for atomic number  42.
 Defaulting to unpruned grid for atomic number  42.
 Defaulting to unpruned grid for atomic number  42.
 Defaulting to unpruned grid for atomic number  42.
 Defaulting to unpruned grid for atomic number  42.
 Defaulting to unpruned grid for atomic number  42.
 Defaulting to unpruned grid for atomic number  42.
 Defaulting to unpruned grid for atomic number  42.
 Defaulting to unpruned grid for atomic number  42.
 Defaulting to unpruned grid for atomic number  42.
 Defaulting to unpruned grid for atomic number  42.
 Defaulting to unpruned grid for atomic number  42.
 Defaulting to unpruned grid for atomic number  42.
 Defaulting to unpruned grid for atomic number  42.
 Defaulting to unpruned grid for atomic number  42.
 Defaulting to unpruned grid for atomic number  42.
 Defaulting to unpruned grid for atomic number  42.
 Defaulting to unpruned grid for atomic number  42.
 Defaulting to unpruned grid for atomic number  42.
 Defaulting to unpruned grid for atomic number  42.
 Defaulting to unpruned grid for atomic number  42.
 Defaulting to unpruned grid for atomic number  42.
 Defaulting to unpruned grid for atomic number  42.
 Defaulting to unpruned grid for atomic number  42.
 Defaulting to unpruned grid for atomic number  42.
 Defaulting to unpruned grid for atomic number  42.
 Defaulting to unpruned grid for atomic number  42.
 Defaulting to unpruned grid for atomic number  42.
 Defaulting to unpruned grid for atomic number  42.
 Defaulting to unpruned grid for atomic number  42.
 Defaulting to unpruned grid for atomic number  42.
 Defaulting to unpruned grid for atomic number  42.
 Defaulting to unpruned grid for atomic number  42.
 Defaulting to unpruned grid for atomic number  42.
 Defaulting to unpruned grid for atomic number  42.
 Defaulting to unpruned grid for atomic number  42.
 Defaulting to unpruned grid for atomic number  42.
 Defaulting to unpruned grid for atomic number  42.
 Defaulting to unpruned grid for atomic number  42.
 Defaulting to unpruned grid for atomic number  42.
 Defaulting to unpruned grid for atomic number  42.
 Defaulting to unpruned grid for atomic number  42.
 Defaulting to unpruned grid for atomic number  42.
 Defaulting to unpruned grid for atomic number  42.
 EnCoef did     5 forward-backward iterations
 EnCoef did   100 forward-backward iterations
 EnCoef did   100 forward-backward iterations
 EnCoef did     3 forward-backward iterations
 EnCoef did   100 forward-backward iterations
 EnCoef did     2 forward-backward iterations
 EnCoef did     3 forward-backward iterations
 Restarting incremental Fock formation.
 SCF Done:  E(RB3LYP) =  -5120.07893989     A.U. after   28 cycles
            NFock= 28  Conv=0.41D-08     -V/T= 2.0484

 **********************************************************************

            Population analysis using the SCF Density.

 **********************************************************************

 Alpha  occ. eigenvalues --  -88.94300 -88.92738 -88.90971 -88.90393 -88.89557
 Alpha  occ. eigenvalues --  -88.88537 -88.87904 -88.87342 -88.87171 -88.86818
 Alpha  occ. eigenvalues --  -88.86176 -88.86131  -8.02090  -8.00426  -7.98565
 Alpha  occ. eigenvalues --   -7.97979  -7.97149  -7.96289  -7.95779  -7.95148
 Alpha  occ. eigenvalues --   -7.94865  -7.94525  -7.93863  -7.93808  -5.98329
 Alpha  occ. eigenvalues --   -5.98198  -5.97572  -5.96673  -5.96311  -5.96172
 Alpha  occ. eigenvalues --   -5.94537  -5.94535  -5.94494  -5.94015  -5.93943
 Alpha  occ. eigenvalues --   -5.93858  -5.93179  -5.93129  -5.93015  -5.92336
 Alpha  occ. eigenvalues --   -5.92251  -5.92130  -5.92058  -5.91702  -5.91406
 Alpha  occ. eigenvalues --   -5.91212  -5.91124  -5.90947  -5.90860  -5.90842
 Alpha  occ. eigenvalues --   -5.90762  -5.90580  -5.90494  -5.90360  -5.90151
 Alpha  occ. eigenvalues --   -5.90101  -5.89739  -5.89698  -5.89560  -5.89486
 Alpha  occ. eigenvalues --   -2.54607  -2.54150  -2.53978  -2.53675  -2.53546
 Alpha  occ. eigenvalues --   -1.57889  -1.57814  -1.57629  -1.57486  -1.57007
 Alpha  occ. eigenvalues --   -1.56915  -1.56311  -1.55790  -1.55761  -1.55679
 Alpha  occ. eigenvalues --   -1.55564  -1.55428  -1.55125  -1.54982  -1.54537
 Alpha  occ. eigenvalues --   -0.83049  -0.78265  -0.74684  -0.73877  -0.73572
 Alpha  occ. eigenvalues --   -0.72960  -0.71520  -0.71317  -0.70359  -0.69885
 Alpha  occ. eigenvalues --   -0.69782  -0.68703  -0.50355  -0.49431  -0.48266
 Alpha  occ. eigenvalues --   -0.43973  -0.42869  -0.41724  -0.41376  -0.40779
 Alpha  occ. eigenvalues --   -0.40683  -0.40162  -0.39754  -0.39134  -0.38286
 Alpha  occ. eigenvalues --   -0.38159  -0.36562  -0.36359  -0.36214  -0.35923
 Alpha  occ. eigenvalues --   -0.35587  -0.34589  -0.34375  -0.34095  -0.33308
 Alpha  occ. eigenvalues --   -0.32941  -0.32788  -0.32475  -0.32437  -0.32087
 Alpha  occ. eigenvalues --   -0.31684  -0.30907  -0.29841  -0.29114  -0.28819
 Alpha  occ. eigenvalues --   -0.28592  -0.27350  -0.26898  -0.26522  -0.25713
 Alpha  occ. eigenvalues --   -0.24534  -0.24398  -0.23290  -0.22533
 Alpha virt. eigenvalues --   -0.15731  -0.14646  -0.13715  -0.13117  -0.12476
 Alpha virt. eigenvalues --   -0.12213  -0.11442  -0.11119  -0.10713  -0.09999
 Alpha virt. eigenvalues --   -0.09665  -0.09011  -0.08589  -0.07663  -0.07108
 Alpha virt. eigenvalues --   -0.06419  -0.05325  -0.04985  -0.03985  -0.03062
 Alpha virt. eigenvalues --   -0.01954  -0.00700  -0.00338   0.00321   0.00634
 Alpha virt. eigenvalues --    0.02105   0.02962   0.03421   0.04056   0.04214
 Alpha virt. eigenvalues --    0.04994   0.05324   0.05408   0.06452   0.06619
 Alpha virt. eigenvalues --    0.06943   0.07341   0.07994   0.08507   0.09076
 Alpha virt. eigenvalues --    0.09484   0.10293   0.10831   0.12203   0.13943
 Alpha virt. eigenvalues --    0.14318   0.15109   0.16756   0.17675   0.17934
 Alpha virt. eigenvalues --    0.18590   0.18893   0.19979   0.20026   0.22060
 Alpha virt. eigenvalues --    0.23575   0.24987   0.25742   0.26733   0.27435
 Alpha virt. eigenvalues --    0.28132   0.29049   0.29703   0.30085   0.30346
 Alpha virt. eigenvalues --    0.31487   0.31870   0.32142   0.32518   0.33025
 Alpha virt. eigenvalues --    0.33406   0.33876   0.34409   0.35055   0.35182
 Alpha virt. eigenvalues --    0.35592   0.35795   0.36599   0.36781   0.36974
 Alpha virt. eigenvalues --    0.38085   0.38317   0.38887   0.39285   0.39545
 Alpha virt. eigenvalues --    0.39628   0.40236   0.40246   0.40720   0.41472
 Alpha virt. eigenvalues --    0.41830   0.42170   0.42862   0.43391   0.44427
 Alpha virt. eigenvalues --    0.44687   0.45137   0.46102   0.46511   0.46624
 Alpha virt. eigenvalues --    0.48074   0.48413   0.49541   0.50299   0.50811
 Alpha virt. eigenvalues --    0.51161   0.52009   0.52300   0.53152   0.54766
 Alpha virt. eigenvalues --    0.55527   0.55711   0.56609   0.57155   0.58107
 Alpha virt. eigenvalues --    0.59252   0.59281   0.60612   0.61876   0.62460
 Alpha virt. eigenvalues --    0.63687   0.64290   0.65301   0.66331   0.66486
 Alpha virt. eigenvalues --    0.68270   0.68426   0.70083   0.70484   0.71162
 Alpha virt. eigenvalues --    0.72008   0.73279   0.73432   0.73787   0.74111
 Alpha virt. eigenvalues --    0.74843   0.75256   0.76063   0.76163   0.76495
 Alpha virt. eigenvalues --    0.77157   0.77565   0.78302   0.78505   0.79510
 Alpha virt. eigenvalues --    0.80416   0.80691   0.81625   0.82089   0.82990
 Alpha virt. eigenvalues --    0.83456   0.83812   0.84290   0.85322   0.86347
 Alpha virt. eigenvalues --    0.87060   0.87779   0.88689   0.89621   0.90330
 Alpha virt. eigenvalues --    0.91193   0.92082   0.93042   0.93980   0.94340
 Alpha virt. eigenvalues --    0.95709   0.96046   0.96330   0.97574   0.98352
 Alpha virt. eigenvalues --    0.99380   1.00139   1.00935   1.01296   1.01595
 Alpha virt. eigenvalues --    1.02091   1.03368   1.03660   1.04744   1.05242
 Alpha virt. eigenvalues --    1.05904   1.07044   1.07911   1.08366   1.09219
 Alpha virt. eigenvalues --    1.09993   1.10666   1.11789   1.13875   1.14584
 Alpha virt. eigenvalues --    1.15550   1.15770   1.17158   1.17654   1.18594
 Alpha virt. eigenvalues --    1.20216   1.22907   1.26079   1.32709   1.99885
 Alpha virt. eigenvalues --    2.01535   2.06291   2.06435   2.06861   2.08836
 Alpha virt. eigenvalues --    2.08943   2.09790   2.10056   2.10183   2.11923
 Alpha virt. eigenvalues --    2.15879   2.69287   2.71778   2.73027   2.73338
 Alpha virt. eigenvalues --    2.74132   2.75619   6.91312   8.01506   9.44658
 Alpha virt. eigenvalues --   10.55932  13.86356
          Condensed to atoms (all electrons):
               1          2          3          4          5          6
     1  Mo  14.061226   0.208084   0.203374   0.197890   0.226516  -0.395159
     2  S    0.208084  15.661896   0.013908   0.005382  -0.024533  -0.020896
     3  S    0.203374   0.013908  15.723203  -0.003522   0.004172   0.214332
     4  S    0.197890   0.005382  -0.003522  15.453383  -0.008042   0.117500
     5  S    0.226516  -0.024533   0.004172  -0.008042  15.679213  -0.012969
     6  Mo  -0.395159  -0.020896   0.214332   0.117500  -0.012969  14.108433
     7  S   -0.008004  -0.000255  -0.002938  -0.016497   0.000068   0.195007
     8  S   -0.049529  -0.019874   0.004965   0.012267  -0.000295   0.187532
     9  Mo  -0.209360   0.070950   0.012886   0.123059  -0.029208  -0.057583
    10  S   -0.015205  -0.006258  -0.000161  -0.021145   0.000022  -0.035608
    11  H    0.004176  -0.000045  -0.000001   0.004851   0.000009  -0.006766
    12  S   -0.065414  -0.046631  -0.000078  -0.020392   0.010556   0.003381
    13  Mo  -0.265226   0.098933  -0.023077  -0.031577   0.231117   0.031836
    14  Mo   0.059387   0.000721  -0.037412  -0.052400  -0.001204  -0.358065
    15  S    0.004729  -0.050645   0.000000   0.000029   0.005359  -0.001499
    16  H   -0.000428   0.002429   0.000000  -0.000000   0.000065   0.000090
    17  S   -0.017908  -0.008316   0.000001   0.000256  -0.034479  -0.001092
    18  H    0.004123   0.000237   0.000000  -0.000001   0.001546   0.000198
    19  S   -0.000577  -0.000001   0.000007   0.000080   0.000000  -0.018231
    20  H    0.000222  -0.000000  -0.000007  -0.000000   0.000000   0.004091
    21  S   -0.001648  -0.000008  -0.000002   0.000187   0.000000   0.001737
    22  H   -0.000031   0.000000  -0.000000   0.000059   0.000000  -0.002620
    23  H    0.000098   0.000000   0.000000   0.000007  -0.000000  -0.001051
               7          8          9         10         11         12
     1  Mo  -0.008004  -0.049529  -0.209360  -0.015205   0.004176  -0.065414
     2  S   -0.000255  -0.019874   0.070950  -0.006258  -0.000045  -0.046631
     3  S   -0.002938   0.004965   0.012886  -0.000161  -0.000001  -0.000078
     4  S   -0.016497   0.012267   0.123059  -0.021145   0.004851  -0.020392
     5  S    0.000068  -0.000295  -0.029208   0.000022   0.000009   0.010556
     6  Mo   0.195007   0.187532  -0.057583  -0.035608  -0.006766   0.003381
     7  S   15.707906  -0.011662  -0.040704   0.004765  -0.002020  -0.000007
     8  S   -0.011662  15.549226   0.099529  -0.010747   0.000182  -0.003697
     9  Mo  -0.040704   0.099529  14.629718   0.138665  -0.024550   0.170293
    10  S    0.004765  -0.010747   0.138665  15.504281   0.267618  -0.010132
    11  H   -0.002020   0.000182  -0.024550   0.267618   0.655788  -0.000889
    12  S   -0.000007  -0.003697   0.170293  -0.010132  -0.000889  15.672599
    13  Mo   0.000076   0.003491  -0.173615   0.001242   0.001020   0.343919
    14  Mo   0.308408   0.100668  -0.396692   0.242573  -0.026893  -0.004168
    15  S   -0.000000  -0.000001  -0.007951   0.000012  -0.000000   0.010902
    16  H   -0.000000   0.000000  -0.001709   0.000000   0.000000  -0.000182
    17  S    0.000000  -0.000001  -0.008447   0.000007  -0.000000  -0.004695
    18  H   -0.000000  -0.000000  -0.005274  -0.000000   0.000000  -0.000761
    19  S    0.010191  -0.007349  -0.030171   0.001901  -0.000040  -0.000001
    20  H   -0.001130  -0.005002   0.005014  -0.000081   0.000001  -0.000000
    21  S   -0.051379  -0.008575   0.005526  -0.042527  -0.005140   0.000005
    22  H   -0.000262   0.000020   0.003630  -0.000222   0.000320  -0.000000
    23  H    0.001284   0.000061   0.002088   0.000147   0.000025  -0.000000
              13         14         15         16         17         18
     1  Mo  -0.265226   0.059387   0.004729  -0.000428  -0.017908   0.004123
     2  S    0.098933   0.000721  -0.050645   0.002429  -0.008316   0.000237
     3  S   -0.023077  -0.037412   0.000000   0.000000   0.000001   0.000000
     4  S   -0.031577  -0.052400   0.000029  -0.000000   0.000256  -0.000001
     5  S    0.231117  -0.001204   0.005359   0.000065  -0.034479   0.001546
     6  Mo   0.031836  -0.358065  -0.001499   0.000090  -0.001092   0.000198
     7  S    0.000076   0.308408  -0.000000  -0.000000   0.000000  -0.000000
     8  S    0.003491   0.100668  -0.000001   0.000000  -0.000001  -0.000000
     9  Mo  -0.173615  -0.396692  -0.007951  -0.001709  -0.008447  -0.005274
    10  S    0.001242   0.242573   0.000012   0.000000   0.000007  -0.000000
    11  H    0.001020  -0.026893  -0.000000   0.000000  -0.000000   0.000000
    12  S    0.343919  -0.004168   0.010902  -0.000182  -0.004695  -0.000761
    13  Mo  13.483661  -0.037874   0.299286  -0.019611   0.326658  -0.032465
    14  Mo  -0.037874  14.159232  -0.000106  -0.000013  -0.000323  -0.000030
    15  S    0.299286  -0.000106  15.560333   0.245506  -0.028104  -0.010917
    16  H   -0.019611  -0.000013   0.245506   0.725601  -0.010484   0.008245
    17  S    0.326658  -0.000323  -0.028104  -0.010484  15.551545   0.250355
    18  H   -0.032465  -0.000030  -0.010917   0.008245   0.250355   0.727157
    19  S   -0.000282   0.335942  -0.000000   0.000000   0.000000   0.000000
    20  H    0.000009  -0.037005  -0.000000   0.000000  -0.000000   0.000000
    21  S   -0.000240   0.108195   0.000000   0.000000   0.000000  -0.000000
    22  H    0.000045  -0.017470  -0.000000   0.000000  -0.000000   0.000000
    23  H    0.000041  -0.019983  -0.000000   0.000000   0.000000   0.000000
              19         20         21         22         23
     1  Mo  -0.000577   0.000222  -0.001648  -0.000031   0.000098
     2  S   -0.000001  -0.000000  -0.000008   0.000000   0.000000
     3  S    0.000007  -0.000007  -0.000002  -0.000000   0.000000
     4  S    0.000080  -0.000000   0.000187   0.000059   0.000007
     5  S    0.000000   0.000000   0.000000   0.000000  -0.000000
     6  Mo  -0.018231   0.004091   0.001737  -0.002620  -0.001051
     7  S    0.010191  -0.001130  -0.051379  -0.000262   0.001284
     8  S   -0.007349  -0.005002  -0.008575   0.000020   0.000061
     9  Mo  -0.030171   0.005014   0.005526   0.003630   0.002088
    10  S    0.001901  -0.000081  -0.042527  -0.000222   0.000147
    11  H   -0.000040   0.000001  -0.005140   0.000320   0.000025
    12  S   -0.000001  -0.000000   0.000005  -0.000000  -0.000000
    13  Mo  -0.000282   0.000009  -0.000240   0.000045   0.000041
    14  Mo   0.335942  -0.037005   0.108195  -0.017470  -0.019983
    15  S   -0.000000  -0.000000   0.000000  -0.000000  -0.000000
    16  H    0.000000   0.000000   0.000000   0.000000   0.000000
    17  S    0.000000  -0.000000   0.000000  -0.000000   0.000000
    18  H    0.000000   0.000000  -0.000000   0.000000   0.000000
    19  S   15.652538   0.276017  -0.119292   0.003056   0.003011
    20  H    0.276017   0.654287   0.002826  -0.000019  -0.000012
    21  S   -0.119292   0.002826  15.411967   0.293372   0.276629
    22  H    0.003056  -0.000019   0.293372   0.623973  -0.026065
    23  H    0.003011  -0.000012   0.276629  -0.026065   0.662118
 Mulliken charges:
               1
     1  Mo   0.058666
     2  S    0.114924
     3  S   -0.109651
     4  S    0.238627
     5  S   -0.047915
     6  Mo   0.047404
     7  S   -0.092847
     8  S    0.158790
     9  Mo  -0.276095
    10  S   -0.019147
    11  H    0.132355
    12  S   -0.054607
    13  Mo  -0.237366
    14  Mo  -0.325487
    15  S   -0.026933
    16  H    0.050491
    17  S   -0.014972
    18  H    0.057587
    19  S   -0.106798
    20  H    0.100788
    21  S    0.128369
    22  H    0.122213
    23  H    0.101603
 Sum of Mulliken charges =  -0.00000
 Mulliken charges with hydrogens summed into heavy atoms:
               1
     1  Mo   0.058666
     2  S    0.114924
     3  S   -0.109651
     4  S    0.238627
     5  S   -0.047915
     6  Mo   0.047404
     7  S   -0.092847
     8  S    0.158790
     9  Mo  -0.276095
    10  S    0.113208
    12  S   -0.054607
    13  Mo  -0.237366
    14  Mo  -0.325487
    15  S    0.023558
    17  S    0.042615
    19  S   -0.006010
    21  S    0.352185
 Electronic spatial extent (au):  <R**2>=         112455.8655
 Charge=             -0.0000 electrons
 Dipole moment (field-independent basis, Debye):
    X=             -3.1564    Y=              1.9890    Z=             -6.5222  Tot=              7.5138
 Quadrupole moment (field-independent basis, Debye-Ang):
   XX=           -277.4356   YY=           -274.1365   ZZ=           -387.4040
   XY=             -3.3084   XZ=            -29.7276   YZ=              2.3444
 Traceless Quadrupole moment (field-independent basis, Debye-Ang):
   XX=             35.5565   YY=             38.8555   ZZ=            -74.4120
   XY=             -3.3084   XZ=            -29.7276   YZ=              2.3444
 Octapole moment (field-independent basis, Debye-Ang**2):
  XXX=            -61.5422  YYY=          -2446.7598  ZZZ=          -9688.9524  XYY=            -51.1509
  XXY=           -787.5406  XXZ=          -2716.4396  XZZ=           -335.5258  YZZ=           -904.2561
  YYZ=          -2741.2733  XYZ=            -40.4262
 Hexadecapole moment (field-independent basis, Debye-Ang**3):
 XXXX=          -9477.6479 YYYY=         -18601.1749 ZZZZ=        -186594.0450 XXXY=           1218.1759
 XXXZ=          -2549.0951 YYYX=           1069.9377 YYYZ=         -22841.5536 ZZZX=          -6111.5472
 ZZZY=         -24691.3996 XXYY=          -4734.6265 XXZZ=         -29336.7824 YYZZ=         -31383.1056
 XXYZ=          -7208.5156 YYXZ=          -1334.2900 ZZXY=           -146.8263
 N-N= 4.392340327076D+03 E-N=-2.083798861165D+04  KE= 4.883919250230D+03
   1 Symmetry operations used in ECPInt.
 ECPInt:  NShTT=    7021 NPrTT=   51519 LenC2=    6179 LenP2D=   29198.
 LDataN:  DoStor=T MaxTD1= 6 Len=  172
 Calling FoFJK, ICntrl=      2127 FMM=F ISym2X=0 I1Cent= 0 IOpClX= 0 NMat=1 NMatS=1 NMatT=0.
 Defaulting to unpruned grid for atomic number  42.
 Defaulting to unpruned grid for atomic number  42.
 Defaulting to unpruned grid for atomic number  42.
 Defaulting to unpruned grid for atomic number  42.
 Defaulting to unpruned grid for atomic number  42.
 Defaulting to unpruned grid for atomic number  42.
 Defaulting to unpruned grid for atomic number  42.
 Defaulting to unpruned grid for atomic number  42.
 Defaulting to unpruned grid for atomic number  42.
 Defaulting to unpruned grid for atomic number  42.
 Defaulting to unpruned grid for atomic number  42.
 Defaulting to unpruned grid for atomic number  42.
 Defaulting to unpruned grid for atomic number  42.
 Defaulting to unpruned grid for atomic number  42.
 Defaulting to unpruned grid for atomic number  42.
 Defaulting to unpruned grid for atomic number  42.
 Defaulting to unpruned grid for atomic number  42.
 Defaulting to unpruned grid for atomic number  42.
 Defaulting to unpruned grid for atomic number  42.
 Defaulting to unpruned grid for atomic number  42.
 Defaulting to unpruned grid for atomic number  42.
 Defaulting to unpruned grid for atomic number  42.
 Defaulting to unpruned grid for atomic number  42.
 Defaulting to unpruned grid for atomic number  42.
 Defaulting to unpruned grid for atomic number  42.
 Defaulting to unpruned grid for atomic number  42.
 Defaulting to unpruned grid for atomic number  42.
 Defaulting to unpruned grid for atomic number  42.
 Defaulting to unpruned grid for atomic number  42.
 Defaulting to unpruned grid for atomic number  42.
 Defaulting to unpruned grid for atomic number  42.
 Defaulting to unpruned grid for atomic number  42.
 Defaulting to unpruned grid for atomic number  42.
 Defaulting to unpruned grid for atomic number  42.
 Defaulting to unpruned grid for atomic number  42.
 Defaulting to unpruned grid for atomic number  42.
 Defaulting to unpruned grid for atomic number  42.
 Defaulting to unpruned grid for atomic number  42.
 Defaulting to unpruned grid for atomic number  42.
 Defaulting to unpruned grid for atomic number  42.
 Defaulting to unpruned grid for atomic number  42.
 Defaulting to unpruned grid for atomic number  42.
 Defaulting to unpruned grid for atomic number  42.
 Defaulting to unpruned grid for atomic number  42.
 Defaulting to unpruned grid for atomic number  42.
 Defaulting to unpruned grid for atomic number  42.
 -------------------------------------------------------------------
 Center     Atomic                   Forces (Hartrees/Bohr)
 Number     Number              X              Y              Z
 -------------------------------------------------------------------
      1       42           0.000230370   -0.002139081    0.000772062
      2       16          -0.001279758   -0.000673749   -0.000550215
      3       16           0.000440745   -0.001900984    0.000895356
      4       16          -0.000613517   -0.000305306   -0.000385621
      5       16           0.000730096   -0.000478832    0.000281442
      6       42          -0.001673471    0.008550736    0.000245173
      7       16          -0.002820374   -0.014207236    0.012182387
      8       16          -0.001369068   -0.002300898    0.008810359
      9       42          -0.002749401    0.005070921   -0.001129701
     10       16           0.014917052   -0.003046080    0.011980613
     11        1           0.000338543   -0.000247473    0.001299213
     12       16           0.000854459    0.000054442    0.000818181
     13       42          -0.000051241   -0.000225249   -0.000672911
     14       42           0.011851943   -0.007971096   -0.028627019
     15       16          -0.000091976    0.000206187    0.000212380
     16        1           0.000040355   -0.000041405    0.000058076
     17       16           0.000172652   -0.000319046    0.000248038
     18        1           0.000085313   -0.000028769   -0.000068485
     19       16          -0.014540296    0.012735629    0.014621121
     20        1           0.005160130    0.006475113    0.004219519
     21       16          -0.012919505    0.003842158   -0.024958475
     22        1          -0.010811965   -0.014804374    0.003682184
     23        1           0.014098912    0.011754394   -0.003933675
 -------------------------------------------------------------------
 Cartesian Forces:  Max     0.028627019 RMS     0.007755821

 GradGradGradGradGradGradGradGradGradGradGradGradGradGradGradGradGradGrad
 Berny optimization.
 FormGI is forming the generalized inverse of G from B-inverse, IUseBI=4.
 Internal  Forces:  Max     0.026792743 RMS     0.003761880
 Search for a local minimum.
 Step number   1 out of a maximum of  138
 All quantities printed in internal units (Hartrees-Bohrs-Radians)
 Mixed Optimization -- RFO/linear search
 Second derivative matrix not updated -- first step.
 ITU=  0
     Eigenvalues ---    0.00230   0.00230   0.00230   0.00230   0.01562
     Eigenvalues ---    0.01918   0.02441   0.02529   0.02693   0.03169
     Eigenvalues ---    0.03346   0.03499   0.04216   0.04518   0.04647
     Eigenvalues ---    0.05096   0.05145   0.05530   0.05702   0.06437
     Eigenvalues ---    0.06575   0.07757   0.08088   0.08156   0.08981
     Eigenvalues ---    0.09198   0.09697   0.09938   0.10184   0.10644
     Eigenvalues ---    0.10932   0.11041   0.11431   0.11652   0.11859
     Eigenvalues ---    0.12013   0.12366   0.12676   0.12945   0.13041
     Eigenvalues ---    0.13178   0.13495   0.13530   0.13766   0.14378
     Eigenvalues ---    0.14473   0.14523   0.15505   0.16000   0.16000
     Eigenvalues ---    0.16000   0.16000   0.16000   0.16008   0.16259
     Eigenvalues ---    0.16910   0.18258   0.25263   0.25417   0.25465
     Eigenvalues ---    0.25525   0.27239   0.27239
 RFO step:  Lambda=-3.01140129D-02 EMin= 2.30000000D-03
 Linear search not attempted -- first point.
 Maximum step size (   0.300) exceeded in Quadratic search.
    -- Step size scaled by   0.799
 Iteration  1 RMS(Cart)=  0.04506551 RMS(Int)=  0.00137660
 Iteration  2 RMS(Cart)=  0.00165770 RMS(Int)=  0.00059387
 Iteration  3 RMS(Cart)=  0.00000516 RMS(Int)=  0.00059387
 Iteration  4 RMS(Cart)=  0.00000001 RMS(Int)=  0.00059387
 Variable       Old X    -DE/DX   Delta X   Delta X   Delta X     New X
                                 (Linear)    (Quad)   (Total)
    R1        4.39144  -0.00065   0.00000  -0.00450  -0.00452   4.38692
    R2        4.45376  -0.00117   0.00000  -0.00802  -0.00814   4.44563
    R3        4.49446   0.00144   0.00000   0.00452   0.00443   4.49888
    R4        4.31109   0.00058   0.00000   0.00262   0.00264   4.31373
    R5        5.10346   0.00109   0.00000   0.00601   0.00590   5.10937
    R6        5.21443   0.00074   0.00000   0.00737   0.00729   5.22172
    R7        5.39338  -0.00049   0.00000  -0.00298  -0.00301   5.39037
    R8        4.71240  -0.00158   0.00000  -0.00268  -0.00255   4.70985
    R9        4.69698   0.00128   0.00000   0.00505   0.00498   4.70196
   R10        4.41740  -0.00002   0.00000   0.00414   0.00435   4.42175
   R11        4.49322   0.00085   0.00000   0.00542   0.00517   4.49839
   R12        4.46890   0.00121   0.00000   0.00367   0.00357   4.47247
   R13        4.59175   0.00031   0.00000   0.00023   0.00020   4.59194
   R14        4.63972  -0.00641   0.00000  -0.03608  -0.03588   4.60383
   R15        4.49878  -0.00148   0.00000  -0.01826  -0.01871   4.48007
   R16        5.23698   0.00386   0.00000   0.01194   0.01108   5.24805
   R17        5.16697   0.00584   0.00000   0.04250   0.04298   5.20995
   R18        4.25691   0.00920   0.00000   0.04248   0.04263   4.29953
   R19        4.64581   0.00136   0.00000   0.00064   0.00022   4.64603
   R20        4.46533   0.00611   0.00000   0.03991   0.04022   4.50555
   R21        4.74624  -0.00974   0.00000  -0.04931  -0.04884   4.69740
   R22        4.76701   0.00002   0.00000   0.00402   0.00412   4.77113
   R23        5.45775   0.00586   0.00000   0.04360   0.04401   5.50175
   R24        2.55542  -0.00042   0.00000  -0.00118  -0.00118   2.55423
   R25        4.55591   0.00529   0.00000   0.03484   0.03504   4.59095
   R26        4.24529   0.00001   0.00000  -0.00241  -0.00241   4.24289
   R27        4.48546   0.00024   0.00000   0.00117   0.00117   4.48664
   R28        4.45862   0.00041   0.00000   0.00199   0.00199   4.46061
   R29        4.40464   0.01797   0.00000   0.08211   0.08211   4.48674
   R30        4.89439   0.02679   0.00000   0.19287   0.19287   5.08727
   R31        2.55659   0.00005   0.00000   0.00015   0.00015   2.55674
   R32        2.56045   0.00005   0.00000   0.00013   0.00013   2.56059
   R33        2.55391   0.00045   0.00000   0.00127   0.00127   2.55517
   R34        2.51334   0.01343   0.00000   0.03547   0.03547   2.54881
   R35        2.51334   0.01394   0.00000   0.03683   0.03683   2.55016
    A1        1.83438  -0.00029   0.00000  -0.00401  -0.00394   1.83044
    A2        1.94500  -0.00014   0.00000  -0.00085  -0.00086   1.94415
    A3        1.86832   0.00049   0.00000   0.00304   0.00301   1.87133
    A4        1.73444  -0.00052   0.00000  -0.00426  -0.00427   1.73017
    A5        1.81499  -0.00018   0.00000   0.00087   0.00086   1.81585
    A6        2.34548  -0.00055   0.00000  -0.00160  -0.00163   2.34385
    A7        1.89279   0.00070   0.00000   0.00217   0.00208   1.89487
    A8        2.77777  -0.00008   0.00000  -0.00400  -0.00395   2.77381
    A9        1.63006   0.00074   0.00000   0.00326   0.00324   1.63330
   A10        1.61691   0.00043   0.00000   0.00375   0.00371   1.62062
   A11        2.53494   0.00052   0.00000   0.00317   0.00315   2.53809
   A12        2.02143  -0.00003   0.00000   0.00032   0.00041   2.02184
   A13        2.30154   0.00034   0.00000   0.00220   0.00210   2.30364
   A14        1.24282  -0.00036   0.00000   0.00054   0.00063   1.24346
   A15        1.43237  -0.00035   0.00000   0.00089   0.00097   1.43335
   A16        2.54322  -0.00057   0.00000   0.00005  -0.00006   2.54316
   A17        1.62722  -0.00057   0.00000   0.00231   0.00240   1.62962
   A18        2.16115  -0.00023   0.00000   0.00300   0.00317   2.16432
   A19        1.82579  -0.00035   0.00000  -0.00290  -0.00296   1.82283
   A20        2.57422  -0.00142   0.00000  -0.01153  -0.01153   2.56268
   A21        1.73185  -0.00009   0.00000   0.00383   0.00387   1.73571
   A22        1.89607  -0.00057   0.00000  -0.00260  -0.00254   1.89353
   A23        2.67504   0.00079   0.00000   0.00941   0.00939   2.68443
   A24        1.57780  -0.00054   0.00000   0.00133   0.00137   1.57917
   A25        1.92574  -0.00040   0.00000  -0.00140  -0.00125   1.92450
   A26        1.58751  -0.00071   0.00000  -0.00430  -0.00406   1.58345
   A27        1.78551   0.00257   0.00000   0.01025   0.01010   1.79561
   A28        1.80706   0.00168   0.00000   0.01271   0.01259   1.81966
   A29        1.57286  -0.00101   0.00000  -0.00181  -0.00173   1.57113
   A30        2.53550   0.00011   0.00000   0.00302   0.00295   2.53844
   A31        1.63559   0.00038   0.00000  -0.00181  -0.00191   1.63368
   A32        2.02794  -0.00003   0.00000   0.00233   0.00249   2.03043
   A33        1.85318   0.00023   0.00000  -0.00101  -0.00106   1.85213
   A34        1.63161  -0.00089   0.00000  -0.00549  -0.00536   1.62626
   A35        1.41399  -0.00108   0.00000  -0.00107  -0.00094   1.41305
   A36        2.82805  -0.00020   0.00000  -0.00342  -0.00346   2.82459
   A37        1.52068   0.00061   0.00000  -0.00093  -0.00103   1.51965
   A38        2.31339  -0.00050   0.00000   0.00232   0.00246   2.31585
   A39        1.88729  -0.00136   0.00000  -0.00658  -0.00647   1.88083
   A40        1.58319  -0.00014   0.00000   0.00243   0.00247   1.58566
   A41        1.54702   0.00111   0.00000   0.00471   0.00453   1.55155
   A42        1.52783  -0.00073   0.00000  -0.00399  -0.00379   1.52404
   A43        1.77122   0.00134   0.00000   0.01161   0.01148   1.78270
   A44        2.47378   0.00054   0.00000   0.00243   0.00231   2.47609
   A45        1.74198   0.00185   0.00000   0.00858   0.00847   1.75045
   A46        2.82016   0.00001   0.00000   0.00053   0.00057   2.82073
   A47        1.52200  -0.00131   0.00000  -0.00661  -0.00649   1.51551
   A48        2.43310  -0.00016   0.00000  -0.00115  -0.00121   2.43189
   A49        1.84377  -0.00027   0.00000  -0.00613  -0.00543   1.83834
   A50        1.78295  -0.00056   0.00000  -0.00484  -0.00450   1.77845
   A51        1.50684  -0.00045   0.00000   0.00101   0.00109   1.50794
   A52        1.70270   0.00072   0.00000   0.00202   0.00192   1.70462
   A53        2.13415  -0.00047   0.00000  -0.00212  -0.00209   2.13206
   A54        2.30429  -0.00006   0.00000  -0.00018  -0.00016   2.30413
   A55        1.70624   0.00000   0.00000   0.00076   0.00075   1.70699
   A56        1.63594   0.00001   0.00000  -0.00145  -0.00149   1.63445
   A57        1.35835  -0.00004   0.00000   0.00032   0.00033   1.35868
   A58        2.82267   0.00038   0.00000   0.00116   0.00113   2.82380
   A59        2.02593   0.00097   0.00000   0.00216   0.00210   2.02803
   A60        2.29756  -0.00073   0.00000  -0.00179  -0.00177   2.29578
   A61        1.42569  -0.00023   0.00000  -0.00119  -0.00118   1.42451
   A62        1.95949  -0.00023   0.00000  -0.00037  -0.00033   1.95916
   A63        1.79685  -0.00039   0.00000   0.00032   0.00039   1.79724
   A64        1.55078   0.00031   0.00000   0.00044   0.00041   1.55120
   A65        1.83723  -0.00302   0.00000  -0.01786  -0.01812   1.81911
   A66        2.32312  -0.00439   0.00000  -0.04107  -0.04387   2.27925
   A67        2.37754  -0.00027   0.00000  -0.00091  -0.00078   2.37675
   A68        1.90863  -0.00448   0.00000  -0.03187  -0.03170   1.87693
   A69        1.84137  -0.00289   0.00000  -0.01636  -0.01666   1.82471
   A70        1.93987   0.00094   0.00000   0.01663   0.01526   1.95513
   A71        1.96062   0.00552   0.00000   0.03657   0.03470   1.99532
   A72        1.39626   0.00247   0.00000   0.01409   0.01412   1.41038
   A73        1.84270  -0.00365   0.00000  -0.02606  -0.02593   1.81677
   A74        1.70002  -0.00582   0.00000  -0.05378  -0.05545   1.64458
   A75        2.42972  -0.00559   0.00000  -0.04758  -0.04969   2.38003
   A76        2.29426   0.00191   0.00000   0.02277   0.02300   2.31725
[...]
 01288463,-0.03260587,0.03137846,-0.05292980,-0.08674077,-0.00762773,-0
 .00507156,-0.01086671,-0.02757998,0.00247976,-0.00945833,0.00192617,-0
 .00475625,-0.01287606,-0.00821452,0.00946719,-0.00076685,-0.00056918,-
 0.00111557,0.00197448,-0.00088448,0.00009459,-0.00184627,0.00027125,0.
 00492823,0.26198128,0.00336067,-0.00391605,-0.00950442,0.00136466,0.00
 311845,-0.00192302,-0.00235772,0.00116378,-0.00314913,0.00004465,0.001
 40325,0.00158353,0.00005422,0.00048312,0.00075521,0.00364428,0.0310563
 7,-0.02573750,-0.00020225,-0.00484844,-0.00832601,-0.01307378,-0.02486
 969,-0.08687410,-0.01820815,-0.00456974,0.00444758,0.02747466,-0.00509
 755,-0.01687647,0.00512292,0.00150136,-0.00383018,0.00327320,-0.000087
 02,0.00022341,-0.00111766,-0.00092886,-0.00175562,-0.00624729,0.013881
 79,0.19346251,0.00066404,-0.00193563,-0.00201401,-0.01382465,-0.001409
 56,-0.00593810,0.00031285,-0.00011774,0.00046797,0.00015662,0.00046285
 ,0.00041865,-0.00198931,-0.00270881,0.00272142,-0.00081453,0.00004914,
 -0.00073437,0.00007802,-0.00010150,0.00004775,0.00002066,0.00027750,0.
 00005859,0.00108474,-0.00076822,0.00008207,-0.00000854,-0.00030447,-0.
 00000086,-0.00001230,0.00006362,-0.00011441,0.00004950,0.00569761,-0.0
 0484005,-0.03428709,-0.02371482,-0.02234218,-0.00000038,0.00004277,0.0
 0025983,0.25673351,0.00135603,0.00068524,0.00083559,-0.00004202,0.0014
 0487,0.00384526,-0.00011367,-0.00025877,0.00002108,-0.00015531,0.00029
 554,0.00033904,-0.00249728,-0.00201032,-0.00030653,-0.00072105,-0.0000
 2574,0.00004476,-0.00005213,-0.00002943,-0.00015743,-0.00003382,0.0003
 1094,-0.00001351,0.00226179,-0.00102103,-0.00021655,0.00001293,-0.0003
 4704,0.00015090,-0.00008898,-0.00000556,-0.00013933,-0.00013154,0.0073
 7433,-0.00339843,-0.01010121,-0.05388965,-0.03352219,0.00008857,-0.000
 03155,0.00025465,-0.08039546,0.11503575,0.00090857,-0.00195448,0.00137
 449,-0.00461011,0.00133174,-0.00102472,-0.00033905,-0.00030839,0.00028
 624,0.00026963,0.00044348,0.00039898,-0.00608658,-0.00251208,0.0030302
 3,-0.00029842,0.00005766,-0.00001019,-0.00007761,-0.00005608,-0.000133
 84,-0.00005194,0.00030639,0.00020180,0.00095972,-0.00125406,-0.0005527
 1,0.00016209,-0.00026057,-0.00000179,-0.00005837,0.00004944,-0.0000856
 6,-0.00201786,0.00112963,-0.00434784,-0.01185404,-0.03312722,-0.045440
 53,0.00006120,-0.00008606,0.00002426,0.03480719,0.04042567,0.05892971,
 -0.00003169,-0.00017572,-0.00017759,-0.00067813,-0.00047552,-0.0026393
 4,-0.00013420,0.00008878,0.00005112,0.00001543,-0.00008752,-0.00009925
 ,0.00051186,0.00041263,-0.00000915,0.00028163,0.00002050,0.00006947,-0
 .00004141,-0.00003081,-0.00000258,0.00005003,-0.00007586,-0.00007926,-
 0.00083371,0.00006067,0.00043495,0.00006767,0.00013070,-0.00015288,0.0
 0000309,-0.00000708,0.00003206,0.00056695,-0.00051317,0.00019801,-0.01
 031480,0.00073664,-0.00208854,-0.00001952,-0.00004092,-0.00003852,-0.2
 0831135,0.09034935,-0.01130962,0.21593945,-0.00047505,-0.00043557,-0.0
 0028746,-0.00001258,0.00076175,-0.00111938,-0.00005378,-0.00002532,0.0
 0013045,0.00011456,0.00009018,0.00005902,-0.00024811,0.00065400,0.0003
 5134,0.00006448,-0.00001321,-0.00005664,0.00001813,-0.00001352,0.00002
 978,0.00005240,-0.00004127,0.00005088,-0.00008635,-0.00012004,0.000003
 25,-0.00000462,-0.00006107,0.00001588,0.00000943,0.00002470,-0.0000156
 9,0.00052245,0.00043706,-0.00044202,-0.00727370,0.00264017,-0.00012461
 ,-0.00005236,0.00004993,-0.00007387,0.09915971,-0.05731991,0.00188888,
 -0.09120823,0.05626384,0.00032242,-0.00054348,-0.00094731,-0.00006884,
 -0.00135338,0.00162993,0.00010130,0.00003103,0.00002640,-0.00005523,0.
 00003423,0.00008935,0.00020511,-0.00118945,0.00058365,-0.00016500,-0.0
 0002308,-0.00006788,0.00004076,0.00001175,-0.00000005,-0.00005127,0.00
 008709,-0.00001800,0.00071455,-0.00002058,-0.00028019,-0.00006923,-0.0
 0006100,0.00019924,0.00000561,-0.00002662,-0.00001273,-0.00010664,-0.0
 0008164,0.00027066,-0.00996003,0.00408459,-0.00188874,-0.00003032,0.00
 002077,0.00007627,-0.00647398,-0.00104870,-0.01153972,0.01492073,0.001
 46106,0.01374250,-0.00035953,0.00331070,0.00123305,-0.00780868,0.00420
 753,0.00215981,0.00072564,-0.00029047,-0.00024074,0.00017317,0.0004983
 9,0.00006272,-0.01357033,-0.00453286,0.00224249,-0.00075588,0.00028920
 ,-0.00074355,-0.00009619,-0.00025907,0.00006262,-0.00012078,-0.0003714
 5,0.00013150,0.00097620,0.00032413,-0.00110983,0.00018236,0.00006189,-
 0.00026956,-0.00004585,0.00003720,-0.00003644,-0.00418215,0.00483578,-
 0.00647035,-0.05717017,0.03274408,0.00398952,0.00000407,-0.00011900,0.
 00022584,-0.00065642,0.00056817,0.00005015,0.00234567,-0.00052816,-0.0
 0054304,0.20827043,0.00050674,-0.00097818,-0.00215378,0.00316713,0.002
 74780,0.00107836,0.00040592,-0.00025946,0.00009036,-0.00010668,0.00014
 771,0.00015703,-0.00519632,0.00441336,0.00021594,0.00068803,-0.0000455
 0,-0.00023884,0.00007501,0.00018029,-0.00000382,0.00040749,0.00004303,
 -0.00007880,-0.00129076,-0.00046664,0.00130313,-0.00013271,0.00009237,
 -0.00012450,0.00001886,0.00001353,-0.00001508,0.00535237,-0.00360265,0
 .00383705,0.02244405,-0.05199560,-0.00272863,-0.00001505,-0.00001874,0
 .00004836,0.00336365,-0.00939869,-0.00567413,0.00128097,-0.00310922,-0
 .00108308,0.08290983,0.20076737,-0.00213995,0.00397376,0.00012746,-0.0
 0426840,-0.00091730,0.00226479,0.00008768,-0.00059170,0.00020204,-0.00
 003153,-0.00023244,-0.00009656,0.00160294,0.00027346,-0.00131923,-0.00
 056512,0.00015908,-0.00028544,0.00006650,-0.00007885,0.00016471,-0.000
 30848,-0.00016614,0.00018308,0.00118251,0.00002072,-0.00134742,0.00001
 007,-0.00003504,0.00000086,0.00000786,-0.00000630,-0.00002478,-0.00676
 635,0.00512683,0.00033668,0.00765364,-0.00540452,-0.01175996,0.0001973
 3,0.00006561,0.00005009,0.00243456,-0.00744385,-0.00139029,0.00142382,
 -0.00106601,-0.00112896,-0.00156169,0.00746071,0.02088458,0.00065614,0
 .00081597,-0.00047988,0.00011323,0.00100895,0.00065205,-0.00020918,-0.
 00003945,0.00003132,0.00001433,-0.00002962,0.00003656,-0.00042903,0.00
 166766,-0.00030263,0.00007735,-0.00002043,0.00005957,-0.00003891,-0.00
 000868,-0.00004115,0.00008674,-0.00005288,-0.00000020,-0.00028796,0.00
 014055,0.00030534,-0.00002364,0.00000528,-0.00005819,-0.00000089,-0.00
 000170,-0.00001763,0.00059543,-0.00028382,-0.00006413,-0.01527734,-0.0
 0667847,-0.00083875,0.00000356,0.00002903,-0.00001096,0.00084940,-0.00
 021142,-0.00046839,0.00057969,-0.00001629,0.00123127,-0.12790450,-0.11
 394748,0.00099271,0.14120473,0.00006037,-0.00087006,0.00019638,0.00071
 839,-0.00060832,-0.00065008,-0.00012646,0.00010057,0.00002799,0.000059
 00,-0.00007572,0.00001159,-0.00012104,0.00064068,-0.00022327,-0.000045
 79,-0.00003816,0.00016297,0.00000466,0.00001373,-0.00004358,-0.0000403
 2,0.00007471,-0.00003199,0.00007687,-0.00003765,0.00004604,0.00002495,
 -0.00001936,0.00007934,0.00000170,-0.00001390,0.00001829,0.00024222,-0
 .00004888,0.00030712,0.00370406,0.00683774,0.00000246,-0.00003206,-0.0
 0001547,-0.00003704,0.00226115,-0.00089632,-0.00050200,-0.00049528,0.0
 0025092,-0.00030931,-0.12389079,-0.13837082,-0.00119858,0.11761597,0.1
 3305836,0.00151015,-0.00179033,0.00043049,0.00105413,0.00232351,-0.000
 04245,-0.00000580,0.00026465,-0.00021419,0.00002002,0.00005374,-0.0000
 4293,0.00075274,-0.00019368,0.00210945,0.00010641,0.00004114,0.0001664
 6,-0.00006761,-0.00001150,-0.00008656,0.00009444,-0.00004781,-0.000041
 53,0.00002840,0.00001228,0.00034375,0.00000863,0.00009080,0.00004554,0
 .00000007,-0.00002678,0.00005499,0.00044945,-0.00059914,-0.00057053,-0
 .00442541,0.00036153,-0.00158564,-0.00004428,-0.00004660,-0.00001746,0
 .00121298,0.00038286,0.00029972,-0.00052672,-0.00081105,-0.00073171,0.
 00086431,-0.00213690,-0.00684421,-0.00103035,0.00214552,0.00671706,-0.
 00047065,0.00033256,-0.00003190,-0.00009991,-0.00007987,-0.00000386,0.
 00017840,-0.00003700,0.00024447,0.00023077,-0.00042234,-0.00027617,0.0
 0001557,0.00000712,0.00001133,0.00158104,0.00098936,0.00083859,0.00666
 795,0.00439221,-0.00234804,-0.00096092,0.00729480,-0.00266017,-0.00098
 891,-0.00093153,-0.00019109,0.00023440,-0.00032104,-0.00054260,0.00017
 518,0.00037849,-0.00047930,-0.00018057,0.00002660,-0.00015283,0.000117
 46,-0.00000662,0.00032263,-0.03702911,0.02950539,-0.00620686,-0.000067
 82,-0.00010977,-0.00005990,-0.00000901,0.00001923,-0.00001381,-0.00008
 599,0.00007038,-0.00004063,-0.00001601,-0.00000259,0.00002453,0.040332
 31,-0.00006424,0.00050603,0.00034367,0.00037003,-0.00004720,-0.0001540
 3,-0.00011510,-0.00053561,0.00040889,-0.00059837,0.00089400,0.00028454
 ,0.00032812,-0.00028898,-0.00003286,-0.00210302,-0.00061300,-0.0016662
 8,-0.00248859,-0.00420893,0.00361417,0.00536114,-0.00418861,0.00206339
 ,0.00117629,0.00114523,0.00147452,0.00522441,0.00260726,-0.00090098,-0
 .00094219,0.00017506,0.00040278,0.00056012,-0.00011502,0.00036784,-0.0
 0018895,0.00007925,-0.00049604,0.03818533,-0.07988133,0.00253854,0.000
 12962,0.00019897,0.00014789,0.00002058,-0.00003490,0.00001819,0.000202
 08,-0.00017970,0.00006311,0.00001349,0.00002206,-0.00001508,-0.0319166
 2,0.13378840,-0.00053284,0.00073915,0.00050365,-0.00009503,-0.00056672
 ,0.00026005,0.00022055,-0.00002103,0.00009838,-0.00011084,0.00002259,-
 0.00009865,-0.00000276,-0.00012224,-0.00008303,-0.00271944,0.00195903,
 -0.00056209,0.00015181,-0.00127120,-0.00061042,-0.00687152,0.00846219,
 -0.00142001,0.00222850,0.00348332,-0.00205839,-0.00310217,-0.00211333,
 0.00166719,0.00056120,-0.00031513,-0.00014876,-0.00036491,-0.00031327,
 0.00009739,0.00030725,0.00019728,0.00024232,0.00321795,-0.01122111,-0.
 02621582,-0.00006065,-0.00006546,-0.00002030,-0.00000013,0.00000744,-0
 .00001907,-0.00002297,0.00001273,-0.00000406,-0.00000703,0.00000146,0.
 00000477,0.03777005,0.08891088,0.25741618,0.00043218,-0.00024055,-0.00
 014085,-0.00014812,0.00004050,0.00014882,-0.00013418,0.00018569,-0.000
 42514,0.00015362,-0.00008831,-0.00000999,-0.00016947,0.00007342,0.0000
 0327,0.00032330,0.00013679,0.00021359,-0.00086578,-0.00023590,-0.00053
 177,-0.00195640,-0.00017259,0.00039615,0.00073815,0.00012080,-0.000363
 14,-0.00020846,-0.00005246,0.00078837,-0.00004316,-0.00004688,0.000013
 52,0.00004753,-0.00005090,0.00013726,-0.00006802,0.00011607,-0.0001596
 3,0.00009249,0.00676004,0.00519756,0.00000023,0.00000080,-0.00000756,0
 .00000135,-0.00000003,-0.00000179,0.00000617,0.00000748,0.00001476,0.0
 0000411,-0.00000763,-0.00001072,-0.01055623,-0.01276221,-0.03269265,0.
 01210005,-0.00017883,0.00007670,0.00008686,-0.00009877,-0.00014262,0.0
 0014618,-0.00004475,0.00011614,0.00005089,-0.00005781,0.00004720,-0.00
 002671,-0.00002533,0.00002376,-0.00002717,-0.00049097,0.00059136,-0.00
 068905,-0.00043477,-0.00046851,-0.00094829,-0.00047985,-0.00006558,0.0
 0155065,0.00127126,0.00088773,-0.00078993,-0.00082854,-0.00053658,0.00
 050234,0.00014219,-0.00004110,-0.00009801,-0.00020315,-0.00005003,-0.0
 0006754,0.00005303,0.00003468,0.00008705,0.00417611,-0.01066758,-0.008
 20553,-0.00001926,-0.00002606,-0.00001358,0.00000292,0.00000401,-0.000
 00728,-0.00000047,0.00001388,-0.00001025,0.00000230,-0.00000335,0.0000
 0533,-0.00958930,-0.04468117,-0.08104710,0.00606187,0.05510547,-0.0001
 8018,0.00006120,-0.00015690,-0.00010421,0.00022115,0.00000591,0.000044
 68,-0.00009912,0.00014723,0.00003719,-0.00016485,-0.00023793,-0.000001
 64,0.00002345,0.00002123,0.00095436,-0.00024202,0.00007307,0.00076900,
 0.00100050,0.00013722,-0.00018733,0.00279422,0.00122091,-0.00108743,-0
 .00112912,-0.00024680,0.00013116,0.00008740,-0.00010269,-0.00004850,0.
 00006497,-0.00002942,0.00000230,0.00001682,0.00000489,-0.00006559,-0.0
 0001621,-0.00004113,0.00008776,-0.00105689,0.00260854,0.00000528,0.000
 00132,0.00001234,0.00000569,0.00000216,-0.00000028,0.00000741,-0.00000
 204,0.00000001,0.00000438,-0.00000136,0.00000471,-0.02824309,-0.090978
 19,-0.22393411,0.02809333,0.08968105,0.22045433,0.00032396,-0.00049291
 ,-0.00013058,0.00022565,0.00005428,-0.00008981,-0.00010210,0.00058911,
 -0.00019764,0.00002319,0.00013428,-0.00011239,-0.00003494,0.00009244,0
 .00002619,0.00015099,-0.00219080,-0.00057071,0.00127351,0.00066708,0.0
 0330059,0.00156759,0.00111783,-0.00367285,0.00052838,-0.00010093,0.001
 87888,-0.00465499,0.00006970,-0.00498604,0.00074036,-0.00025111,-0.000
 07158,-0.00005814,-0.00002220,-0.00030157,-0.00017168,0.00013391,-0.00
 011080,-0.01833921,-0.00141231,-0.00044596,0.00001157,0.00000268,0.000
 00659,0.00000529,-0.00000082,0.00000461,0.00003944,-0.00000363,0.00000
 215,-0.00000004,-0.00000327,-0.00001110,0.00140633,-0.00012672,0.00197
 300,-0.00038834,0.00051553,-0.00008350,0.20142023,-0.00011126,0.000175
 54,-0.00004246,0.00014690,-0.00013632,0.00000845,-0.00002080,0.0000459
 3,-0.00046626,-0.00007278,0.00020547,0.00010981,0.00000668,-0.00002795
 ,0.00003873,-0.00082278,0.00120323,0.00040553,-0.00074424,-0.00424034,
 0.00514718,0.00053601,0.00102115,0.00205678,0.00052298,0.00114278,-0.0
 0046845,-0.00032906,0.00034977,0.00037491,0.00003548,0.00013609,-0.000
 08679,-0.00002124,-0.00010014,0.00014040,0.00010647,0.00012773,-0.0000
 2899,-0.00111945,-0.01264051,-0.00204565,-0.00002713,-0.00003739,-0.00
 002461,0.00000770,-0.00000285,-0.00000156,0.00000787,0.00000353,0.0000
 0795,-0.00000729,-0.00000043,-0.00000126,0.00053517,-0.00434140,-0.006
 10145,0.00017697,-0.00038985,-0.00050461,0.01334452,0.30438376,-0.0001
 1186,0.00048983,0.00013176,-0.00027711,0.00038029,-0.00005787,-0.00027
 876,0.00018516,-0.00000855,-0.00005477,0.00017263,0.00011554,0.0000829
 4,0.00006452,0.00000324,0.00022740,-0.00273863,-0.00094175,0.00208756,
 0.00645270,-0.00411568,-0.00072650,0.00084106,-0.00436400,0.00168937,-
 0.00114882,-0.00051518,-0.00140633,0.00006133,-0.00122406,0.00032986,-
 0.00006929,0.00016536,-0.00017391,0.00009874,0.00003728,-0.00001872,-0
 .00010283,-0.00009205,-0.01417285,0.00221433,-0.01100684,0.00000108,0.
 00000981,-0.00000739,-0.00000854,-0.00000323,0.00001897,-0.00000470,0.
 00000977,0.00000765,0.00000602,-0.00000175,-0.00001021,0.00189480,-0.0
 0630732,-0.00421125,-0.00011510,0.00012416,-0.00000977,-0.12637213,0.0
 2128638,0.14978979,0.00005255,0.00000051,-0.00005272,-0.00001914,0.000
 04232,0.00005989,-0.00005943,0.00001272,-0.00011653,0.00001654,0.00006
 074,0.00003762,-0.00000726,0.00000261,0.00000487,-0.00015756,0.0001222
 0,0.00015324,-0.00011448,-0.00056129,0.00025777,-0.00013526,0.00014378
 ,0.00034068,0.00002797,-0.00007755,-0.00025463,0.00000095,-0.00000608,
 0.00017629,-0.00032864,0.00023441,-0.00012836,0.00001046,-0.00002557,0
 .00003031,-0.00007188,0.00005655,-0.00006427,0.00040741,-0.00257627,-0
 .00159114,0.00000613,0.00000751,0.00000727,0.00000368,-0.00000094,-0.0
 0000248,0.00002192,-0.00000703,0.00000457,0.00000077,-0.00000182,-0.00
 000147,-0.00039196,-0.00039744,-0.00013270,0.00057230,0.00011976,-0.00
 009903,-0.04376464,0.08399934,0.04132818,0.04003510,0.00016650,0.00010
 829,0.00014214,0.00000659,-0.00007266,0.00004776,0.00006771,-0.0000396
 2,-0.00005289,-0.00004248,0.00007864,-0.00003038,-0.00002026,-0.000058
 28,-0.00001473,-0.00038851,0.00000535,0.00011474,0.00016927,-0.0000568
 6,0.00083257,-0.00001948,-0.00016904,0.00003451,0.00008870,-0.00002560
 ,0.00007622,-0.00002026,0.00015784,0.00026747,-0.00010074,0.00013410,-
 0.00006040,0.00002263,-0.00002729,-0.00000793,-0.00004823,0.00008350,-
 0.00002381,0.00001338,0.00027843,-0.00104105,0.00000387,0.00000564,0.0
 0000625,0.00000277,-0.00000079,-0.00000253,0.00001864,-0.00001223,0.00
 000501,0.00000009,-0.00000070,-0.00000243,-0.00012948,-0.00025425,-0.0
 0043246,-0.00000149,0.00022984,0.00014506,0.05865294,-0.20738547,-0.06
 870423,-0.06371091,0.21976703,-0.00001862,0.00007779,0.00001804,0.0000
 6111,-0.00001096,-0.00000554,-0.00007331,-0.00007498,-0.00009784,-0.00
 007196,0.00005546,0.00004926,0.00003777,-0.00003132,-0.00001080,-0.000
 41153,0.00051937,-0.00005105,0.00037409,-0.00018316,0.00086051,-0.0000
 2442,0.00031385,0.00082315,0.00008919,0.00043843,-0.00051405,0.0001799
 8,-0.00014092,0.00046746,-0.00039901,0.00016665,-0.00001126,-0.0000309
 1,-0.00002319,0.00007493,0.00005840,-0.00004319,0.00004526,0.00144056,
 -0.00696412,-0.00392649,-0.00000053,0.00000112,0.00000032,0.00000095,-
 0.00000149,-0.00000002,-0.00000380,0.00000228,-0.00000867,0.00000038,0
 .00000211,0.00000541,-0.00026437,-0.00028871,-0.00098697,-0.00009614,0
 .00006772,-0.00019377,0.03669327,-0.07953225,-0.04639587,-0.03355920,0
 .07362042,0.04608208,-0.00003277,0.00005696,0.00001450,0.00003766,0.00
 000783,0.00007827,-0.00003766,0.00001539,-0.00001056,0.00002443,0.0000
 2498,0.00004733,-0.00001839,0.00001564,-0.00001598,-0.00001891,-0.0001
 7414,0.00002740,0.00012698,0.00024134,-0.00070455,-0.00038817,-0.00032
 932,-0.00002770,-0.00013222,-0.00005234,-0.00065534,0.00011700,-0.0000
 6386,0.00033292,-0.00004132,0.00014789,-0.00006097,0.00001730,-0.00004
 287,-0.00000216,-0.00002388,0.00005974,-0.00003392,0.00284536,0.002924
 55,-0.00052224,0.00000514,0.00000582,0.00000705,0.00000202,0.00000062,
 -0.00000468,0.00001138,0.00000174,0.00000106,0.00000201,-0.00000228,-0
 .00000280,-0.00008233,0.00013225,0.00028532,0.00006668,0.00010683,-0.0
 0004206,-0.14020241,-0.09615007,0.09607406,0.00389449,0.00526873,-0.00
 398190,0.13382761,0.00006207,-0.00002687,-0.00001262,-0.00000086,0.000
 01689,-0.00003479,0.00001919,0.00001854,-0.00003568,-0.00001716,-0.000
 01932,-0.00000340,-0.00000359,0.00000286,0.00000059,-0.00012880,-0.000
 02294,0.00002249,0.00029343,0.00011244,0.00089062,0.00007507,0.0000852
 5,-0.00001391,-0.00013337,0.00003459,-0.00000851,0.00022904,-0.0000007
 5,-0.00025204,0.00007602,-0.00015506,0.00015611,-0.00002282,0.00001917
 ,0.00001400,0.00005742,-0.00005774,0.00004494,-0.00003845,-0.00013692,
 0.00027084,-0.00000889,-0.00001380,-0.00001376,-0.00000412,0.00000110,
 0.00000295,-0.00002325,0.00001456,-0.00000527,-0.00000177,0.00000038,0
 .00000117,-0.00000514,-0.00004615,-0.00020555,-0.00002146,-0.00005834,
 0.00009509,-0.07076958,-0.07949231,0.04668540,-0.01743754,-0.01274587,
 0.01202908,0.08780456,0.09247029,0.00005536,0.00017793,-0.00009497,-0.
 00000083,0.00009472,0.00003860,-0.00006433,-0.00005010,0.00010626,0.00
 008224,0.00004261,0.00007418,-0.00000808,0.00000121,-0.00000074,0.0003
 3955,-0.00037724,-0.00008630,-0.00089729,0.00021132,-0.00149916,-0.000
 48618,-0.00019156,0.00008566,-0.00025256,-0.00066069,-0.00053305,0.000
 23944,0.00003071,0.00088281,-0.00023871,0.00009723,0.00011231,0.000003
 53,0.00001283,0.00009214,-0.00000883,-0.00007084,0.00006982,0.00523642
 ,0.00564866,-0.00408834,0.00000177,-0.00000010,-0.00000310,-0.00000466
 ,0.00000132,-0.00000230,-0.00002275,0.00002389,-0.00001239,-0.00000032
 ,-0.00000232,0.00000506,0.00040823,0.00020106,0.00008301,-0.00045216,-
 0.00037179,0.00026240,0.09327137,0.05972820,-0.07730911,-0.00639814,-0
 .00491930,0.00377587,-0.09080306,-0.05962774,0.07804133\\-0.00000312,0
 .00000718,0.00002258,0.00000151,0.00002195,-0.00001464,-0.00000589,-0.
 00000845,-0.00000796,-0.00000458,0.00000076,0.00000205,0.00000210,-0.0
 0000109,-0.00000735,0.00001901,0.00001341,-0.00001481,-0.00000995,0.00
 001710,0.00000556,-0.00000107,0.00000345,-0.00001577,0.00001834,-0.000
 04212,0.00002592,0.00001273,0.00000603,-0.00000892,0.00000383,0.000004
 00,-0.00000364,-0.00000971,0.00002093,-0.00000056,0.00000573,-0.000021
 69,-0.00000428,-0.00002758,-0.00001983,0.00002362,-0.00000290,-0.00000
 367,0.00000416,0.00000273,0.00000567,-0.00000467,-0.00000117,0.0000013
 3,0.00000893,-0.00000032,-0.00000018,-0.00000405,-0.00000961,-0.000010
 25,0.00000083,0.00000183,0.00000116,-0.00000114,0.00000804,0.00000006,
 -0.00002060,0.00000073,0.00000217,0.00000560,-0.00000067,0.00000208,0.
 00000918\\\@
 The archive entry for this job was punched.


 ALL MEN WHO EXPLORE
 DEPLORE
 THAT FRUSTRATING HURDLE
 THE GIRDLE.

         -- COLIN FLETCHER
 Job cpu time:       0 days  1 hours 55 minutes 36.9 seconds.
 Elapsed time:       0 days  0 hours  2 minutes 32.1 seconds.
 File lengths (MBytes):  RWF=    505 Int=      0 D2E=      0 Chk=     13 Scr=      2
 Normal termination of Gaussian 16 at Fri Nov  4 10:37:37 2022.
