 Entering Gaussian System, Link 0=g16
 Initial command:
 /home/chesagar/softwares/G16_AVX2//g16/l1.exe "/home/chesagar/scratch/Gau-78412.inp" -scrdir="/home/chesagar/scratch/"
 Entering Link 1 = /home/chesagar/softwares/G16_AVX2//g16/l1.exe PID=     78415.
  
 Copyright (c) 1988-2019, Gaussian, Inc.  All Rights Reserved.
  
 This is part of the Gaussian(R) 16 program.  It is based on
 the Gaussian(R) 09 system (copyright 2009, Gaussian, Inc.),
 the Gaussian(R) 03 system (copyright 2003, Gaussian, Inc.),
 the Gaussian(R) 98 system (copyright 1998, Gaussian, Inc.),
 the Gaussian(R) 94 system (copyright 1995, Gaussian, Inc.),
 the Gaussian 92(TM) system (copyright 1992, Gaussian, Inc.),
 the Gaussian 90(TM) system (copyright 1990, Gaussian, Inc.),
 the Gaussian 88(TM) system (copyright 1988, Gaussian, Inc.),
 the Gaussian 86(TM) system (copyright 1986, Carnegie Mellon
 University), and the Gaussian 82(TM) system (copyright 1983,
 Carnegie Mellon University). Gaussian is a federally registered
 trademark of Gaussian, Inc.
  
 This software contains proprietary and confidential information,
 including trade secrets, belonging to Gaussian, Inc.
  
 This software is provided under written license and may be
 used, copied, transmitted, or stored only in accord with that
 written license.
  
 The following legend is applicable only to US Government
 contracts under FAR:
  
                    RESTRICTED RIGHTS LEGEND
  
 Use, reproduction and disclosure by the US Government is
 subject to restrictions as set forth in subparagraphs (a)
 and (c) of the Commercial Computer Software - Restricted
 Rights clause in FAR 52.227-19.
  
 Gaussian, Inc.
 340 Quinnipiac St., Bldg. 40, Wallingford CT 06492
  
  
 ---------------------------------------------------------------
 Warning -- This program may not be used in any manner that
 competes with the business of Gaussian, Inc. or will provide
 assistance to any competitor of Gaussian, Inc.  The licensee
 of this program is prohibited from giving any competitor of
 Gaussian, Inc. access to this program.  By using this program,
 the user acknowledges that Gaussian, Inc. is engaged in the
 business of creating and licensing software in the field of
 computational chemistry and represents and warrants to the
 licensee that it is not a competitor of Gaussian, Inc. and that
 it will not use this program in any manner prohibited above.
 ---------------------------------------------------------------
  

 Cite this work as:
 Gaussian 16, Revision C.01,
 M. J. Frisch, G. W. Trucks, H. B. Schlegel, G. E. Scuseria, 
 M. A. Robb, J. R. Cheeseman, G. Scalmani, V. Barone, 
 G. A. Petersson, H. Nakatsuji, X. Li, M. Caricato, A. V. Marenich, 
 J. Bloino, B. G. Janesko, R. Gomperts, B. Mennucci, H. P. Hratchian, 
 J. V. Ortiz, A. F. Izmaylov, J. L. Sonnenberg, D. Williams-Young, 
 F. Ding, F. Lipparini, F. Egidi, J. Goings, B. Peng, A. Petrone, 
 T. Henderson, D. Ranasinghe, V. G. Zakrzewski, J. Gao, N. Rega, 
 G. Zheng, W. Liang, M. Hada, M. Ehara, K. Toyota, R. Fukuda, 
 J. Hasegawa, M. Ishida, T. Nakajima, Y. Honda, O. Kitao, H. Nakai, 
 T. Vreven, K. Throssell, J. A. Montgomery, Jr., J. E. Peralta, 
 F. Ogliaro, M. J. Bearpark, J. J. Heyd, E. N. Brothers, K. N. Kudin, 
 V. N. Staroverov, T. A. Keith, R. Kobayashi, J. Normand, 
 K. Raghavachari, A. P. Rendell, J. C. Burant, S. S. Iyengar, 
 J. Tomasi, M. Cossi, J. M. Millam, M. Klene, C. Adamo, R. Cammi, 
 J. W. Ochterski, R. L. Martin, K. Morokuma, O. Farkas, 
 J. B. Foresman, and D. J. Fox, Gaussian, Inc., Wallingford CT, 2019.
 
 ******************************************
 Gaussian 16:  ES64L-G16RevC.01  3-Jul-2019
                 4-Nov-2022 
 ******************************************
 %nprocshared=48
 Will use up to   48 processors via shared memory.
 %mem=100GB
 -----------------------------------------------------------
 # opt=(calcfc,ts,noeigen) freq b3lyp/gen nosymm pseudo=read
 -----------------------------------------------------------
 1/5=1,10=4,11=1,18=20,26=3,38=1/1,3;
 2/9=110,12=2,15=1,17=6,18=5,40=1/2;
 3/5=7,11=2,16=1,17=8,25=1,30=1,71=2,74=-5,140=1/1,2,3;
 4//1;
 5/5=2,38=5/2;
 8/6=4,10=90,11=11/1;
 11/6=1,8=1,9=11,15=111,16=1,31=1/1,2,10;
 10/6=1,13=1,31=1/2;
 6/7=2,8=2,9=2,10=2,28=1/1;
 7/10=1,25=1,30=1/1,2,3,16;
 1/5=1,10=4,11=1,18=20,26=3/3(2);
 2/9=110,15=1/2;
 99//99;
 2/9=110,15=1/2;
 3/5=7,6=1,11=2,16=1,17=8,25=1,30=1,71=1,74=-5,82=7/1,2,3;
 4/5=5,16=3,69=1/1;
 5/5=2,38=5/2;
 7/30=1/1,2,3,16;
 1/5=1,11=1,18=20,26=3/3(-5);
 2/9=110,15=1/2;
 6/7=2,8=2,9=2,10=2,19=2,28=1/1;
 99/9=1/99;
 -------------------
 Title Card Required
 -------------------
 Symbolic Z-matrix:
 Charge =  0 Multiplicity = 1
 42                    0.18659   1.5972    11.45518 
 16                    1.14953   3.68199   11.80399 
 16                   -1.95355   1.7423    12.42623 
 16                   -0.26066   1.25496   9.15121 
 16                    1.84141   0.01565   11.52617 
 42                   -2.03372   2.45712   10.19143 
 16                   -3.28958   2.25351   8.17412 
 16                   -1.51574   4.74631   10.30117 
 42                    0.37917   3.51376   9.44442 
 16                    0.14625   4.05175   7.02868 
 1                    -0.62956   3.06011   5.87886 
 16                    2.8018    2.88107   8.96007 
 42                    2.95217   2.10803   11.06265 
 42                   -2.07777   4.20698   8.00508 
 16                    4.11591   3.56209   12.53816 
 1                     5.34348   2.99919   12.61526 
 16                    4.85099   0.71263   11.00478 
 1                     5.84832   1.62939   10.97568 
 16                   -3.25232   6.23114   7.87993 
 1                    -3.16579   6.8088    9.09648 
 16                   -2.82514   3.96697   5.43093 
 1                    -1.16864   3.14568   5.52592 
 1                    -2.28829   5.08516   4.8938 
 
 Add virtual bond connecting atoms H11        and S10        Dist= 3.22D+00.
 Add virtual bond connecting atoms H22        and S21        Dist= 3.50D+00.

 GradGradGradGradGradGradGradGradGradGradGradGradGradGradGradGradGradGrad
 Berny optimization.
 Initialization pass.
                           ----------------------------
                           !    Initial Parameters    !
                           ! (Angstroms and Degrees)  !
 --------------------------                            --------------------------
 ! Name  Definition              Value          Derivative Info.                !
 --------------------------------------------------------------------------------
 ! R1    R(1,2)                  2.3228         calculate D2E/DX2 analytically  !
 ! R2    R(1,3)                  2.3546         calculate D2E/DX2 analytically  !
 ! R3    R(1,4)                  2.3718         calculate D2E/DX2 analytically  !
 ! R4    R(1,5)                  2.2901         calculate D2E/DX2 analytically  !
 ! R5    R(1,6)                  2.6956         calculate D2E/DX2 analytically  !
 ! R6    R(1,9)                  2.7845         calculate D2E/DX2 analytically  !
 ! R7    R(1,13)                 2.8396         calculate D2E/DX2 analytically  !
 ! R8    R(2,9)                  2.4878         calculate D2E/DX2 analytically  !
 ! R9    R(2,13)                 2.5053         calculate D2E/DX2 analytically  !
 ! R10   R(3,6)                  2.3477         calculate D2E/DX2 analytically  !
 ! R11   R(4,6)                  2.3814         calculate D2E/DX2 analytically  !
 ! R12   R(4,9)                  2.3659         calculate D2E/DX2 analytically  !
 ! R13   R(5,13)                 2.4139         calculate D2E/DX2 analytically  !
 ! R14   R(6,7)                  2.385          calculate D2E/DX2 analytically  !
 ! R15   R(6,8)                  2.3496         calculate D2E/DX2 analytically  !
 ! R16   R(6,9)                  2.738          calculate D2E/DX2 analytically  !
 ! R17   R(6,14)                 2.8007         calculate D2E/DX2 analytically  !
 ! R18   R(7,14)                 2.305          calculate D2E/DX2 analytically  !
 ! R19   R(8,9)                  2.4174         calculate D2E/DX2 analytically  !
 ! R20   R(8,14)                 2.4246         calculate D2E/DX2 analytically  !
 ! R21   R(9,10)                 2.4859         calculate D2E/DX2 analytically  !
 ! R22   R(9,12)                 2.5503         calculate D2E/DX2 analytically  !
 ! R23   R(9,14)                 2.9307         calculate D2E/DX2 analytically  !
 ! R24   R(10,11)                1.7051         calculate D2E/DX2 analytically  !
 ! R25   R(10,14)                2.4339         calculate D2E/DX2 analytically  !
 ! R26   R(11,22)                0.65           calculate D2E/DX2 analytically  !
 ! R27   R(12,13)                2.2452         calculate D2E/DX2 analytically  !
 ! R28   R(13,15)                2.3761         calculate D2E/DX2 analytically  !
 ! R29   R(13,17)                2.3571         calculate D2E/DX2 analytically  !
 ! R30   R(14,19)                2.3436         calculate D2E/DX2 analytically  !
 ! R31   R(14,21)                2.6912         calculate D2E/DX2 analytically  !
 ! R32   R(15,16)                1.3527         calculate D2E/DX2 analytically  !
 ! R33   R(17,18)                1.355          calculate D2E/DX2 analytically  !
 ! R34   R(19,20)                1.3495         calculate D2E/DX2 analytically  !
 ! R35   R(21,22)                1.8514         calculate D2E/DX2 analytically  !
 ! R36   R(21,23)                1.3517         calculate D2E/DX2 analytically  !
 ! A1    A(2,1,3)              105.044          calculate D2E/DX2 analytically  !
 ! A2    A(2,1,4)              110.7053         calculate D2E/DX2 analytically  !
 ! A3    A(2,1,5)              108.3982         calculate D2E/DX2 analytically  !
 ! A4    A(2,1,6)               97.2123         calculate D2E/DX2 analytically  !
 ! A5    A(3,1,4)              103.775          calculate D2E/DX2 analytically  !
 ! A6    A(3,1,5)              133.357          calculate D2E/DX2 analytically  !
 ! A7    A(3,1,9)              108.5573         calculate D2E/DX2 analytically  !
 ! A8    A(3,1,13)             158.6125         calculate D2E/DX2 analytically  !
 ! A9    A(4,1,5)               93.8256         calculate D2E/DX2 analytically  !
 ! A10   A(4,1,13)              94.3203         calculate D2E/DX2 analytically  !
 ! A11   A(5,1,6)              146.0999         calculate D2E/DX2 analytically  !
 ! A12   A(5,1,9)              116.5986         calculate D2E/DX2 analytically  !
 ! A13   A(6,1,13)             132.844          calculate D2E/DX2 analytically  !
 ! A14   A(9,1,13)              73.0822         calculate D2E/DX2 analytically  !
 ! A15   A(9,2,13)              84.2417         calculate D2E/DX2 analytically  !
 ! A16   A(1,6,7)              143.4205         calculate D2E/DX2 analytically  !
 ! A17   A(1,6,8)               96.1611         calculate D2E/DX2 analytically  !
 ! A18   A(1,6,14)             125.3273         calculate D2E/DX2 analytically  !
 ! A19   A(3,6,4)              103.6903         calculate D2E/DX2 analytically  !
 ! A20   A(3,6,7)              142.8584         calculate D2E/DX2 analytically  !
 ! A21   A(3,6,8)              104.1615         calculate D2E/DX2 analytically  !
 ! A22   A(3,6,9)              110.3111         calculate D2E/DX2 analytically  !
 ! A23   A(3,6,14)             159.0452         calculate D2E/DX2 analytically  !
 ! A24   A(4,6,7)               88.8247         calculate D2E/DX2 analytically  !
 ! A25   A(4,6,8)              110.3708         calculate D2E/DX2 analytically  !
 ! A26   A(4,6,14)              89.205          calculate D2E/DX2 analytically  !
 ! A27   A(7,6,8)              103.8136         calculate D2E/DX2 analytically  !
 ! A28   A(7,6,9)              105.4396         calculate D2E/DX2 analytically  !
 ! A29   A(1,9,8)               92.3383         calculate D2E/DX2 analytically  !
 ! A30   A(1,9,10)             147.5904         calculate D2E/DX2 analytically  !
 ! A31   A(1,9,12)              91.8389         calculate D2E/DX2 analytically  !
 ! A32   A(1,9,14)             117.354          calculate D2E/DX2 analytically  !
 ! A33   A(2,9,4)              105.4169         calculate D2E/DX2 analytically  !
 ! A34   A(2,9,6)               92.3049         calculate D2E/DX2 analytically  !
 ! A35   A(2,9,8)               82.6525         calculate D2E/DX2 analytically  !
 ! A36   A(2,9,10)             159.4017         calculate D2E/DX2 analytically  !
 ! A37   A(2,9,12)              84.4194         calculate D2E/DX2 analytically  !
 ! A38   A(2,9,14)             135.1871         calculate D2E/DX2 analytically  !
 ! A39   A(4,9,8)              108.5855         calculate D2E/DX2 analytically  !
 ! A40   A(4,9,10)              93.4885         calculate D2E/DX2 analytically  !
 ! A41   A(4,9,12)              89.7999         calculate D2E/DX2 analytically  !
 ! A42   A(4,9,14)              86.4594         calculate D2E/DX2 analytically  !
 ! A43   A(6,9,10)             105.4314         calculate D2E/DX2 analytically  !
 ! A44   A(6,9,12)             142.4879         calculate D2E/DX2 analytically  !
 ! A45   A(8,9,10)              99.2428         calculate D2E/DX2 analytically  !
 ! A46   A(8,9,12)             159.7873         calculate D2E/DX2 analytically  !
 ! A47   A(10,9,12)             87.6006         calculate D2E/DX2 analytically  !
 ! A48   A(12,9,14)            139.6225         calculate D2E/DX2 analytically  !
 ! A49   A(9,10,11)            124.8961         calculate D2E/DX2 analytically  !
 ! A50   A(11,10,14)            83.7917         calculate D2E/DX2 analytically  !
 ! A51   A(10,11,22)           131.832          calculate D2E/DX2 analytically  !
 ! A52   A(9,12,13)             88.3484         calculate D2E/DX2 analytically  !
 ! A53   A(1,13,12)             97.248          calculate D2E/DX2 analytically  !
 ! A54   A(1,13,15)            120.0829         calculate D2E/DX2 analytically  !
 ! A55   A(1,13,17)            132.9577         calculate D2E/DX2 analytically  !
 ! A56   A(2,13,5)              99.0132         calculate D2E/DX2 analytically  !
 ! A57   A(2,13,12)             90.7228         calculate D2E/DX2 analytically  !
 ! A58   A(2,13,15)             77.5368         calculate D2E/DX2 analytically  !
 ! A59   A(2,13,17)            163.501          calculate D2E/DX2 analytically  !
 ! A60   A(5,13,12)            116.5805         calculate D2E/DX2 analytically  !
 ! A61   A(5,13,15)            129.5382         calculate D2E/DX2 analytically  !
 ! A62   A(5,13,17)             82.0823         calculate D2E/DX2 analytically  !
 ! A63   A(12,13,15)           113.8056         calculate D2E/DX2 analytically  !
 ! A64   A(12,13,17)           103.5787         calculate D2E/DX2 analytically  !
 ! A65   A(15,13,17)            89.0247         calculate D2E/DX2 analytically  !
 ! A66   A(6,14,10)            105.0077         calculate D2E/DX2 analytically  !
 ! A67   A(6,14,19)            126.1002         calculate D2E/DX2 analytically  !
 ! A68   A(6,14,21)            134.054          calculate D2E/DX2 analytically  !
 ! A69   A(7,14,8)             103.9415         calculate D2E/DX2 analytically  !
 ! A70   A(7,14,9)             101.7862         calculate D2E/DX2 analytically  !
 ! A71   A(7,14,10)            117.1141         calculate D2E/DX2 analytically  !
 ! A72   A(7,14,19)            118.191          calculate D2E/DX2 analytically  !
 ! A73   A(7,14,21)             81.2898         calculate D2E/DX2 analytically  !
 ! A74   A(8,14,10)            100.5024         calculate D2E/DX2 analytically  !
 ! A75   A(8,14,19)             88.5461         calculate D2E/DX2 analytically  !
 ! A76   A(9,14,19)            130.5935         calculate D2E/DX2 analytically  !
 ! A77   A(9,14,21)            132.9608         calculate D2E/DX2 analytically  !
 ! A78   A(10,14,19)           119.4473         calculate D2E/DX2 analytically  !
 ! A79   A(10,14,21)            82.2037         calculate D2E/DX2 analytically  !
 ! A80   A(19,14,21)            83.4984         calculate D2E/DX2 analytically  !
 ! A81   A(13,15,16)           103.0152         calculate D2E/DX2 analytically  !
 ! A82   A(13,17,18)           101.1238         calculate D2E/DX2 analytically  !
 ! A83   A(14,19,20)           106.8239         calculate D2E/DX2 analytically  !
 ! A84   A(14,21,22)            75.049          calculate D2E/DX2 analytically  !
 ! A85   A(14,21,23)           101.3046         calculate D2E/DX2 analytically  !
 ! A86   A(22,21,23)            91.8338         calculate D2E/DX2 analytically  !
 ! A87   A(11,22,21)           145.9272         calculate D2E/DX2 analytically  !
 ! A88   L(8,14,21,7,-1)       185.2313         calculate D2E/DX2 analytically  !
 ! A89   L(8,14,21,7,-2)       173.6901         calculate D2E/DX2 analytically  !
 ! D1    D(2,1,6,7)            122.8985         calculate D2E/DX2 analytically  !
 ! D2    D(2,1,6,8)             -0.3617         calculate D2E/DX2 analytically  !
 ! D3    D(2,1,6,14)            50.9776         calculate D2E/DX2 analytically  !
 ! D4    D(5,1,6,7)            -16.4526         calculate D2E/DX2 analytically  !
 ! D5    D(5,1,6,8)           -139.7128         calculate D2E/DX2 analytically  !
 ! D6    D(5,1,6,14)           -88.3735         calculate D2E/DX2 analytically  !
 ! D7    D(13,1,6,7)            72.0322         calculate D2E/DX2 analytically  !
 ! D8    D(13,1,6,8)           -51.2281         calculate D2E/DX2 analytically  !
 ! D9    D(13,1,6,14)            0.1112         calculate D2E/DX2 analytically  !
 ! D10   D(3,1,9,8)             17.5707         calculate D2E/DX2 analytically  !
 ! D11   D(3,1,9,10)           -93.7907         calculate D2E/DX2 analytically  !
 ! D12   D(3,1,9,12)           177.7897         calculate D2E/DX2 analytically  !
 ! D13   D(3,1,9,14)           -31.1951         calculate D2E/DX2 analytically  !
 ! D14   D(5,1,9,8)           -174.4665         calculate D2E/DX2 analytically  !
 ! D15   D(5,1,9,10)            74.1722         calculate D2E/DX2 analytically  !
 ! D16   D(5,1,9,12)           -14.2474         calculate D2E/DX2 analytically  !
 ! D17   D(5,1,9,14)           136.7678         calculate D2E/DX2 analytically  !
 ! D18   D(13,1,9,8)          -140.026          calculate D2E/DX2 analytically  !
 ! D19   D(13,1,9,10)          108.6127         calculate D2E/DX2 analytically  !
 ! D20   D(13,1,9,12)           20.1931         calculate D2E/DX2 analytically  !
 ! D21   D(13,1,9,14)          171.2083         calculate D2E/DX2 analytically  !
 ! D22   D(3,1,13,12)         -121.0591         calculate D2E/DX2 analytically  !
 ! D23   D(3,1,13,15)            1.8903         calculate D2E/DX2 analytically  !
 ! D24   D(3,1,13,17)          122.7216         calculate D2E/DX2 analytically  !
 ! D25   D(4,1,13,12)           26.9027         calculate D2E/DX2 analytically  !
 ! D26   D(4,1,13,15)          149.852          calculate D2E/DX2 analytically  !
 ! D27   D(4,1,13,17)          -89.3166         calculate D2E/DX2 analytically  !
 ! D28   D(6,1,13,12)          -18.485          calculate D2E/DX2 analytically  !
 ! D29   D(6,1,13,15)          104.4644         calculate D2E/DX2 analytically  !
 ! D30   D(6,1,13,17)         -134.7042         calculate D2E/DX2 analytically  !
 ! D31   D(9,1,13,12)          -23.2686         calculate D2E/DX2 analytically  !
 ! D32   D(9,1,13,15)           99.6807         calculate D2E/DX2 analytically  !
 ! D33   D(9,1,13,17)         -139.4879         calculate D2E/DX2 analytically  !
 ! D34   D(13,2,9,4)            64.3478         calculate D2E/DX2 analytically  !
 ! D35   D(13,2,9,6)           118.6345         calculate D2E/DX2 analytically  !
 ! D36   D(13,2,9,8)           171.673          calculate D2E/DX2 analytically  !
 ! D37   D(13,2,9,10)          -91.5943         calculate D2E/DX2 analytically  !
 ! D38   D(13,2,9,12)          -23.8996         calculate D2E/DX2 analytically  !
 ! D39   D(13,2,9,14)          165.1067         calculate D2E/DX2 analytically  !
 ! D40   D(9,2,13,5)           -89.8098         calculate D2E/DX2 analytically  !
 ! D41   D(9,2,13,12)           27.2607         calculate D2E/DX2 analytically  !
 ! D42   D(9,2,13,15)          141.5045         calculate D2E/DX2 analytically  !
 ! D43   D(9,2,13,17)          177.6441         calculate D2E/DX2 analytically  !
 ! D44   D(1,4,6,9)             77.554          calculate D2E/DX2 analytically  !
 ! D45   D(3,6,9,2)            -14.6068         calculate D2E/DX2 analytically  !
 ! D46   D(3,6,9,10)           175.9812         calculate D2E/DX2 analytically  !
 ! D47   D(3,6,9,12)            69.2278         calculate D2E/DX2 analytically  !
 ! D48   D(7,6,9,2)            175.6408         calculate D2E/DX2 analytically  !
 ! D49   D(7,6,9,10)             6.2288         calculate D2E/DX2 analytically  !
 ! D50   D(7,6,9,12)          -100.5246         calculate D2E/DX2 analytically  !
 ! D51   D(1,6,14,10)           21.2083         calculate D2E/DX2 analytically  !
 ! D52   D(1,6,14,19)         -124.4247         calculate D2E/DX2 analytically  !
 ! D53   D(1,6,14,21)          114.876          calculate D2E/DX2 analytically  !
 ! D54   D(3,6,14,10)          105.005          calculate D2E/DX2 analytically  !
 ! D55   D(3,6,14,19)          -40.628          calculate D2E/DX2 analytically  !
 ! D56   D(3,6,14,21)         -161.3273         calculate D2E/DX2 analytically  !
 ! D57   D(4,6,14,10)          -23.722          calculate D2E/DX2 analytically  !
 ! D58   D(4,6,14,19)         -169.3551         calculate D2E/DX2 analytically  !
 ! D59   D(4,6,14,21)           69.9456         calculate D2E/DX2 analytically  !
 ! D60   D(6,8,9,14)            75.8804         calculate D2E/DX2 analytically  !
 ! D61   D(1,9,10,11)           13.3107         calculate D2E/DX2 analytically  !
 ! D62   D(2,9,10,11)          170.1232         calculate D2E/DX2 analytically  !
 ! D63   D(4,9,10,11)           13.3094         calculate D2E/DX2 analytically  !
 ! D64   D(6,9,10,11)          -41.3339         calculate D2E/DX2 analytically  !
 ! D65   D(8,9,10,11)          -96.1678         calculate D2E/DX2 analytically  !
 ! D66   D(12,9,10,11)         102.9624         calculate D2E/DX2 analytically  !
 ! D67   D(1,9,12,13)          -24.6988         calculate D2E/DX2 analytically  !
 ! D68   D(2,9,12,13)           26.7414         calculate D2E/DX2 analytically  !
 ! D69   D(4,9,12,13)          -78.7711         calculate D2E/DX2 analytically  !
 ! D70   D(6,9,12,13)          -59.7658         calculate D2E/DX2 analytically  !
 ! D71   D(8,9,12,13)           77.1512         calculate D2E/DX2 analytically  !
 ! D72   D(10,9,12,13)        -172.2711         calculate D2E/DX2 analytically  !
 ! D73   D(14,9,12,13)        -163.0645         calculate D2E/DX2 analytically  !
 ! D74   D(1,9,14,7)           -28.1668         calculate D2E/DX2 analytically  !
 ! D75   D(1,9,14,19)          116.3545         calculate D2E/DX2 analytically  !
 ! D76   D(1,9,14,21)         -117.1884         calculate D2E/DX2 analytically  !
 ! D77   D(2,9,14,7)           -90.4683         calculate D2E/DX2 analytically  !
 ! D78   D(2,9,14,19)           54.0531         calculate D2E/DX2 analytically  !
 ! D79   D(2,9,14,21)         -179.4898         calculate D2E/DX2 analytically  !
 ! D80   D(4,9,14,7)            17.9307         calculate D2E/DX2 analytically  !
 ! D81   D(4,9,14,19)          162.452          calculate D2E/DX2 analytically  !
 ! D82   D(4,9,14,21)          -71.0909         calculate D2E/DX2 analytically  !
 ! D83   D(12,9,14,7)          103.4479         calculate D2E/DX2 analytically  !
 ! D84   D(12,9,14,19)        -112.0308         calculate D2E/DX2 analytically  !
 ! D85   D(12,9,14,21)          14.4263         calculate D2E/DX2 analytically  !
 ! D86   D(9,10,11,22)         114.3855         calculate D2E/DX2 analytically  !
 ! D87   D(14,10,11,22)         49.9847         calculate D2E/DX2 analytically  !
 ! D88   D(11,10,14,6)         101.9128         calculate D2E/DX2 analytically  !
 ! D89   D(11,10,14,7)          44.2961         calculate D2E/DX2 analytically  !
 ! D90   D(11,10,14,8)         156.0248         calculate D2E/DX2 analytically  !
 ! D91   D(11,10,14,19)       -109.6726         calculate D2E/DX2 analytically  !
 ! D92   D(11,10,14,21)        -31.7094         calculate D2E/DX2 analytically  !
 ! D93   D(10,11,22,21)        -27.9518         calculate D2E/DX2 analytically  !
 ! D94   D(9,12,13,1)           24.3824         calculate D2E/DX2 analytically  !
 ! D95   D(9,12,13,2)          -26.4073         calculate D2E/DX2 analytically  !
 ! D96   D(9,12,13,5)           74.05           calculate D2E/DX2 analytically  !
 ! D97   D(9,12,13,15)        -103.0905         calculate D2E/DX2 analytically  !
 ! D98   D(9,12,13,17)         161.8944         calculate D2E/DX2 analytically  !
 ! D99   D(1,13,15,16)         144.7186         calculate D2E/DX2 analytically  !
 ! D100  D(2,13,15,16)         174.0164         calculate D2E/DX2 analytically  !
 ! D101  D(5,13,15,16)          82.5495         calculate D2E/DX2 analytically  !
 ! D102  D(12,13,15,16)       -100.7669         calculate D2E/DX2 analytically  !
 ! D103  D(17,13,15,16)          3.6598         calculate D2E/DX2 analytically  !
 ! D104  D(1,13,17,18)        -171.4186         calculate D2E/DX2 analytically  !
 ! D105  D(2,13,17,18)         -74.5824         calculate D2E/DX2 analytically  !
 ! D106  D(5,13,17,18)        -169.596          calculate D2E/DX2 analytically  !
 ! D107  D(12,13,17,18)         74.8627         calculate D2E/DX2 analytically  !
 ! D108  D(15,13,17,18)        -39.4168         calculate D2E/DX2 analytically  !
 ! D109  D(6,14,19,20)          38.1954         calculate D2E/DX2 analytically  !
 ! D110  D(7,14,19,20)         103.269          calculate D2E/DX2 analytically  !
 ! D111  D(8,14,19,20)          -1.7916         calculate D2E/DX2 analytically  !
 ! D112  D(9,14,19,20)         -36.593          calculate D2E/DX2 analytically  !
 ! D113  D(10,14,19,20)       -103.0396         calculate D2E/DX2 analytically  !
 ! D114  D(21,14,19,20)        179.7355         calculate D2E/DX2 analytically  !
 ! D115  D(6,14,21,22)         -77.3636         calculate D2E/DX2 analytically  !
 ! D116  D(6,14,21,23)        -166.2404         calculate D2E/DX2 analytically  !
 ! D117  D(7,14,21,22)         -93.0974         calculate D2E/DX2 analytically  !
 ! D118  D(7,14,21,23)         178.0259         calculate D2E/DX2 analytically  !
 ! D119  D(9,14,21,22)           4.9332         calculate D2E/DX2 analytically  !
 ! D120  D(9,14,21,23)         -83.9435         calculate D2E/DX2 analytically  !
 ! D121  D(10,14,21,22)         26.0042         calculate D2E/DX2 analytically  !
 ! D122  D(10,14,21,23)        -62.8725         calculate D2E/DX2 analytically  !
 ! D123  D(19,14,21,22)        147.0033         calculate D2E/DX2 analytically  !
 ! D124  D(19,14,21,23)         58.1266         calculate D2E/DX2 analytically  !
 ! D125  D(14,21,22,11)        -14.4085         calculate D2E/DX2 analytically  !
 ! D126  D(23,21,22,11)         86.804          calculate D2E/DX2 analytically  !
 --------------------------------------------------------------------------------
 Trust Radius=3.00D-01 FncErr=1.00D-07 GrdErr=1.00D-06 EigMax=2.50D+02 EigMin=1.00D-04
 Number of steps in this run=    138 maximum allowed number of steps=    138.
 Search for a saddle point of order  1.
 GradGradGradGradGradGradGradGradGradGradGradGradGradGradGradGradGradGrad

                          Input orientation:                          
 ---------------------------------------------------------------------
 Center     Atomic      Atomic             Coordinates (Angstroms)
 Number     Number       Type             X           Y           Z
 ---------------------------------------------------------------------
      1         42           0        0.186589    1.597198   11.455180
      2         16           0        1.149529    3.681985   11.803992
      3         16           0       -1.953546    1.742302   12.426232
      4         16           0       -0.260659    1.254958    9.151211
      5         16           0        1.841412    0.015654   11.526168
      6         42           0       -2.033719    2.457122   10.191427
      7         16           0       -3.289575    2.253512    8.174121
      8         16           0       -1.515736    4.746306   10.301166
      9         42           0        0.379168    3.513760    9.444423
     10         16           0        0.146249    4.051753    7.028677
     11          1           0       -0.629558    3.060108    5.878860
     12         16           0        2.801804    2.881071    8.960068
     13         42           0        2.952167    2.108033   11.062653
     14         42           0       -2.077773    4.206984    8.005084
     15         16           0        4.115906    3.562094   12.538159
     16          1           0        5.343477    2.999190   12.615259
     17         16           0        4.850985    0.712628   11.004777
     18          1           0        5.848323    1.629391   10.975677
     19         16           0       -3.252318    6.231145    7.879933
     20          1           0       -3.165785    6.808804    9.096485
     21         16           0       -2.825141    3.966972    5.430932
     22          1           0       -1.168640    3.145683    5.525917
     23          1           0       -2.288290    5.085158    4.893795
 ---------------------------------------------------------------------
                    Distance matrix (angstroms):
                    1          2          3          4          5
     1  Mo   0.000000
     2  S    2.322770   0.000000
     3  S    2.354607   3.711957   0.000000
     4  S    2.371799   3.862167   3.718754   0.000000
     5  S    2.290144   3.741373   4.265341   3.405143   0.000000
     6  Mo   2.695609   3.772761   2.347711   2.381384   4.770633
     7  S    4.824916   5.909496   4.486285   3.335588   6.524665
     8  S    3.761189   3.239584   3.705620   3.884215   5.928755
     9  Mo   2.784500   2.487835   4.179809   2.365912   4.325340
    10  S    5.061659   4.893560   6.235086   3.534514   6.276233
    11  H    5.822504   6.217642   6.808645   3.755388   6.875063
    12  S    3.835787   3.385171   5.993700   3.472673   3.964573
    13  Mo   2.839622   2.505277   5.104814   3.834527   2.413850
    14  Mo   4.882774   5.012265   5.063264   3.651023   6.732406
    15  S    4.524731   3.058229   6.337383   5.995716   4.332977
    16  H    5.468534   4.325918   7.406892   6.815300   4.727797
    17  S    4.768849   4.812131   7.027262   5.464315   3.132914
    18  H    5.682094   5.194027   7.936373   6.386590   4.354598
    19  S    6.788368   6.424384   6.519613   5.943787   8.824593
    20  H    6.630437   5.977418   6.182732   6.268011   8.781929
    21  S    7.139882   7.516323   7.392094   5.269921   8.633744
    22  H    6.276194   6.713847   7.085189   4.188320   7.406787
    23  H    7.832156   7.844636   8.247687   6.075139   9.313575
                    6          7          8          9         10
     6  Mo   0.000000
     7  S    2.384985   0.000000
     8  S    2.349620   3.726238   0.000000
     9  Mo   2.737978   4.081858   2.417403   0.000000
    10  S    4.159098   4.043587   3.735476   2.485863   0.000000
    11  H    4.575314   3.604790   4.815119   3.733172   1.705085
    12  S    5.007820   6.173851   4.890685   2.550306   3.486078
    13  Mo   5.073456   6.879253   5.244283   3.348889   5.284334
    14  Mo   2.800724   2.305014   2.424613   2.930668   2.433874
    15  S    6.674279   8.694732   6.174292   4.851469   6.808255
    16  H    7.784075   9.737008   7.446895   5.912981   7.702530
    17  S    7.148702   8.755321   7.569727   5.502562   7.006687
    18  H    7.964093   9.578070   8.024929   5.983915   7.345767
    19  S    4.590342   3.988671   3.329089   4.797864   4.126093
    20  H    4.627916   4.649383   2.903070   4.852326   4.779825
    21  S    5.056511   3.267527   5.103046   5.155687   3.374779
    22  H    4.794732   3.508179   5.048314   4.229170   2.192757
    23  H    5.919146   4.447621   5.472780   5.503893   3.398916
                   11         12         13         14         15
    11  H    0.000000
    12  S    4.615208   0.000000
    13  Mo   6.372356   2.245231   0.000000
    14  Mo   2.816643   5.145902   6.249370   0.000000
    15  S    8.192539   3.872130   2.376068   7.702358   0.000000
    16  H    9.003329   4.453591   2.987157   8.819718   1.352677
    17  S    7.862700   3.616922   2.357120   8.319638   3.318291
    18  H    8.365850   3.861432   2.936730   8.848243   3.029515
    19  S    4.575876   7.003005   8.100950   2.343597   9.116668
    20  H    5.553222   7.145475   7.961935   3.023970   8.683851
    21  S    2.417359   6.730267   8.279446   2.691175   9.942572
    22  H    0.650000   5.256219   6.979485   2.845901   8.790413
    23  H    2.796886   6.877618   8.624411   3.239695  10.088099
                   16         17         18         19         20
    16  H    0.000000
    17  S    2.839818   0.000000
    18  H    2.195324   1.354985   0.000000
    19  S   10.332306  10.289908  10.657459   0.000000
    20  H    9.965062  10.250539  10.564650   1.349510   0.000000
    21  S   10.921423  10.029029  10.556394   3.362524   4.650626
    22  H    9.627455   8.495501   9.013145   4.404904   5.491448
    23  H   11.055141  10.364959  10.730148   3.340607   4.626398
                   21         22         23
    21  S    0.000000
    22  H    1.851360   0.000000
    23  H    1.351690   2.326964   0.000000
 Symmetry turned off by external request.
 Stoichiometry    H6Mo5S12
 Framework group  C1[X(H6Mo5S12)]
 Deg. of freedom    63
 Full point group                 C1      NOp   1
 Rotational constants (GHZ):           0.2008421           0.0700990           0.0628388
 General basis read from cards:  (5D, 7F)
 ======================================================================================================
                                       Pseudopotential Parameters
 ======================================================================================================
  Center     Atomic      Valence      Angular      Power
  Number     Number     Electrons     Momentum     of R      Exponent        Coefficient   SO-Coeffient
 ======================================================================================================
    1         42           14
                                      F and up 
                                                     0      537.9667807       -0.04694920    0.00000000
                                                     1      147.8982938      -20.20800840    0.00000000
                                                     2       45.7358898     -106.21163020    0.00000000
                                                     2       13.2911467      -41.81073680    0.00000000
                                                     2        4.7059961       -4.20541030    0.00000000
                                      S - F
                                                     0      110.2991760        2.80637170    0.00000000
                                                     1       23.2014645       44.51620120    0.00000000
                                                     2        5.3530131       82.77852270    0.00000000
                                      P - F
                                                     0       63.2901397        4.94208760    0.00000000
                                                     1       23.3315302       25.86049760    0.00000000
                                                     2       24.6759423      132.47087420    0.00000000
                                                     2        4.6493040       57.31497940    0.00000000
                                      D - F
                                                     0      104.4839977        3.00545910    0.00000000
                                                     1       66.2307245       26.36378510    0.00000000
                                                     2       39.1283176      183.38491990    0.00000000
                                                     2       13.1164437       98.44530680    0.00000000
                                                     2        3.6280263       22.49013770    0.00000000
    2         16
                                   No pseudopotential on this center.
    3         16
                                   No pseudopotential on this center.
    4         16
                                   No pseudopotential on this center.
    5         16
                                   No pseudopotential on this center.
    6         42           14
                                      F and up 
                                                     0      537.9667807       -0.04694920    0.00000000
                                                     1      147.8982938      -20.20800840    0.00000000
                                                     2       45.7358898     -106.21163020    0.00000000
                                                     2       13.2911467      -41.81073680    0.00000000
                                                     2        4.7059961       -4.20541030    0.00000000
                                      S - F
                                                     0      110.2991760        2.80637170    0.00000000
                                                     1       23.2014645       44.51620120    0.00000000
                                                     2        5.3530131       82.77852270    0.00000000
                                      P - F
                                                     0       63.2901397        4.94208760    0.00000000
                                                     1       23.3315302       25.86049760    0.00000000
                                                     2       24.6759423      132.47087420    0.00000000
                                                     2        4.6493040       57.31497940    0.00000000
                                      D - F
                                                     0      104.4839977        3.00545910    0.00000000
                                                     1       66.2307245       26.36378510    0.00000000
                                                     2       39.1283176      183.38491990    0.00000000
                                                     2       13.1164437       98.44530680    0.00000000
                                                     2        3.6280263       22.49013770    0.00000000
    7         16
                                   No pseudopotential on this center.
    8         16
                                   No pseudopotential on this center.
    9         42           14
                                      F and up 
                                                     0      537.9667807       -0.04694920    0.00000000
                                                     1      147.8982938      -20.20800840    0.00000000
                                                     2       45.7358898     -106.21163020    0.00000000
                                                     2       13.2911467      -41.81073680    0.00000000
                                                     2        4.7059961       -4.20541030    0.00000000
                                      S - F
                                                     0      110.2991760        2.80637170    0.00000000
                                                     1       23.2014645       44.51620120    0.00000000
                                                     2        5.3530131       82.77852270    0.00000000
                                      P - F
                                                     0       63.2901397        4.94208760    0.00000000
                                                     1       23.3315302       25.86049760    0.00000000
                                                     2       24.6759423      132.47087420    0.00000000
                                                     2        4.6493040       57.31497940    0.00000000
                                      D - F
                                                     0      104.4839977        3.00545910    0.00000000
                                                     1       66.2307245       26.36378510    0.00000000
                                                     2       39.1283176      183.38491990    0.00000000
                                                     2       13.1164437       98.44530680    0.00000000
                                                     2        3.6280263       22.49013770    0.00000000
   10         16
                                   No pseudopotential on this center.
   11          1
                                   No pseudopotential on this center.
   12         16
                                   No pseudopotential on this center.
   13         42           14
                                      F and up 
                                                     0      537.9667807       -0.04694920    0.00000000
                                                     1      147.8982938      -20.20800840    0.00000000
                                                     2       45.7358898     -106.21163020    0.00000000
                                                     2       13.2911467      -41.81073680    0.00000000
                                                     2        4.7059961       -4.20541030    0.00000000
                                      S - F
                                                     0      110.2991760        2.80637170    0.00000000
                                                     1       23.2014645       44.51620120    0.00000000
                                                     2        5.3530131       82.77852270    0.00000000
                                      P - F
                                                     0       63.2901397        4.94208760    0.00000000
                                                     1       23.3315302       25.86049760    0.00000000
                                                     2       24.6759423      132.47087420    0.00000000
                                                     2        4.6493040       57.31497940    0.00000000
                                      D - F
                                                     0      104.4839977        3.00545910    0.00000000
                                                     1       66.2307245       26.36378510    0.00000000
                                                     2       39.1283176      183.38491990    0.00000000
                                                     2       13.1164437       98.44530680    0.00000000
                                                     2        3.6280263       22.49013770    0.00000000
   14         42           14
                                      F and up 
                                                     0      537.9667807       -0.04694920    0.00000000
                                                     1      147.8982938      -20.20800840    0.00000000
                                                     2       45.7358898     -106.21163020    0.00000000
                                                     2       13.2911467      -41.81073680    0.00000000
                                                     2        4.7059961       -4.20541030    0.00000000
                                      S - F
                                                     0      110.2991760        2.80637170    0.00000000
                                                     1       23.2014645       44.51620120    0.00000000
                                                     2        5.3530131       82.77852270    0.00000000
                                      P - F
                                                     0       63.2901397        4.94208760    0.00000000
                                                     1       23.3315302       25.86049760    0.00000000
                                                     2       24.6759423      132.47087420    0.00000000
                                                     2        4.6493040       57.31497940    0.00000000
                                      D - F
                                                     0      104.4839977        3.00545910    0.00000000
                                                     1       66.2307245       26.36378510    0.00000000
                                                     2       39.1283176      183.38491990    0.00000000
                                                     2       13.1164437       98.44530680    0.00000000
                                                     2        3.6280263       22.49013770    0.00000000
   15         16
                                   No pseudopotential on this center.
   16          1
                                   No pseudopotential on this center.
   17         16
                                   No pseudopotential on this center.
   18          1
                                   No pseudopotential on this center.
   19         16
                                   No pseudopotential on this center.
   20          1
                                   No pseudopotential on this center.
   21         16
                                   No pseudopotential on this center.
   22          1
                                   No pseudopotential on this center.
   23          1
                                   No pseudopotential on this center.
 ======================================================================================================
   356 basis functions,   911 primitive gaussians,   378 cartesian basis functions
   134 alpha electrons      134 beta electrons
       nuclear repulsion energy      4367.0390249556 Hartrees.
 NAtoms=   23 NActive=   23 NUniq=   23 SFac= 1.00D+00 NAtFMM=   60 NAOKFM=F Big=F
 Integral buffers will be    131072 words long.
 Raffenetti 2 integral format.
 Two-electron integral symmetry is turned off.
 One-electron integrals computed using PRISM.
   1 Symmetry operations used in ECPInt.
 ECPInt:  NShTT=    7021 NPrTT=   51519 LenC2=    6176 LenP2D=   29162.
 LDataN:  DoStor=T MaxTD1= 5 Len=  102
 NBasis=   356 RedAO= T EigKep=  8.96D-04  NBF=   356
 NBsUse=   356 1.00D-06 EigRej= -1.00D+00 NBFU=   356
 Defaulting to unpruned grid for atomic number  42.
 Defaulting to unpruned grid for atomic number  42.
 Defaulting to unpruned grid for atomic number  42.
 Defaulting to unpruned grid for atomic number  42.
 Defaulting to unpruned grid for atomic number  42.
 ExpMin= 2.47D-02 ExpMax= 2.19D+04 ExpMxC= 3.30D+03 IAcc=3 IRadAn=         5 AccDes= 0.00D+00
 Harris functional with IExCor=  402 and IRadAn=       5 diagonalized for initial guess.
 HarFok:  IExCor=  402 AccDes= 0.00D+00 IRadAn=         5 IDoV= 1 UseB2=F ITyADJ=14
 ICtDFT=  3500011 ScaDFX=  1.000000  1.000000  1.000000  1.000000
 Defaulting to unpruned grid for atomic number  42.
 FoFCou: FMM=F IPFlag=           0 FMFlag=      100000 FMFlg1=           0
         NFxFlg=           0 DoJE=T BraDBF=F KetDBF=T FulRan=T
         wScrn=  0.000000 ICntrl=       500 IOpCl=  0 I1Cent=   200000004 NGrid=           0
         NMat0=    1 NMatS0=      1 NMatT0=    0 NMatD0=    1 NMtDS0=    0 NMtDT0=    0
 Symmetry not used in FoFCou.
 Requested convergence on RMS density matrix=1.00D-08 within 128 cycles.
 Requested convergence on MAX density matrix=1.00D-06.
 Requested convergence on             energy=1.00D-06.
 No special actions if energy rises.
 Defaulting to unpruned grid for atomic number  42.
 Defaulting to unpruned grid for atomic number  42.
 Defaulting to unpruned grid for atomic number  42.
 Defaulting to unpruned grid for atomic number  42.
 Defaulting to unpruned grid for atomic number  42.
 Defaulting to unpruned grid for atomic number  42.
 Defaulting to unpruned grid for atomic number  42.
 Defaulting to unpruned grid for atomic number  42.
 Defaulting to unpruned grid for atomic number  42.
 Defaulting to unpruned grid for atomic number  42.
 Defaulting to unpruned grid for atomic number  42.
 Defaulting to unpruned grid for atomic number  42.
 Defaulting to unpruned grid for atomic number  42.
 Defaulting to unpruned grid for atomic number  42.
 Defaulting to unpruned grid for atomic number  42.
 Defaulting to unpruned grid for atomic number  42.
 Defaulting to unpruned grid for atomic number  42.
 Defaulting to unpruned grid for atomic number  42.
 Defaulting to unpruned grid for atomic number  42.
 Defaulting to unpruned grid for atomic number  42.
 Defaulting to unpruned grid for atomic number  42.
 Defaulting to unpruned grid for atomic number  42.
 Defaulting to unpruned grid for atomic number  42.
 Defaulting to unpruned grid for atomic number  42.
 Defaulting to unpruned grid for atomic number  42.
 Defaulting to unpruned grid for atomic number  42.
 Defaulting to unpruned grid for atomic number  42.
 Defaulting to unpruned grid for atomic number  42.
 Defaulting to unpruned grid for atomic number  42.
 Defaulting to unpruned grid for atomic number  42.
 Defaulting to unpruned grid for atomic number  42.
 Defaulting to unpruned grid for atomic number  42.
 Defaulting to unpruned grid for atomic number  42.
 Defaulting to unpruned grid for atomic number  42.
 Defaulting to unpruned grid for atomic number  42.
 Defaulting to unpruned grid for atomic number  42.
 Defaulting to unpruned grid for atomic number  42.
 Defaulting to unpruned grid for atomic number  42.
 Defaulting to unpruned grid for atomic number  42.
 Defaulting to unpruned grid for atomic number  42.
 Defaulting to unpruned grid for atomic number  42.
 Defaulting to unpruned grid for atomic number  42.
 Defaulting to unpruned grid for atomic number  42.
 Defaulting to unpruned grid for atomic number  42.
 Defaulting to unpruned grid for atomic number  42.
 Defaulting to unpruned grid for atomic number  42.
 Defaulting to unpruned grid for atomic number  42.
 Defaulting to unpruned grid for atomic number  42.
 EnCoef did     1 forward-backward iterations
 EnCoef did   100 forward-backward iterations
 EnCoef did   100 forward-backward iterations
 EnCoef did   100 forward-backward iterations
 EnCoef did   100 forward-backward iterations
 EnCoef did     5 forward-backward iterations
 EnCoef did     9 forward-backward iterations
 EnCoef did     4 forward-backward iterations
 EnCoef did     5 forward-backward iterations
 EnCoef did     2 forward-backward iterations
 Restarting incremental Fock formation.
 SCF Done:  E(RB3LYP) =  -5120.00390894     A.U. after   35 cycles
            NFock= 35  Conv=0.37D-08     -V/T= 2.0484
 DoSCS=F DFT=T ScalE2(SS,OS)=  1.000000  1.000000
 Range of M.O.s used for correlation:     1   356
 NBasis=   356 NAE=   134 NBE=   134 NFC=     0 NFV=     0
 NROrb=    356 NOA=   134 NOB=   134 NVA=   222 NVB=   222

 **** Warning!!: The smallest alpha delta epsilon is  0.36903585D-01

   1 Symmetry operations used in ECPInt.
 ECPInt:  NShTT=    7021 NPrTT=   51519 LenC2=    6176 LenP2D=   29162.
 LDataN:  DoStor=T MaxTD1= 6 Len=  172
 Symmetrizing basis deriv contribution to polar:
 IMax=3 JMax=2 DiffMx= 0.00D+00
 G2DrvN: will do    24 centers at a time, making    1 passes.
 Calling FoFCou, ICntrl=  3107 FMM=F I1Cent=   0 AccDes= 0.00D+00.
 Defaulting to unpruned grid for atomic number  42.
 Defaulting to unpruned grid for atomic number  42.
 Defaulting to unpruned grid for atomic number  42.
 Defaulting to unpruned grid for atomic number  42.
 Defaulting to unpruned grid for atomic number  42.
 Defaulting to unpruned grid for atomic number  42.
 Defaulting to unpruned grid for atomic number  42.
 Defaulting to unpruned grid for atomic number  42.
 Defaulting to unpruned grid for atomic number  42.
 Defaulting to unpruned grid for atomic number  42.
 Defaulting to unpruned grid for atomic number  42.
 Defaulting to unpruned grid for atomic number  42.
 Defaulting to unpruned grid for atomic number  42.
 Defaulting to unpruned grid for atomic number  42.
 Defaulting to unpruned grid for atomic number  42.
 Defaulting to unpruned grid for atomic number  42.
 Defaulting to unpruned grid for atomic number  42.
 Defaulting to unpruned grid for atomic number  42.
 Defaulting to unpruned grid for atomic number  42.
 Defaulting to unpruned grid for atomic number  42.
 Defaulting to unpruned grid for atomic number  42.
 Defaulting to unpruned grid for atomic number  42.
 Defaulting to unpruned grid for atomic number  42.
 Defaulting to unpruned grid for atomic number  42.
 Defaulting to unpruned grid for atomic number  42.
 Defaulting to unpruned grid for atomic number  42.
 Defaulting to unpruned grid for atomic number  42.
 Defaulting to unpruned grid for atomic number  42.
 Defaulting to unpruned grid for atomic number  42.
 Defaulting to unpruned grid for atomic number  42.
 Defaulting to unpruned grid for atomic number  42.
 Defaulting to unpruned grid for atomic number  42.
 Defaulting to unpruned grid for atomic number  42.
 Defaulting to unpruned grid for atomic number  42.
 Defaulting to unpruned grid for atomic number  42.
 Defaulting to unpruned grid for atomic number  42.
 Defaulting to unpruned grid for atomic number  42.
 Defaulting to unpruned grid for atomic number  42.
 Defaulting to unpruned grid for atomic number  42.
 Defaulting to unpruned grid for atomic number  42.
 Defaulting to unpruned grid for atomic number  42.
 Defaulting to unpruned grid for atomic number  42.
 Defaulting to unpruned grid for atomic number  42.
 Defaulting to unpruned grid for atomic number  42.
 Defaulting to unpruned grid for atomic number  42.
 Defaulting to unpruned grid for atomic number  42.
 Defaulting to unpruned grid for atomic number  42.
 Defaulting to unpruned grid for atomic number  42.
 End of G2Drv F.D. properties file   721 does not exist.
 End of G2Drv F.D. properties file   722 does not exist.
 End of G2Drv F.D. properties file   788 does not exist.
          IDoAtm=11111111111111111111111
          Differentiating once with respect to nuclear coordinates.
 Defaulting to unpruned grid for atomic number  42.
 Defaulting to unpruned grid for atomic number  42.
 Defaulting to unpruned grid for atomic number  42.
 Defaulting to unpruned grid for atomic number  42.
 Defaulting to unpruned grid for atomic number  42.
 Keep R1 ints in memory in canonical form, NReq=2074535320.
 Defaulting to unpruned grid for atomic number  42.
 Defaulting to unpruned grid for atomic number  42.
 Defaulting to unpruned grid for atomic number  42.
 Defaulting to unpruned grid for atomic number  42.
 Defaulting to unpruned grid for atomic number  42.
 Defaulting to unpruned grid for atomic number  42.
 Defaulting to unpruned grid for atomic number  42.
 Defaulting to unpruned grid for atomic number  42.
 Defaulting to unpruned grid for atomic number  42.
 Defaulting to unpruned grid for atomic number  42.
 Defaulting to unpruned grid for atomic number  42.
 Defaulting to unpruned grid for atomic number  42.
 Defaulting to unpruned grid for atomic number  42.
 Defaulting to unpruned grid for atomic number  42.
 Defaulting to unpruned grid for atomic number  42.
 Defaulting to unpruned grid for atomic number  42.
 Defaulting to unpruned grid for atomic number  42.
 Defaulting to unpruned grid for atomic number  42.
 Defaulting to unpruned grid for atomic number  42.
 Defaulting to unpruned grid for atomic number  42.
 Defaulting to unpruned grid for atomic number  42.
 Defaulting to unpruned grid for atomic number  42.
 Defaulting to unpruned grid for atomic number  42.
 Defaulting to unpruned grid for atomic number  42.
 Defaulting to unpruned grid for atomic number  42.
 Defaulting to unpruned grid for atomic number  42.
 Defaulting to unpruned grid for atomic number  42.
 Defaulting to unpruned grid for atomic number  42.
 Defaulting to unpruned grid for atomic number  42.
 Defaulting to unpruned grid for atomic number  42.
 Defaulting to unpruned grid for atomic number  42.
 Defaulting to unpruned grid for atomic number  42.
 Defaulting to unpruned grid for atomic number  42.
 Defaulting to unpruned grid for atomic number  42.
 Defaulting to unpruned grid for atomic number  42.
 Defaulting to unpruned grid for atomic number  42.
 Defaulting to unpruned grid for atomic number  42.
 Defaulting to unpruned grid for atomic number  42.
 Defaulting to unpruned grid for atomic number  42.
 Defaulting to unpruned grid for atomic number  42.
 Defaulting to unpruned grid for atomic number  42.
 Defaulting to unpruned grid for atomic number  42.
 Defaulting to unpruned grid for atomic number  42.
 Defaulting to unpruned grid for atomic number  42.
 Defaulting to unpruned grid for atomic number  42.
 Defaulting to unpruned grid for atomic number  42.
 Defaulting to unpruned grid for atomic number  42.
 Defaulting to unpruned grid for atomic number  42.
          There are    72 degrees of freedom in the 1st order CPHF.  IDoFFX=6 NUNeed=     0.
     66 vectors produced by pass  0 Test12= 4.13D-14 1.39D-09 XBig12= 3.79D-01 3.19D-01.
 AX will form    66 AO Fock derivatives at one time.
     66 vectors produced by pass  1 Test12= 4.13D-14 1.39D-09 XBig12= 3.44D-01 1.01D-01.
     66 vectors produced by pass  2 Test12= 4.13D-14 1.39D-09 XBig12= 3.17D-02 2.75D-02.
     66 vectors produced by pass  3 Test12= 4.13D-14 1.39D-09 XBig12= 1.68D-03 5.56D-03.
     66 vectors produced by pass  4 Test12= 4.13D-14 1.39D-09 XBig12= 2.19D-05 5.63D-04.
     66 vectors produced by pass  5 Test12= 4.13D-14 1.39D-09 XBig12= 1.76D-07 4.60D-05.
     66 vectors produced by pass  6 Test12= 4.13D-14 1.39D-09 XBig12= 1.30D-09 4.23D-06.
     54 vectors produced by pass  7 Test12= 4.13D-14 1.39D-09 XBig12= 6.71D-12 2.64D-07.
     19 vectors produced by pass  8 Test12= 4.13D-14 1.39D-09 XBig12= 2.76D-14 1.64D-08.
 InvSVY:  IOpt=1 It=  1 EMax= 6.66D-16
 Solved reduced A of dimension   535 with    72 vectors.
 End of Minotr F.D. properties file   721 does not exist.
 End of Minotr F.D. properties file   722 does not exist.
 End of Minotr F.D. properties file   788 does not exist.

 **********************************************************************

            Population analysis using the SCF Density.

 **********************************************************************

 Alpha  occ. eigenvalues --  -88.92303 -88.92079 -88.91616 -88.91098 -88.91032
 Alpha  occ. eigenvalues --  -88.88608 -88.88603 -88.88583 -88.88312 -88.88207
 Alpha  occ. eigenvalues --  -88.87721 -88.87609  -7.99889  -7.99596  -7.99234
 Alpha  occ. eigenvalues --   -7.98695  -7.98518  -7.96412  -7.96330  -7.96278
 Alpha  occ. eigenvalues --   -7.96011  -7.95898  -7.95408  -7.95283  -5.95875
 Alpha  occ. eigenvalues --   -5.95871  -5.95857  -5.95806  -5.95458  -5.95345
 Alpha  occ. eigenvalues --   -5.95263  -5.95178  -5.95132  -5.94720  -5.94710
 Alpha  occ. eigenvalues --   -5.94664  -5.94585  -5.94544  -5.94178  -5.92595
 Alpha  occ. eigenvalues --   -5.92459  -5.92410  -5.92346  -5.92238  -5.92203
 Alpha  occ. eigenvalues --   -5.92197  -5.92110  -5.92058  -5.92054  -5.91979
 Alpha  occ. eigenvalues --   -5.91899  -5.91875  -5.91855  -5.91789  -5.91685
 Alpha  occ. eigenvalues --   -5.91566  -5.91285  -5.91170  -5.91113  -5.90975
 Alpha  occ. eigenvalues --   -2.56125  -2.55637  -2.55245  -2.55093  -2.54699
 Alpha  occ. eigenvalues --   -1.59484  -1.59115  -1.58979  -1.58656  -1.58140
 Alpha  occ. eigenvalues --   -1.57863  -1.57689  -1.57523  -1.57213  -1.56976
 Alpha  occ. eigenvalues --   -1.56870  -1.56714  -1.56558  -1.56102  -1.55704
 Alpha  occ. eigenvalues --   -0.77345  -0.75894  -0.75057  -0.74651  -0.74013
 Alpha  occ. eigenvalues --   -0.73455  -0.72927  -0.71822  -0.71546  -0.71075
 Alpha  occ. eigenvalues --   -0.70695  -0.69875  -0.55980  -0.45211  -0.44692
 Alpha  occ. eigenvalues --   -0.44370  -0.42947  -0.42481  -0.41969  -0.41593
 Alpha  occ. eigenvalues --   -0.41339  -0.40868  -0.39803  -0.39329  -0.38462
 Alpha  occ. eigenvalues --   -0.37833  -0.37134  -0.36930  -0.36629  -0.35648
 Alpha  occ. eigenvalues --   -0.35434  -0.35164  -0.34861  -0.34148  -0.33997
 Alpha  occ. eigenvalues --   -0.33754  -0.33414  -0.33129  -0.32683  -0.32182
 Alpha  occ. eigenvalues --   -0.31788  -0.31149  -0.30257  -0.30136  -0.29610
 Alpha  occ. eigenvalues --   -0.28861  -0.28581  -0.28254  -0.27844  -0.27131
 Alpha  occ. eigenvalues --   -0.25775  -0.25504  -0.24783  -0.23492
 Alpha virt. eigenvalues --   -0.19801  -0.15881  -0.15119  -0.14189  -0.14133
 Alpha virt. eigenvalues --   -0.13410  -0.12717  -0.12217  -0.11891  -0.11322
 Alpha virt. eigenvalues --   -0.10752  -0.10267  -0.10177  -0.09495  -0.08692
 Alpha virt. eigenvalues --   -0.08255  -0.07535  -0.06504  -0.05414  -0.03522
 Alpha virt. eigenvalues --   -0.01599  -0.01213   0.00118   0.00469   0.01610
 Alpha virt. eigenvalues --    0.02142   0.02883   0.03813   0.04182   0.04511
 Alpha virt. eigenvalues --    0.04627   0.05083   0.05743   0.05946   0.06012
 Alpha virt. eigenvalues --    0.06165   0.06954   0.07134   0.08126   0.08933
 Alpha virt. eigenvalues --    0.09674   0.10250   0.11354   0.13063   0.13283
 Alpha virt. eigenvalues --    0.14426   0.15568   0.16522   0.17163   0.17469
 Alpha virt. eigenvalues --    0.17935   0.18572   0.19192   0.20693   0.21374
 Alpha virt. eigenvalues --    0.23781   0.24317   0.25238   0.25942   0.26905
 Alpha virt. eigenvalues --    0.27850   0.28594   0.29080   0.29705   0.30136
 Alpha virt. eigenvalues --    0.30349   0.31316   0.31622   0.31769   0.32622
 Alpha virt. eigenvalues --    0.32913   0.33419   0.33838   0.34097   0.35010
 Alpha virt. eigenvalues --    0.35597   0.35913   0.36141   0.36334   0.37347
 Alpha virt. eigenvalues --    0.37436   0.37901   0.38113   0.38922   0.39167
 Alpha virt. eigenvalues --    0.39227   0.39763   0.40326   0.40399   0.41110
 Alpha virt. eigenvalues --    0.41855   0.42370   0.42607   0.43574   0.43828
 Alpha virt. eigenvalues --    0.44375   0.44760   0.45661   0.46366   0.46572
 Alpha virt. eigenvalues --    0.47542   0.48026   0.49428   0.50129   0.50593
 Alpha virt. eigenvalues --    0.51024   0.51278   0.51381   0.52809   0.54283
 Alpha virt. eigenvalues --    0.54334   0.54659   0.55599   0.56064   0.57105
 Alpha virt. eigenvalues --    0.57641   0.58981   0.59593   0.61102   0.62339
 Alpha virt. eigenvalues --    0.63051   0.63831   0.66054   0.66828   0.67876
 Alpha virt. eigenvalues --    0.68609   0.69678   0.70316   0.70563   0.70595
 Alpha virt. eigenvalues --    0.71531   0.71771   0.72573   0.73187   0.73629
 Alpha virt. eigenvalues --    0.74171   0.74526   0.74820   0.75415   0.75676
 Alpha virt. eigenvalues --    0.76314   0.76660   0.76903   0.77676   0.78297
 Alpha virt. eigenvalues --    0.79316   0.79819   0.80041   0.80841   0.81906
 Alpha virt. eigenvalues --    0.81981   0.82662   0.83432   0.84053   0.84939
 Alpha virt. eigenvalues --    0.86278   0.87384   0.87867   0.88241   0.89848
 Alpha virt. eigenvalues --    0.90462   0.91307   0.92083   0.92570   0.93509
 Alpha virt. eigenvalues --    0.94163   0.94601   0.95202   0.95408   0.96877
 Alpha virt. eigenvalues --    0.98050   0.98547   0.99271   1.00263   1.00283
 Alpha virt. eigenvalues --    1.01530   1.02047   1.03156   1.03914   1.04706
 Alpha virt. eigenvalues --    1.05880   1.06398   1.06729   1.07941   1.08687
 Alpha virt. eigenvalues --    1.09705   1.10177   1.10609   1.11309   1.13411
 Alpha virt. eigenvalues --    1.14502   1.15778   1.16550   1.17438   1.17667
 Alpha virt. eigenvalues --    1.20382   1.22811   1.25660   1.31682   1.72387
 Alpha virt. eigenvalues --    1.84362   2.05882   2.07001   2.07639   2.08242
 Alpha virt. eigenvalues --    2.08428   2.08940   2.09790   2.09983   2.56396
 Alpha virt. eigenvalues --    2.65674   2.72155   2.72174   2.72767   2.73836
 Alpha virt. eigenvalues --    2.84721   4.66647   7.03763   7.81172   9.31991
 Alpha virt. eigenvalues --   10.47884  13.31461
          Condensed to atoms (all electrons):
               1          2          3          4          5          6
     1  Mo  14.143577   0.200452   0.198581   0.179245   0.222186  -0.453465
     2  S    0.200452  15.666774   0.012196   0.001038  -0.023396  -0.029534
     3  S    0.198581   0.012196  15.724717  -0.005619   0.004544   0.208729
     4  S    0.179245   0.001038  -0.005619  15.404558  -0.008183   0.141320
     5  S    0.222186  -0.023396   0.004544  -0.008183  15.661842  -0.011668
     6  Mo  -0.453465  -0.029534   0.208729   0.141320  -0.011668  14.098556
     7  S   -0.003968  -0.000364  -0.000368  -0.023740   0.000090   0.207937
     8  S   -0.041533  -0.025086   0.011758   0.010519  -0.000273   0.134750
     9  Mo  -0.188794   0.087591   0.007227   0.109524  -0.029197  -0.042706
    10  S   -0.007893  -0.006777  -0.000123  -0.020024   0.000055  -0.014901
    11  H    0.000771  -0.000009  -0.000001   0.003377   0.000001  -0.005703
    12  S   -0.071462  -0.056554  -0.000131  -0.011185   0.010412   0.004405
    13  Mo  -0.270852   0.092783  -0.022493  -0.030651   0.227568   0.026150
    14  Mo   0.048204   0.005109  -0.035953  -0.045310  -0.000707  -0.270756
    15  S    0.006120  -0.053667  -0.000014   0.000015   0.006579  -0.001690
    16  H   -0.001190   0.002417   0.000000  -0.000000   0.000056   0.000034
    17  S   -0.015691  -0.008429   0.000001   0.000232  -0.033036  -0.001157
    18  H    0.003986   0.000246   0.000000  -0.000001   0.001508   0.000213
    19  S   -0.000614  -0.000001  -0.000010   0.000054  -0.000000  -0.004414
    20  H    0.000042  -0.000002  -0.000007  -0.000001   0.000000   0.003157
    21  S   -0.001938  -0.000002  -0.000000  -0.000187   0.000000  -0.000995
    22  H   -0.000217  -0.000000  -0.000000   0.000854  -0.000000   0.003447
    23  H    0.000176   0.000000   0.000000  -0.000001  -0.000000   0.002607
               7          8          9         10         11         12
     1  Mo  -0.003968  -0.041533  -0.188794  -0.007893   0.000771  -0.071462
     2  S   -0.000364  -0.025086   0.087591  -0.006777  -0.000009  -0.056554
     3  S   -0.000368   0.011758   0.007227  -0.000123  -0.000001  -0.000131
     4  S   -0.023740   0.010519   0.109524  -0.020024   0.003377  -0.011185
     5  S    0.000090  -0.000273  -0.029197   0.000055   0.000001   0.010412
     6  Mo   0.207937   0.134750  -0.042706  -0.014901  -0.005703   0.004405
     7  S   15.621245  -0.020909  -0.043201   0.008838  -0.000226   0.000023
     8  S   -0.020909  15.598944   0.123117  -0.017247   0.000020  -0.004451
     9  Mo  -0.043201   0.123117  14.441622   0.159332   0.011425   0.175445
    10  S    0.008838  -0.017247   0.159332  15.641539   0.061706  -0.011228
    11  H   -0.000226   0.000020   0.011425   0.061706   0.747126  -0.000125
    12  S    0.000023  -0.004451   0.175445  -0.011228  -0.000125  15.664550
    13  Mo  -0.000353   0.004859  -0.159570   0.003491   0.000628   0.331693
    14  Mo   0.290402   0.124870  -0.302010   0.290469  -0.073871  -0.001723
    15  S   -0.000000   0.000002  -0.006400  -0.000001  -0.000000   0.011374
    16  H   -0.000000   0.000000  -0.000187   0.000000  -0.000000  -0.000138
    17  S    0.000000  -0.000001  -0.007605   0.000005   0.000000  -0.006706
    18  H   -0.000000  -0.000000  -0.004745  -0.000000   0.000000  -0.000739
    19  S    0.014040  -0.025384  -0.020219   0.007797  -0.000129  -0.000001
    20  H   -0.000224  -0.006532   0.008876  -0.000013   0.000006  -0.000000
    21  S   -0.024053  -0.004845   0.009026  -0.058648  -0.108069   0.000002
    22  H   -0.002976  -0.000113   0.007281  -0.114817   0.314859   0.000037
    23  H    0.000926   0.000096  -0.004730   0.001486   0.002584  -0.000000
              13         14         15         16         17         18
     1  Mo  -0.270852   0.048204   0.006120  -0.001190  -0.015691   0.003986
     2  S    0.092783   0.005109  -0.053667   0.002417  -0.008429   0.000246
     3  S   -0.022493  -0.035953  -0.000014   0.000000   0.000001   0.000000
     4  S   -0.030651  -0.045310   0.000015  -0.000000   0.000232  -0.000001
     5  S    0.227568  -0.000707   0.006579   0.000056  -0.033036   0.001508
     6  Mo   0.026150  -0.270756  -0.001690   0.000034  -0.001157   0.000213
     7  S   -0.000353   0.290402  -0.000000  -0.000000   0.000000  -0.000000
     8  S    0.004859   0.124870   0.000002   0.000000  -0.000001  -0.000000
     9  Mo  -0.159570  -0.302010  -0.006400  -0.000187  -0.007605  -0.004745
    10  S    0.003491   0.290469  -0.000001   0.000000   0.000005  -0.000000
    11  H    0.000628  -0.073871  -0.000000  -0.000000   0.000000   0.000000
    12  S    0.331693  -0.001723   0.011374  -0.000138  -0.006706  -0.000739
    13  Mo  13.505302  -0.032743   0.297062  -0.020116   0.322983  -0.033365
    14  Mo  -0.032743  13.827704   0.000117   0.000001  -0.000229  -0.000035
    15  S    0.297062   0.000117  15.540250   0.248496  -0.028571  -0.009752
    16  H   -0.020116   0.000001   0.248496   0.716521  -0.010260   0.007470
    17  S    0.322983  -0.000229  -0.028571  -0.010260  15.533928   0.252460
    18  H   -0.033365  -0.000035  -0.009752   0.007470   0.252460   0.717555
    19  S   -0.000128   0.335445   0.000000   0.000000   0.000000  -0.000000
    20  H    0.000045  -0.040494  -0.000000   0.000000  -0.000000   0.000000
    21  S   -0.000342   0.230620   0.000000   0.000000  -0.000000  -0.000000
    22  H    0.000077  -0.047547  -0.000000   0.000000   0.000000   0.000000
    23  H   -0.000029  -0.019064  -0.000000   0.000000  -0.000000   0.000000
              19         20         21         22         23
     1  Mo  -0.000614   0.000042  -0.001938  -0.000217   0.000176
     2  S   -0.000001  -0.000002  -0.000002  -0.000000   0.000000
     3  S   -0.000010  -0.000007  -0.000000  -0.000000   0.000000
     4  S    0.000054  -0.000001  -0.000187   0.000854  -0.000001
     5  S   -0.000000   0.000000   0.000000  -0.000000  -0.000000
     6  Mo  -0.004414   0.003157  -0.000995   0.003447   0.002607
     7  S    0.014040  -0.000224  -0.024053  -0.002976   0.000926
     8  S   -0.025384  -0.006532  -0.004845  -0.000113   0.000096
     9  Mo  -0.020219   0.008876   0.009026   0.007281  -0.004730
    10  S    0.007797  -0.000013  -0.058648  -0.114817   0.001486
    11  H   -0.000129   0.000006  -0.108069   0.314859   0.002584
    12  S   -0.000001  -0.000000   0.000002   0.000037  -0.000000
    13  Mo  -0.000128   0.000045  -0.000342   0.000077  -0.000029
    14  Mo   0.335445  -0.040494   0.230620  -0.047547  -0.019064
    15  S    0.000000  -0.000000   0.000000  -0.000000  -0.000000
    16  H    0.000000   0.000000   0.000000   0.000000   0.000000
    17  S    0.000000  -0.000000  -0.000000   0.000000  -0.000000
    18  H   -0.000000   0.000000  -0.000000   0.000000   0.000000
    19  S   15.523123   0.261558  -0.027871   0.000595  -0.000866
    20  H    0.261558   0.693748   0.001123  -0.000001   0.000008
    21  S   -0.027871   0.001123  15.553102   0.136160   0.267285
    22  H    0.000595  -0.000001   0.136160   0.684207  -0.007737
    23  H   -0.000866   0.000008   0.267285  -0.007737   0.648503
 Mulliken charges:
               1
     1  Mo   0.054276
     2  S    0.135216
     3  S   -0.103034
     4  S    0.294167
     5  S   -0.028379
     6  Mo   0.005685
     7  S   -0.023121
     8  S    0.137437
     9  Mo  -0.331103
    10  S    0.076954
    11  H    0.045630
    12  S   -0.033500
    13  Mo  -0.241999
    14  Mo  -0.282498
    15  S   -0.009921
    16  H    0.056897
    17  S    0.002076
    18  H    0.065201
    19  S   -0.062975
    20  H    0.078713
    21  S    0.029631
    22  H    0.025891
    23  H    0.108757
 Sum of Mulliken charges =  -0.00000
 Mulliken charges with hydrogens summed into heavy atoms:
               1
     1  Mo   0.054276
     2  S    0.135216
     3  S   -0.103034
     4  S    0.294167
     5  S   -0.028379
     6  Mo   0.005685
     7  S   -0.023121
     8  S    0.137437
     9  Mo  -0.331103
    10  S    0.122584
    12  S   -0.033500
    13  Mo  -0.241999
    14  Mo  -0.282498
    15  S    0.046976
    17  S    0.067277
    19  S    0.015738
    21  S    0.164279
 APT charges:
               1
     1  Mo  -0.255352
     2  S   -0.458277
     3  S    0.353192
     4  S   -0.177660
     5  S   -0.560696
     6  Mo   0.331517
     7  S   -0.859680
     8  S   -0.246279
     9  Mo   1.648429
    10  S   -0.699769
    11  H    0.632657
    12  S   -1.275521
    13  Mo   0.249747
    14  Mo   0.891267
    15  S   -0.448713
    16  H    0.609624
    17  S   -0.793431
    18  H    0.704234
    19  S   -1.425386
    20  H    1.508118
    21  S   -0.207711
    22  H    0.131628
    23  H    0.348061
 Sum of APT charges =  -0.00000
 APT charges with hydrogens summed into heavy atoms:
               1
     1  Mo  -0.255352
     2  S   -0.458277
     3  S    0.353192
     4  S   -0.177660
     5  S   -0.560696
     6  Mo   0.331517
     7  S   -0.859680
     8  S   -0.246279
     9  Mo   1.648429
    10  S   -0.067113
    12  S   -1.275521
    13  Mo   0.249747
    14  Mo   0.891267
    15  S    0.160911
    17  S   -0.089197
    19  S    0.082731
    21  S    0.271979
 Electronic spatial extent (au):  <R**2>=         112004.8847
 Charge=             -0.0000 electrons
 Dipole moment (field-independent basis, Debye):
    X=             -0.2076    Y=              2.3017    Z=             -1.9544  Tot=              3.0266
 Quadrupole moment (field-independent basis, Debye-Ang):
   XX=           -278.4093   YY=           -265.0437   ZZ=           -312.6005
   XY=              1.6175   XZ=             -5.1572   YZ=             15.5326
 Traceless Quadrupole moment (field-independent basis, Debye-Ang):
   XX=              6.9419   YY=             20.3074   ZZ=            -27.2493
   XY=              1.6175   XZ=             -5.1572   YZ=             15.5326
 Octapole moment (field-independent basis, Debye-Ang**2):
  XXX=             50.4964  YYY=          -2311.5822  ZZZ=          -8700.6421  XYY=            -41.1886
  XXY=           -785.3222  XXZ=          -2689.7834  XZZ=            -88.3603  YZZ=           -684.5493
  YYZ=          -2634.8432  XYZ=              6.0857
 Hexadecapole moment (field-independent basis, Debye-Ang**3):
 XXXX=          -9670.0330 YYYY=         -17137.6032 ZZZZ=        -174401.8087 XXXY=           1498.4303
 XXXZ=          -1562.7591 YYYX=            935.6423 YYYZ=         -21623.0643 ZZZX=          -3354.0327
 ZZZY=         -21617.4680 XXYY=          -4681.5728 XXZZ=         -28810.1839 YYZZ=         -30039.9871
 XXYZ=          -7149.3963 YYXZ=          -1188.3590 ZZXY=            326.5809
 N-N= 4.367039024956D+03 E-N=-2.078530893016D+04  KE= 4.883595875999D+03
  Exact polarizability:       0.000       0.000       0.000       0.000       0.000       0.000
 Approx polarizability:    1744.230    -254.491    1179.778     474.537    -376.002    1866.949
   1 Symmetry operations used in ECPInt.
 ECPInt:  NShTT=    7021 NPrTT=   51519 LenC2=    6176 LenP2D=   29162.
 LDataN:  DoStor=T MaxTD1= 7 Len=  274
 Calling FoFJK, ICntrl=    100127 FMM=F ISym2X=0 I1Cent= 0 IOpClX= 0 NMat=1 NMatS=1 NMatT=0.
 Defaulting to unpruned grid for atomic number  42.
 Defaulting to unpruned grid for atomic number  42.
 Defaulting to unpruned grid for atomic number  42.
 Defaulting to unpruned grid for atomic number  42.
 Defaulting to unpruned grid for atomic number  42.
 Defaulting to unpruned grid for atomic number  42.
 Defaulting to unpruned grid for atomic number  42.
 Defaulting to unpruned grid for atomic number  42.
 Defaulting to unpruned grid for atomic number  42.
 Defaulting to unpruned grid for atomic number  42.
 Defaulting to unpruned grid for atomic number  42.
 Defaulting to unpruned grid for atomic number  42.
 Defaulting to unpruned grid for atomic number  42.
 Defaulting to unpruned grid for atomic number  42.
 Defaulting to unpruned grid for atomic number  42.
 Defaulting to unpruned grid for atomic number  42.
 Defaulting to unpruned grid for atomic number  42.
 Defaulting to unpruned grid for atomic number  42.
 Defaulting to unpruned grid for atomic number  42.
 Defaulting to unpruned grid for atomic number  42.
 Defaulting to unpruned grid for atomic number  42.
 Defaulting to unpruned grid for atomic number  42.
 Defaulting to unpruned grid for atomic number  42.
 Defaulting to unpruned grid for atomic number  42.
 Defaulting to unpruned grid for atomic number  42.
 Defaulting to unpruned grid for atomic number  42.
 Defaulting to unpruned grid for atomic number  42.
 Defaulting to unpruned grid for atomic number  42.
 Defaulting to unpruned grid for atomic number  42.
 Defaulting to unpruned grid for atomic number  42.
 Defaulting to unpruned grid for atomic number  42.
 Defaulting to unpruned grid for atomic number  42.
 Defaulting to unpruned grid for atomic number  42.
 Defaulting to unpruned grid for atomic number  42.
 Defaulting to unpruned grid for atomic number  42.
 Defaulting to unpruned grid for atomic number  42.
 Defaulting to unpruned grid for atomic number  42.
 Defaulting to unpruned grid for atomic number  42.
 Defaulting to unpruned grid for atomic number  42.
 Defaulting to unpruned grid for atomic number  42.
 Defaulting to unpruned grid for atomic number  42.
 Defaulting to unpruned grid for atomic number  42.
 Defaulting to unpruned grid for atomic number  42.
 Defaulting to unpruned grid for atomic number  42.
 Defaulting to unpruned grid for atomic number  42.
 Defaulting to unpruned grid for atomic number  42.
 Defaulting to unpruned grid for atomic number  42.
 Defaulting to unpruned grid for atomic number  42.
 -------------------------------------------------------------------
 Center     Atomic                   Forces (Hartrees/Bohr)
 Number     Number              X              Y              Z
 -------------------------------------------------------------------
      1       42           0.007281748    0.001251216    0.005711612
      2       16           0.002730831   -0.002526325   -0.000774422
      3       16          -0.000711593   -0.000001163    0.000450992
      4       16          -0.000887061    0.003375121    0.000378582
      5       16          -0.003483326   -0.000911185    0.000563502
      6       42          -0.007494163    0.002063349   -0.011033982
      7       16           0.000000368   -0.000765631    0.004048239
      8       16           0.003192916   -0.001920571   -0.000656543
      9       42           0.011170544   -0.002638467   -0.008863403
     10       16          -0.012409981    0.010919464    0.038656602
     11        1           0.126200436   -0.027911170    0.064060339
     12       16          -0.001082496   -0.001136738    0.000784389
     13       42           0.003226922    0.002233138    0.001781875
     14       42          -0.004568206    0.005267524   -0.020208423
     15       16          -0.000285901   -0.000761807   -0.000367228
     16        1          -0.000071016    0.000034913    0.000096648
     17       16          -0.000746518    0.000691180   -0.000579780
     18        1          -0.000058552    0.000006048    0.000218258
     19       16          -0.000135516    0.000119763   -0.001362627
     20        1           0.000550382   -0.000557120    0.001542266
     21       16           0.001300478   -0.001224683    0.015819238
     22        1          -0.124428969    0.013419729   -0.091447036
     23        1           0.000708675    0.000973417    0.001180901
[...]
 .01439680,-0.03041988,0.03862332,-0.04048728,-0.07323870,-0.00497462,-
 0.00439661,-0.02087117,-0.03075360,0.00121810,0.00301225,-0.00420356,0
 .00171153,-0.02131023,-0.00465722,0.00337461,0.00290015,-0.00207064,-0
 .00112384,0.00019499,0.00016512,0.00247114,0.00024204,0.00062619,-0.01
 376465,0.25398097,-0.00096839,-0.00561738,-0.00924229,0.00053673,0.001
 23071,-0.00255225,-0.00152326,0.00124841,-0.00134030,0.00093577,-0.000
 06107,0.00245289,0.00080831,0.00032986,0.00015982,0.00474060,0.0349997
 4,-0.03498805,0.00299524,-0.00229446,-0.00617897,-0.01101959,-0.025073
 83,-0.06134619,-0.00950818,-0.00165732,0.01609691,0.02590643,0.0032900
 1,-0.02807430,-0.00867078,-0.00443874,-0.02852177,-0.00043195,0.000691
 76,-0.00178146,-0.00036570,-0.00261935,0.00154888,-0.02525952,0.006313
 23,0.23208348,-0.00084194,-0.00178903,-0.00173322,-0.01393543,-0.00122
 620,-0.00523972,0.00037103,-0.00005245,0.00037291,0.00016103,0.0003585
 6,0.00027268,-0.00218547,-0.00203027,0.00253492,-0.00057291,-0.0005663
 7,-0.00011062,0.00004637,0.00005575,-0.00017068,0.00008849,0.00052789,
 0.00033758,0.00182773,-0.00075785,-0.00088653,-0.00024661,-0.00003624,
 -0.00011958,0.00006494,0.00000901,0.00011979,-0.00074512,0.00551255,-0
 .00494037,-0.03438591,-0.02555772,-0.02335659,0.00040765,-0.00031598,0
 .00005720,0.24590264,0.00095959,0.00076070,0.00156954,0.00080265,0.001
 21600,0.00425801,-0.00017675,-0.00021731,-0.00004340,-0.00018265,0.000
 41135,0.00022681,-0.00298021,-0.00164432,-0.00025725,-0.00049648,-0.00
 006600,0.00020714,-0.00005365,0.00009780,-0.00028390,0.00008675,0.0003
 7131,0.00012146,0.00228926,-0.00168310,-0.00068660,-0.00005272,0.00011
 709,-0.00002280,-0.00004203,-0.00008186,-0.00001279,-0.00046211,0.0070
 3330,-0.00356382,-0.01131142,-0.05611402,-0.03322244,0.00016558,-0.000
 33890,0.00000714,-0.08667931,0.12952964,0.00101245,-0.00190383,0.00302
 407,-0.00494151,0.00137501,-0.00155324,-0.00044403,-0.00029599,-0.0000
 6375,0.00043850,0.00050917,0.00034915,-0.00598654,-0.00138489,0.003071
 82,-0.00042112,0.00034198,0.00023451,-0.00006082,-0.00003584,-0.000129
 83,-0.00014655,0.00028138,0.00021163,0.00087055,-0.00100721,-0.0010501
 6,-0.00009834,-0.00006676,-0.00014296,0.00004090,0.00001696,0.00007148
 ,-0.00160558,0.00077277,-0.00340351,-0.01339202,-0.03513116,-0.0448298
 5,0.00028119,-0.00010347,-0.00011750,0.04620763,0.03365538,0.05824703,
 0.00035543,-0.00027552,0.00012469,-0.00105222,-0.00026406,-0.00304645,
 -0.00015148,0.00005382,-0.00005151,0.00008314,-0.00008491,-0.00006443,
 0.00054666,0.00046125,-0.00011446,0.00008614,0.00022127,-0.00003510,-0
 .00001833,-0.00006162,0.00005147,-0.00008403,-0.00012698,-0.00012213,-
 0.00048937,0.00029328,0.00082415,-0.00004209,0.00002216,-0.00011347,-0
 .00002180,0.00002795,-0.00004368,0.00052514,-0.00063923,0.00004820,-0.
 01003611,0.00098340,-0.00199223,0.00002178,0.00006544,-0.00005193,-0.1
 9626183,0.09861007,-0.02084020,0.20377720,-0.00059449,-0.00031137,-0.0
 0017275,0.00005890,0.00068390,-0.00083135,-0.00003501,-0.00002021,0.00
 008364,0.00016476,0.00004695,0.00003534,-0.00015929,0.00066292,0.00027
 926,-0.00003264,-0.00009665,-0.00001519,0.00003687,-0.00001518,0.00003
 170,0.00003971,-0.00000414,0.00014932,0.00004096,0.00006738,-0.0003946
 3,-0.00001635,-0.00005300,-0.00001345,0.00002753,0.00000941,0.00004801
 ,0.00028410,0.00020834,-0.00028961,-0.00690506,0.00289403,-0.00076939,
 0.00007828,0.00001956,0.00003748,0.10761053,-0.06926967,0.00857431,-0.
 09986730,0.06801804,-0.00025912,-0.00047919,-0.00168628,0.00018441,-0.
 00136187,0.00177324,0.00020113,0.00008293,0.00023034,-0.00014079,0.000
 02665,0.00007272,0.00027240,-0.00120556,0.00077184,0.00017558,-0.00025
 372,0.00000304,-0.00000727,0.00005668,-0.00004574,0.00010016,0.0001408
 1,-0.00004844,0.00000480,-0.00031412,-0.00018176,0.00008233,0.00004741
 ,0.00023740,-0.00001601,-0.00006297,-0.00002121,0.00004389,0.00005875,
 0.00034242,-0.00991326,0.00498001,-0.00196182,-0.00019330,-0.00010366,
 -0.00004280,-0.01625024,0.00450748,-0.01281401,0.02476985,-0.00479400,
 0.01498805,-0.00115994,0.00363755,0.00066645,-0.00812651,0.00490081,0.
 00109226,0.00069377,-0.00055300,-0.00055051,0.00008650,0.00046954,0.00
 007928,-0.01283672,-0.00369609,0.00327835,-0.00066902,-0.00008071,0.00
 027395,0.00005279,0.00000739,-0.00017610,-0.00057442,-0.00020937,-0.00
 023038,0.00313921,0.00066819,0.00105010,-0.00034766,0.00019696,-0.0001
 8465,-0.00012401,-0.00000410,-0.00022876,-0.00419967,0.00434703,-0.007
 31650,-0.05837896,0.03532879,0.00424136,0.00012125,-0.00020871,-0.0002
 0365,-0.00035512,-0.00013579,-0.00039406,0.00225903,-0.00063847,-0.000
 19288,0.21588360,0.00121038,-0.00122762,-0.00106517,0.00239842,0.00359
 108,0.00268551,0.00027794,-0.00053305,0.00028645,-0.00006491,0.0001432
 9,0.00010746,-0.00434571,0.00452416,-0.00030219,0.00113464,0.00032883,
 0.00016730,-0.00016497,0.00015822,0.00000479,0.00067748,-0.00006458,0.
 00035762,-0.00083572,-0.00054279,-0.00227989,-0.00006159,-0.00011735,-
 0.00044478,0.00041858,0.00015158,0.00065686,0.00483120,-0.00330259,0.0
 0485441,0.02525654,-0.05704153,-0.00392926,0.00038124,-0.00015854,0.00
 051584,0.00283963,-0.00930915,-0.00517388,0.00108912,-0.00310834,-0.00
 096629,0.07965485,0.19712794,-0.00363382,0.00389708,-0.00168794,-0.003
 60881,-0.00051339,0.00076700,0.00018683,-0.00020738,0.00065002,-0.0002
 3724,-0.00034173,-0.00017158,0.00219699,-0.00017325,-0.00104727,-0.000
 81431,-0.00070789,-0.00065472,0.00040009,-0.00001763,-0.00003279,-0.00
 066170,0.00004848,-0.00029662,0.00319444,-0.00024985,0.00365883,0.0000
 8220,-0.00002544,0.00021636,-0.00038676,-0.00007150,-0.00061231,-0.006
 57969,0.00532820,-0.00268706,0.00743889,-0.00494318,-0.00935283,-0.000
 24875,0.00014080,-0.00016934,0.00193515,-0.00703090,-0.00140152,0.0012
 6082,-0.00128191,-0.00091130,-0.00789339,0.00140623,0.02006631,0.00076
 984,0.00064417,-0.00059685,0.00023104,0.00132785,0.00092591,-0.0001856
 4,-0.00004119,0.00012157,-0.00002601,-0.00003541,0.00001490,-0.0003556
 6,0.00157417,-0.00029359,0.00016807,0.00005357,0.00002983,-0.00006837,
 -0.00001089,-0.00003804,0.00016867,-0.00008884,0.00007236,-0.00016399,
 -0.00009289,-0.00012331,-0.00002393,0.00003025,-0.00005955,0.00003212,
 0.00001057,0.00005086,0.00055077,-0.00024625,0.00010502,-0.01569796,-0
 .00586602,-0.00055356,0.00001798,-0.00004685,0.00001222,0.00095328,-0.
 00014642,-0.00030454,0.00049438,-0.00004359,0.00104744,-0.13544897,-0.
 11428044,0.00702605,0.14864249,0.00021673,-0.00092846,0.00038299,0.000
 85403,-0.00102470,-0.00103764,-0.00009621,0.00013107,-0.00003093,0.000
 08523,-0.00003173,0.00005219,-0.00004626,0.00047887,-0.00017071,-0.000
 07607,0.00010580,0.00001337,-0.00001397,-0.00002408,0.00000353,-0.0000
 6239,0.00005503,-0.00006927,-0.00062622,0.00008819,0.00009549,0.000103
 55,-0.00000388,0.00012894,-0.00004785,-0.00003584,-0.00007146,0.000426
 61,-0.00005931,0.00047033,0.00442352,0.00719447,0.00017143,-0.00007260
 ,0.00004416,-0.00004287,0.00198981,-0.00095054,-0.00048828,-0.00051035
 ,0.00028202,-0.00038997,-0.12386496,-0.13049886,0.00468031,0.11724643,
 0.12517782,0.00298405,-0.00184888,0.00170686,0.00078952,0.00199362,-0.
 00006614,-0.00008659,0.00009109,-0.00056058,0.00017275,0.00010648,0.00
 002351,0.00090529,-0.00004524,0.00158323,-0.00004839,0.00069991,0.0001
 4298,-0.00018024,-0.00006232,0.00006473,0.00018630,-0.00019766,0.00013
 177,-0.00140669,0.00039290,-0.00181652,0.00003142,0.00010600,-0.000025
 79,0.00010228,-0.00001982,0.00016495,0.00003754,-0.00040359,0.00041132
 ,-0.00317121,-0.00040250,-0.00142083,0.00010469,-0.00006188,0.00003921
 ,0.00107257,0.00060503,0.00039150,-0.00062278,-0.00064967,-0.00073178,
 0.00659678,0.00342681,-0.00666780,-0.00742234,-0.00372125,0.00672401,0
 .00006768,0.00042201,-0.00026006,-0.00019911,-0.00025976,-0.00011489,0
 .00018223,0.00007740,0.00028788,-0.00007547,-0.00038570,-0.00021987,-0
 .00015494,0.00000823,0.00002160,0.00151597,0.00104304,0.00011436,0.004
 71824,0.00391976,-0.00354565,-0.00134368,0.00661217,-0.00200297,0.0004
 5528,-0.00019943,0.00170909,-0.00364340,0.00028733,-0.00072347,0.00026
 170,0.00016542,-0.00046514,-0.00014113,0.00010015,-0.00018637,0.000035
 05,0.00019560,0.00033121,-0.03776793,0.03123036,-0.00970103,-0.0000648
 0,-0.00011028,-0.00006039,-0.00000645,0.00001312,-0.00000017,-0.000064
 17,0.00007824,-0.00004135,-0.00001110,-0.00000328,0.00001441,0.0498089
 9,0.00051908,-0.00003172,0.00031541,0.00011412,0.00033072,-0.00004424,
 -0.00001258,-0.00048384,0.00058158,-0.00008117,0.00057109,0.00026420,0
 .00018394,-0.00024653,-0.00007599,-0.00253760,0.00025482,-0.00156089,-
 0.00096343,-0.00369780,0.00413097,0.00307499,-0.00265795,0.00090146,0.
 00015982,-0.00038852,-0.00084461,0.00866565,0.00398157,-0.00292989,0.0
 0008876,-0.00013844,0.00085810,0.00026201,-0.00022381,0.00000511,-0.00
 048331,-0.00009513,-0.00025523,0.03681562,-0.07894140,0.00846118,0.000
 14105,0.00017905,0.00010130,0.00000349,-0.00001411,0.00000566,0.000185
 52,-0.00012565,0.00004873,0.00001494,0.00000149,-0.00001618,-0.0301642
 5,0.13692031,0.00073383,0.00073446,0.00005373,-0.00007571,-0.00017975,
 0.00031689,0.00040351,-0.00017232,0.00013741,-0.00008780,0.00001344,-0
 .00020794,0.00005286,-0.00009376,0.00001295,-0.00270260,0.00212365,-0.
 00122127,0.00023115,-0.00080340,0.00027013,-0.00532583,0.00690493,-0.0
 0099325,0.00144140,-0.00040352,0.00110649,-0.00245928,-0.00047584,0.00
 175018,0.00005385,-0.00123404,0.00009294,-0.00014197,0.00000847,-0.000
 27534,-0.00013383,0.00004316,0.00033843,-0.00215819,-0.00399599,-0.029
 40966,-0.00000474,-0.00004398,0.00000214,0.00000791,0.00000781,-0.0000
 0426,0.00000139,0.00004921,-0.00005673,0.00000604,-0.00000299,0.000020
 86,0.04897448,0.08882429,0.24627861,-0.00026637,-0.00025486,0.00003444
 ,-0.00008773,0.00008892,0.00024975,-0.00015649,0.00009777,-0.00056554,
 0.00013923,-0.00012752,-0.00003189,-0.00001657,0.00012569,0.00001509,0
 .00069402,-0.00019046,0.00113724,-0.00062310,-0.00021787,-0.00046760,-
 0.00203841,0.00002137,0.00030588,-0.00028446,0.00047208,-0.00177612,0.
 00092160,0.00014823,0.00064917,0.00022794,0.00002933,0.00060533,0.0000
 8792,0.00000211,0.00032289,0.00012221,-0.00002121,-0.00030440,0.000327
 57,0.00612487,0.00638224,-0.00000873,0.00000878,-0.00000224,0.00000496
 ,-0.00000332,-0.00000222,-0.00000141,-0.00002890,0.00004389,-0.0000010
 3,0.00000030,-0.00001393,-0.01475090,-0.01689374,-0.04256667,0.0161780
 7,0.00004688,0.00015678,0.00001467,-0.00004505,0.00004966,0.00018561,0
 .00006568,0.00003359,0.00004349,-0.00003090,0.00006480,-0.00005987,0.0
 0007364,0.00001141,0.00000140,-0.00049805,0.00037669,-0.00096023,-0.00
 019330,-0.00026469,-0.00037463,0.00018042,0.00024838,0.00174200,0.0007
 6693,-0.00016630,-0.00029120,-0.00041164,0.00026805,0.00083583,-0.0000
 4049,-0.00039015,-0.00019620,-0.00018706,0.00003620,-0.00010412,-0.000
 04489,-0.00009365,0.00017175,0.00203671,-0.00971820,-0.00973737,-0.000
 01258,-0.00001996,-0.00000589,0.00000749,0.00000269,-0.00000306,-0.000
 00636,0.00002570,-0.00002843,0.00000632,-0.00000199,0.00001214,-0.0130
 4359,-0.04970377,-0.08424938,0.01030484,0.05923500,-0.00058609,0.00004
 938,-0.00005213,-0.00012232,0.00000963,0.00001658,-0.00011018,-0.00000
 855,0.00008195,-0.00008644,-0.00009459,-0.00012845,-0.00001503,0.00003
 566,-0.00000531,0.00113661,-0.00045989,0.00088583,0.00035029,0.0006776
 2,-0.00033942,-0.00051431,0.00212307,0.00117700,-0.00079520,0.00021385
 ,-0.00109030,-0.00047295,-0.00049574,-0.00040916,0.00033696,0.00040965
 ,0.00023111,0.00006533,-0.00001588,0.00018436,0.00011224,0.00006692,-0
 .00016718,0.00109539,-0.00101812,0.00235640,0.00000362,0.00000544,0.00
 001762,0.00000285,0.00000117,-0.00000358,0.00000345,-0.00002505,0.0000
 1620,-0.00000100,0.00000204,-0.00000032,-0.03724099,-0.09322743,-0.215
 33254,0.03737467,0.09266375,0.21236556,0.00309909,-0.00015985,0.000385
 24,0.00035366,-0.00012597,-0.00041642,-0.00039829,0.00093626,-0.000182
 90,-0.00021716,0.00096563,-0.00054873,-0.00092250,-0.00005456,0.000281
 44,-0.00175328,-0.00030534,-0.00567507,0.00085153,-0.00028791,0.003358
 86,0.00087023,0.00118724,-0.00408720,0.00442236,-0.00309865,0.00612940
 ,-0.01709924,0.00607507,0.01460050,-0.05522833,-0.00624463,-0.04253344
 ,-0.00087205,0.00025091,-0.00118664,0.00029577,0.00035833,0.00090611,-
 0.02313363,-0.00126447,-0.00927410,-0.00014553,-0.00023036,-0.00012160
 ,-0.00005209,0.00001296,0.00008316,-0.00036936,0.00040145,-0.00047062,
 0.00001484,0.00000145,0.00019129,0.00085428,0.00074671,0.00330515,0.00
 075864,0.00068247,0.00040638,0.08516105,-0.00060483,0.00159402,0.00033
 531,-0.00036192,0.00019426,0.00025713,-0.00007707,-0.00089101,-0.00070
 017,-0.00007295,0.00046090,0.00024625,0.00016204,-0.00007297,0.0001687
 7,-0.00225660,0.00178300,-0.00028947,0.00050974,-0.00301283,0.00652614
 ,0.00121021,0.00296363,0.00517870,0.00051859,0.00000773,-0.00323764,-0
 .00119823,0.00296216,-0.00665460,0.00797298,0.00373231,0.00680575,0.00
 022424,-0.00004264,0.00074964,0.00022112,-0.00000467,-0.00066074,-0.00
 083951,-0.02651555,-0.00421997,-0.00003653,-0.00000402,-0.00003654,-0.
 00000105,-0.00000948,0.00003108,0.00004390,-0.00012013,0.00013410,-0.0
 0001490,0.00001137,-0.00002113,0.00014829,-0.00557385,-0.00623832,0.00
 021955,-0.00004045,-0.00109319,0.01409687,0.26602763,-0.00420986,0.001
 78950,0.00093072,-0.00086678,0.00044130,0.00100510,-0.00066320,-0.0001
 6806,-0.00097033,-0.00009806,-0.00022323,-0.00020951,0.00028525,0.0002
 0523,0.00011115,-0.00144652,-0.00441415,0.00532015,0.00236274,0.006353
 70,-0.00612055,-0.00422284,-0.00013054,-0.00490050,0.00121459,0.000283
 67,-0.01174548,-0.01385521,-0.00261000,-0.02245699,0.02714686,0.001812
 47,0.01994208,-0.00000068,-0.00009828,0.00170750,0.00147914,0.00017270
 ,-0.00147600,-0.01018225,-0.01151126,-0.03213353,-0.00013246,-0.000023
 54,-0.00011955,0.00000716,-0.00004540,0.00007157,0.00007699,-0.0004359
 9,0.00037641,-0.00002389,0.00004694,-0.00009324,0.00225863,-0.00519156
 ,-0.00209742,-0.00135266,0.00067859,-0.00063445,0.01772402,-0.07381166
 ,0.10519195,-0.00688170,0.00283745,0.00047279,-0.00054022,0.00025230,0
 .00105397,0.00077517,-0.00111001,-0.00084151,-0.00003663,-0.00076208,0
 .00035497,0.00115625,-0.00008086,0.00006826,-0.00145897,-0.00201798,0.
 00757016,-0.00052267,0.00138893,-0.00290535,0.00113115,-0.00271251,0.0
 0078558,-0.00190857,0.00120199,-0.00927414,-0.01307019,-0.01068021,-0.
 07497989,0.00591444,0.01094721,0.05033744,0.00072336,-0.00034552,0.002
 65136,0.00165506,-0.00006828,-0.00220333,0.00201367,0.00055795,0.03576
 214,-0.00009379,0.00010117,-0.00004545,0.00005623,-0.00006868,0.000023
 39,0.00035268,-0.00080474,0.00071469,-0.00005831,0.00008061,-0.0001880
 7,0.00000935,0.00039561,-0.00008408,-0.00093382,0.00023633,-0.00067613
 ,0.01723513,-0.00387242,-0.02288062,-0.00313644,0.00050520,-0.00042397
 ,0.00012827,0.00010384,-0.00017371,-0.00035391,-0.00008803,0.00014395,
 0.00002187,-0.00000037,0.00010016,0.00022366,-0.00016471,0.00004703,-0
 .00005955,-0.00008741,0.00002628,-0.00061713,0.00011337,0.00008962,0.0
 0004292,-0.00030063,0.00013353,0.00026292,0.00022586,0.00054880,-0.000
 54096,0.00051450,0.00194791,0.00292992,-0.00651573,-0.01816740,-0.0039
 1626,0.00006182,-0.00002176,-0.00005894,-0.00005985,0.00009975,0.00012
 005,0.00089073,0.00122825,-0.00399746,0.00001658,-0.00000959,0.0000090
 4,-0.00000339,0.00000561,-0.00000845,-0.00001683,0.00006994,-0.0000477
 1,0.00000294,-0.00001308,-0.00000151,-0.00019893,0.00033110,-0.0002272
 2,0.00002101,-0.00006626,0.00005775,-0.00987972,-0.01538732,0.00655526
 ,0.00410773,0.03186863,0.00033739,0.00005468,-0.00084318,0.00000892,0.
 00027208,-0.00006888,0.00025061,-0.00004542,0.00027104,-0.00008149,0.0
 0001973,0.00036004,0.00007449,0.00004596,-0.00009914,0.00021545,-0.000
 47252,-0.00109515,-0.00039985,-0.00013651,0.00032958,-0.00008244,0.001
 14284,0.00029695,-0.00043579,-0.00095187,0.00029538,-0.00109432,-0.004
 43874,-0.01790138,-0.02229799,0.00331244,-0.01090415,-0.00005303,-0.00
 010813,0.00000273,-0.00028657,-0.00015702,0.00013493,0.00089351,-0.003
 31733,-0.01423081,0.00003218,0.00002555,-0.00000470,-0.00000298,0.0000
 0977,-0.00002487,0.00000611,0.00010177,0.00000996,0.00000752,-0.000025
 23,-0.00002478,-0.00024178,0.00002239,0.00005676,0.00014497,0.00004291
 ,0.00006857,0.01096898,0.00166286,-0.01054232,0.01545895,0.00251546,0.
 05287712,-0.00049583,-0.00050548,-0.00036310,-0.00009941,0.00009744,0.
 00012677,-0.00040367,0.00011190,-0.00000146,0.00011499,-0.00032850,0.0
 0001343,0.00004555,0.00014652,-0.00004405,0.00180200,-0.00087690,0.002
 46005,0.00092770,-0.00023725,0.00054752,-0.00109999,-0.00031695,0.0000
 5484,-0.00146005,0.00035936,-0.00158647,-0.00129237,-0.00091269,-0.001
 44360,0.00205769,0.00000184,0.00097361,0.00007181,-0.00002788,0.000194
 83,-0.00014160,0.00000250,-0.00018410,0.00103440,0.00354619,-0.0011587
 6,0.00002003,0.00003631,0.00001377,0.00000573,-0.00000352,-0.00001329,
 0.00006711,-0.00006272,0.00009640,-0.00000253,-0.00000810,-0.00004865,
 0.00031431,-0.00023521,0.00052914,-0.00029316,0.00010622,-0.00026714,-
 0.01372512,-0.01599150,0.00737964,-0.00238117,0.01075202,-0.00342284,0
 .01493358,0.00042842,0.00010516,0.00006029,0.00006126,-0.00001092,-0.0
 0007081,0.00009317,0.00004251,0.00012445,-0.00005603,0.00004536,-0.000
 04079,-0.00003771,-0.00007214,-0.00000016,-0.00042076,-0.00003796,-0.0
 0098475,0.00026976,0.00077752,0.00046257,0.00027326,-0.00006903,-0.001
 39544,0.00034072,-0.00051950,0.00123498,-0.00016279,0.00038406,-0.0003
 2345,-0.00013853,0.00021829,-0.00042525,-0.00006981,0.00002005,-0.0001
 9089,-0.00002560,0.00000313,0.00014741,-0.00136223,0.00216895,0.002634
 47,-0.00000084,-0.00000778,-0.00000356,-0.00000434,0.00000131,0.000005
 38,-0.00002612,0.00002942,-0.00004374,0.00000249,0.00000218,0.00001764
 ,0.00006412,-0.00024764,-0.00058889,0.00007303,-0.00004352,0.00012250,
 -0.00406390,-0.22806209,0.08032430,0.00041602,-0.00237747,0.00042432,0
 .00434642,0.22765010,-0.00005480,-0.00008392,0.00007384,0.00021209,-0.
 00004636,0.00008634,0.00013473,0.00014486,-0.00000233,-0.00002098,0.00
 003325,-0.00003603,0.00001752,0.00001758,-0.00004247,-0.00029153,-0.00
 103840,0.00009415,-0.00079816,-0.00016397,-0.00110300,0.00031977,-0.00
 154388,-0.00191002,0.00005664,0.00008417,0.00049865,0.00028264,-0.0001
 0956,-0.00063827,0.00014867,0.00020522,0.00069043,-0.00007142,-0.00001
 207,-0.00009938,-0.00002253,0.00002980,0.00005531,-0.00195147,0.012893
 02,-0.00460837,-0.00000148,0.00000241,0.00000963,0.00000425,-0.0000004
 5,-0.00001276,0.00000441,0.00000225,-0.00001127,-0.00000305,0.00000305
 ,0.00000286,0.00109248,-0.00037433,-0.00083912,-0.00018227,-0.00038178
 ,0.00076167,0.00615620,0.07486771,-0.04115676,-0.00117515,-0.00303802,
 0.00103631,-0.00385656,-0.08149060,0.04715058\\-0.00001003,-0.00001278
 ,0.00000906,0.00000210,-0.00000083,0.00000295,0.00000210,-0.00000154,-
 0.00000608,0.00000032,-0.00000232,-0.00000077,0.00000206,0.00000137,-0
 .00000142,0.00000993,0.00000921,0.00001147,0.00000063,-0.00000063,-0.0
 0000257,-0.00000569,-0.00000831,0.00000599,-0.00000465,0.00001280,-0.0
 0003062,-0.00001134,-0.00000210,0.00000653,0.00003587,0.00000134,0.000
 01697,-0.00000011,0.00000275,0.00000491,0.00000226,0.00000056,-0.00000
 205,0.00001991,-0.00000460,-0.00001185,0.00000043,-0.00000025,0.000000
 70,-0.00000052,0.00000063,0.00000128,-0.00000023,0.00000013,0.00000127
 ,-0.00000003,0.00000136,-0.00000080,0.00000003,-0.00000354,0.00000089,
 -0.00000209,-0.00000151,0.00000131,0.00000325,0.00000489,-0.00000771,-
 0.00004342,0.00000539,0.00000403,-0.00000080,-0.00000200,-0.00000349\\
 \@
 The archive entry for this job was punched.


 NATURE GIVES TO EVERY TIME AND SEASON SOME BEAUTY OF ITS OWN.

                                                    --DICKENS
 Job cpu time:       0 days  1 hours 44 minutes 41.3 seconds.
 Elapsed time:       0 days  0 hours  2 minutes 12.2 seconds.
 File lengths (MBytes):  RWF=    504 Int=      0 D2E=      0 Chk=     13 Scr=      2
 Normal termination of Gaussian 16 at Fri Nov  4 11:08:34 2022.
