 Entering Gaussian System, Link 0=g16
 Initial command:
 /home/chesagar/softwares/G16_AVX2//g16/l1.exe "/home/chesagar/scratch/Gau-44721.inp" -scrdir="/home/chesagar/scratch/"
 Entering Link 1 = /home/chesagar/softwares/G16_AVX2//g16/l1.exe PID=     44723.
  
 Copyright (c) 1988-2019, Gaussian, Inc.  All Rights Reserved.
  
 This is part of the Gaussian(R) 16 program.  It is based on
 the Gaussian(R) 09 system (copyright 2009, Gaussian, Inc.),
 the Gaussian(R) 03 system (copyright 2003, Gaussian, Inc.),
 the Gaussian(R) 98 system (copyright 1998, Gaussian, Inc.),
 the Gaussian(R) 94 system (copyright 1995, Gaussian, Inc.),
 the Gaussian 92(TM) system (copyright 1992, Gaussian, Inc.),
 the Gaussian 90(TM) system (copyright 1990, Gaussian, Inc.),
 the Gaussian 88(TM) system (copyright 1988, Gaussian, Inc.),
 the Gaussian 86(TM) system (copyright 1986, Carnegie Mellon
 University), and the Gaussian 82(TM) system (copyright 1983,
 Carnegie Mellon University). Gaussian is a federally registered
 trademark of Gaussian, Inc.
  
 This software contains proprietary and confidential information,
 including trade secrets, belonging to Gaussian, Inc.
  
 This software is provided under written license and may be
 used, copied, transmitted, or stored only in accord with that
 written license.
  
 The following legend is applicable only to US Government
 contracts under FAR:
  
                    RESTRICTED RIGHTS LEGEND
  
 Use, reproduction and disclosure by the US Government is
 subject to restrictions as set forth in subparagraphs (a)
 and (c) of the Commercial Computer Software - Restricted
 Rights clause in FAR 52.227-19.
  
 Gaussian, Inc.
 340 Quinnipiac St., Bldg. 40, Wallingford CT 06492
  
  
 ---------------------------------------------------------------
 Warning -- This program may not be used in any manner that
 competes with the business of Gaussian, Inc. or will provide
 assistance to any competitor of Gaussian, Inc.  The licensee
 of this program is prohibited from giving any competitor of
 Gaussian, Inc. access to this program.  By using this program,
 the user acknowledges that Gaussian, Inc. is engaged in the
 business of creating and licensing software in the field of
 computational chemistry and represents and warrants to the
 licensee that it is not a competitor of Gaussian, Inc. and that
 it will not use this program in any manner prohibited above.
 ---------------------------------------------------------------
  

 Cite this work as:
 Gaussian 16, Revision C.01,
 M. J. Frisch, G. W. Trucks, H. B. Schlegel, G. E. Scuseria, 
 M. A. Robb, J. R. Cheeseman, G. Scalmani, V. Barone, 
 G. A. Petersson, H. Nakatsuji, X. Li, M. Caricato, A. V. Marenich, 
 J. Bloino, B. G. Janesko, R. Gomperts, B. Mennucci, H. P. Hratchian, 
 J. V. Ortiz, A. F. Izmaylov, J. L. Sonnenberg, D. Williams-Young, 
 F. Ding, F. Lipparini, F. Egidi, J. Goings, B. Peng, A. Petrone, 
 T. Henderson, D. Ranasinghe, V. G. Zakrzewski, J. Gao, N. Rega, 
 G. Zheng, W. Liang, M. Hada, M. Ehara, K. Toyota, R. Fukuda, 
 J. Hasegawa, M. Ishida, T. Nakajima, Y. Honda, O. Kitao, H. Nakai, 
 T. Vreven, K. Throssell, J. A. Montgomery, Jr., J. E. Peralta, 
 F. Ogliaro, M. J. Bearpark, J. J. Heyd, E. N. Brothers, K. N. Kudin, 
 V. N. Staroverov, T. A. Keith, R. Kobayashi, J. Normand, 
 K. Raghavachari, A. P. Rendell, J. C. Burant, S. S. Iyengar, 
 J. Tomasi, M. Cossi, J. M. Millam, M. Klene, C. Adamo, R. Cammi, 
 J. W. Ochterski, R. L. Martin, K. Morokuma, O. Farkas, 
 J. B. Foresman, and D. J. Fox, Gaussian, Inc., Wallingford CT, 2019.
 
 ******************************************
 Gaussian 16:  ES64L-G16RevC.01  3-Jul-2019
                 8-Dec-2022 
 ******************************************
 %nprocshared=46
 Will use up to   46 processors via shared memory.
 %mem=100GB
 -----------------------------------------------------------
 # opt=(calcfc,ts,noeigen) freq b3lyp/gen nosymm pseudo=read
 -----------------------------------------------------------
 1/5=1,10=4,11=1,18=20,26=3,38=1/1,3;
 2/9=110,12=2,15=1,17=6,18=5,40=1/2;
 3/5=7,11=2,16=1,17=8,25=1,30=1,71=2,74=-5,140=1/1,2,3;
 4//1;
 5/5=2,38=5/2;
 8/6=4,10=90,11=11/1;
 11/6=1,8=1,9=11,15=111,16=1,31=1/1,2,10;
 10/6=1,13=1,31=1/2;
 6/7=2,8=2,9=2,10=2,28=1/1;
 7/10=1,25=1,30=1/1,2,3,16;
 1/5=1,10=4,11=1,18=20,26=3/3(2);
 2/9=110,15=1/2;
 99//99;
 2/9=110,15=1/2;
 3/5=7,6=1,11=2,16=1,17=8,25=1,30=1,71=1,74=-5,82=7/1,2,3;
 4/5=5,16=3,69=1/1;
 5/5=2,38=5/2;
 7/30=1/1,2,3,16;
 1/5=1,11=1,18=20,26=3/3(-5);
 2/9=110,15=1/2;
 6/7=2,8=2,9=2,10=2,19=2,28=1/1;
 99/9=1/99;
 -------------------
 Title Card Required
 -------------------
 Symbolic Z-matrix:
 Charge =  0 Multiplicity = 1
 42                    0.27404   1.50712   11.50895 
 16                    1.13965   3.66052   11.86905 
 16                   -1.93418   1.88319   12.31499 
 16                   -0.17736   1.06747   9.21694 
 16                    1.91721  -0.04604   11.74834 
 42                   -2.00182   2.37899   9.98803 
 16                   -3.35618   1.99124   8.20254 
 16                   -1.50101   4.6745    10.09905 
 42                    0.43982   3.31827   9.57902 
 16                   -0.01388   3.79498   7.13041 
 16                    2.8305    2.70037   9.02285 
 42                    2.96915   2.07889   11.1853 
 42                   -2.15295   4.06358   7.78007 
 16                    4.08506   3.62583   12.60605 
 1                     5.44459   2.55862   12.5013 
 16                    4.9116    0.75558   11.16093 
 1                     5.59622   1.99581   12.21364 
 16                   -2.96987   6.30557   7.72972 
 1                    -2.52494   6.84334   8.88582 
 16                   -3.29618   3.94945   5.7173 
 1                    -3.09663   5.20056   5.2403 
 
 Add virtual bond connecting atoms H15        and S14        Dist= 3.27D+00.
 Add virtual bond connecting atoms H17        and S16        Dist= 3.34D+00.

 GradGradGradGradGradGradGradGradGradGradGradGradGradGradGradGradGradGrad
 Berny optimization.
 Initialization pass.
                           ----------------------------
                           !    Initial Parameters    !
                           ! (Angstroms and Degrees)  !
 --------------------------                            --------------------------
 ! Name  Definition              Value          Derivative Info.                !
 --------------------------------------------------------------------------------
 ! R1    R(1,2)                  2.3486         calculate D2E/DX2 analytically  !
 ! R2    R(1,3)                  2.3806         calculate D2E/DX2 analytically  !
 ! R3    R(1,4)                  2.3771         calculate D2E/DX2 analytically  !
 ! R4    R(1,5)                  2.2737         calculate D2E/DX2 analytically  !
 ! R5    R(1,6)                  2.8728         calculate D2E/DX2 analytically  !
 ! R6    R(1,9)                  2.6519         calculate D2E/DX2 analytically  !
 ! R7    R(1,12)                 2.774          calculate D2E/DX2 analytically  !
 ! R8    R(2,9)                  2.4189         calculate D2E/DX2 analytically  !
 ! R9    R(2,12)                 2.5132         calculate D2E/DX2 analytically  !
 ! R10   R(3,6)                  2.3802         calculate D2E/DX2 analytically  !
 ! R11   R(4,6)                  2.3756         calculate D2E/DX2 analytically  !
 ! R12   R(4,9)                  2.3618         calculate D2E/DX2 analytically  !
 ! R13   R(5,12)                 2.437          calculate D2E/DX2 analytically  !
 ! R14   R(6,7)                  2.2743         calculate D2E/DX2 analytically  !
 ! R15   R(6,8)                  2.3521         calculate D2E/DX2 analytically  !
 ! R16   R(6,9)                  2.6478         calculate D2E/DX2 analytically  !
 ! R17   R(6,13)                 2.7813         calculate D2E/DX2 analytically  !
 ! R18   R(7,13)                 2.4333         calculate D2E/DX2 analytically  !
 ! R19   R(8,9)                  2.4242         calculate D2E/DX2 analytically  !
 ! R20   R(8,13)                 2.4851         calculate D2E/DX2 analytically  !
 ! R21   R(9,10)                 2.5355         calculate D2E/DX2 analytically  !
 ! R22   R(9,11)                 2.5311         calculate D2E/DX2 analytically  !
 ! R23   R(10,13)                2.2516         calculate D2E/DX2 analytically  !
 ! R24   R(11,12)                2.2542         calculate D2E/DX2 analytically  !
 ! R25   R(12,14)                2.3784         calculate D2E/DX2 analytically  !
 ! R26   R(12,16)                2.3505         calculate D2E/DX2 analytically  !
 ! R27   R(13,18)                2.3867         calculate D2E/DX2 analytically  !
 ! R28   R(13,20)                2.3611         calculate D2E/DX2 analytically  !
 ! R29   R(14,15)                1.7315         calculate D2E/DX2 analytically  !
 ! R30   R(15,17)                0.65           calculate D2E/DX2 analytically  !
 ! R31   R(16,17)                1.765          calculate D2E/DX2 analytically  !
 ! R32   R(18,19)                1.3505         calculate D2E/DX2 analytically  !
 ! R33   R(20,21)                1.3537         calculate D2E/DX2 analytically  !
 ! A1    A(2,1,3)               98.344          calculate D2E/DX2 analytically  !
 ! A2    A(2,1,4)              112.7933         calculate D2E/DX2 analytically  !
 ! A3    A(2,1,5)              110.11           calculate D2E/DX2 analytically  !
 ! A4    A(2,1,6)               95.4448         calculate D2E/DX2 analytically  !
 ! A5    A(3,1,4)              100.343          calculate D2E/DX2 analytically  !
 ! A6    A(3,1,5)              137.9548         calculate D2E/DX2 analytically  !
 ! A7    A(3,1,9)              101.3326         calculate D2E/DX2 analytically  !
 ! A8    A(3,1,12)             155.2486         calculate D2E/DX2 analytically  !
 ! A9    A(4,1,5)               96.4545         calculate D2E/DX2 analytically  !
 ! A10   A(4,1,12)              96.3222         calculate D2E/DX2 analytically  !
 ! A11   A(5,1,6)              146.6766         calculate D2E/DX2 analytically  !
 ! A12   A(5,1,9)              119.867          calculate D2E/DX2 analytically  !
 ! A13   A(6,1,12)             130.1919         calculate D2E/DX2 analytically  !
 ! A14   A(9,1,12)              73.3567         calculate D2E/DX2 analytically  !
 ! A15   A(9,2,12)              82.1834         calculate D2E/DX2 analytically  !
 ! A16   A(1,6,7)              146.6835         calculate D2E/DX2 analytically  !
 ! A17   A(1,6,8)               95.8842         calculate D2E/DX2 analytically  !
 ! A18   A(1,6,13)             130.3273         calculate D2E/DX2 analytically  !
 ! A19   A(3,6,4)              100.3995         calculate D2E/DX2 analytically  !
 ! A20   A(3,6,7)              138.497          calculate D2E/DX2 analytically  !
 ! A21   A(3,6,8)               98.6901         calculate D2E/DX2 analytically  !
 ! A22   A(3,6,9)              101.4611         calculate D2E/DX2 analytically  !
 ! A23   A(3,6,13)             154.6647         calculate D2E/DX2 analytically  !
 ! A24   A(4,6,7)               96.2231         calculate D2E/DX2 analytically  !
 ! A25   A(4,6,8)              112.9918         calculate D2E/DX2 analytically  !
 ! A26   A(4,6,13)              96.8024         calculate D2E/DX2 analytically  !
 ! A27   A(7,6,8)              109.2831         calculate D2E/DX2 analytically  !
 ! A28   A(7,6,9)              119.2311         calculate D2E/DX2 analytically  !
 ! A29   A(9,6,13)              73.2995         calculate D2E/DX2 analytically  !
 ! A30   A(9,8,13)              82.6646         calculate D2E/DX2 analytically  !
 ! A31   A(1,9,8)              100.1327         calculate D2E/DX2 analytically  !
 ! A32   A(1,9,10)             145.0895         calculate D2E/DX2 analytically  !
 ! A33   A(1,9,11)              92.9938         calculate D2E/DX2 analytically  !
 ! A34   A(2,9,4)              110.8293         calculate D2E/DX2 analytically  !
 ! A35   A(2,9,6)               99.831          calculate D2E/DX2 analytically  !
 ! A36   A(2,9,8)               87.0986         calculate D2E/DX2 analytically  !
 ! A37   A(2,9,10)             159.9577         calculate D2E/DX2 analytically  !
 ! A38   A(2,9,11)              88.2406         calculate D2E/DX2 analytically  !
 ! A39   A(4,9,8)              110.9065         calculate D2E/DX2 analytically  !
 ! A40   A(4,9,10)              89.1041         calculate D2E/DX2 analytically  !
 ! A41   A(4,9,11)              88.8816         calculate D2E/DX2 analytically  !
 ! A42   A(6,9,10)              92.9157         calculate D2E/DX2 analytically  !
 ! A43   A(6,9,11)             144.9155         calculate D2E/DX2 analytically  !
 ! A44   A(8,9,10)              87.6343         calculate D2E/DX2 analytically  !
 ! A45   A(8,9,11)             160.0368         calculate D2E/DX2 analytically  !
 ! A46   A(10,9,11)             90.1551         calculate D2E/DX2 analytically  !
 ! A47   A(9,10,13)             85.0539         calculate D2E/DX2 analytically  !
 ! A48   A(9,11,12)             85.1015         calculate D2E/DX2 analytically  !
 ! A49   A(1,12,11)             96.2573         calculate D2E/DX2 analytically  !
 ! A50   A(1,12,14)            121.3456         calculate D2E/DX2 analytically  !
 ! A51   A(1,12,16)            133.4765         calculate D2E/DX2 analytically  !
 ! A52   A(2,12,5)              99.8846         calculate D2E/DX2 analytically  !
 ! A53   A(2,12,11)             92.4479         calculate D2E/DX2 analytically  !
 ! A54   A(2,12,14)             76.6854         calculate D2E/DX2 analytically  !
 ! A55   A(2,12,16)            163.478          calculate D2E/DX2 analytically  !
 ! A56   A(5,12,11)            115.8155         calculate D2E/DX2 analytically  !
 ! A57   A(5,12,14)            129.1711         calculate D2E/DX2 analytically  !
 ! A58   A(5,12,16)             82.4273         calculate D2E/DX2 analytically  !
 ! A59   A(11,12,14)           114.9969         calculate D2E/DX2 analytically  !
 ! A60   A(11,12,16)           101.3086         calculate D2E/DX2 analytically  !
 ! A61   A(14,12,16)            89.1195         calculate D2E/DX2 analytically  !
 ! A62   A(6,13,10)             96.0371         calculate D2E/DX2 analytically  !
 ! A63   A(6,13,18)            127.1784         calculate D2E/DX2 analytically  !
 ! A64   A(6,13,20)            133.6751         calculate D2E/DX2 analytically  !
 ! A65   A(7,13,8)             100.1993         calculate D2E/DX2 analytically  !
 ! A66   A(7,13,10)            114.7253         calculate D2E/DX2 analytically  !
 ! A67   A(7,13,18)            129.3783         calculate D2E/DX2 analytically  !
 ! A68   A(7,13,20)             82.5937         calculate D2E/DX2 analytically  !
 ! A69   A(8,13,10)             92.828          calculate D2E/DX2 analytically  !
 ! A70   A(8,13,18)             83.0245         calculate D2E/DX2 analytically  !
 ! A71   A(8,13,20)            162.5771         calculate D2E/DX2 analytically  !
 ! A72   A(10,13,18)           115.5396         calculate D2E/DX2 analytically  !
 ! A73   A(10,13,20)           101.6624         calculate D2E/DX2 analytically  !
 ! A74   A(18,13,20)            82.0246         calculate D2E/DX2 analytically  !
 ! A75   A(12,14,15)            86.065          calculate D2E/DX2 analytically  !
 ! A76   A(14,15,17)           138.0391         calculate D2E/DX2 analytically  !
 ! A77   A(12,16,17)            85.3406         calculate D2E/DX2 analytically  !
 ! A78   A(15,17,16)           141.4359         calculate D2E/DX2 analytically  !
 ! A79   A(13,18,19)           104.0781         calculate D2E/DX2 analytically  !
 ! A80   A(13,20,21)           101.0571         calculate D2E/DX2 analytically  !
 ! D1    D(2,1,6,7)            139.676          calculate D2E/DX2 analytically  !
 ! D2    D(2,1,6,8)              0.1045         calculate D2E/DX2 analytically  !
 ! D3    D(2,1,6,13)            51.253          calculate D2E/DX2 analytically  !
 ! D4    D(5,1,6,7)             -1.0087         calculate D2E/DX2 analytically  !
 ! D5    D(5,1,6,8)           -140.5802         calculate D2E/DX2 analytically  !
 ! D6    D(5,1,6,13)           -89.4317         calculate D2E/DX2 analytically  !
 ! D7    D(12,1,6,7)            87.6525         calculate D2E/DX2 analytically  !
 ! D8    D(12,1,6,8)           -51.919          calculate D2E/DX2 analytically  !
 ! D9    D(12,1,6,13)           -0.7705         calculate D2E/DX2 analytically  !
 ! D10   D(3,1,9,8)             13.5823         calculate D2E/DX2 analytically  !
 ! D11   D(3,1,9,10)           -86.9514         calculate D2E/DX2 analytically  !
 ! D12   D(3,1,9,11)           178.4786         calculate D2E/DX2 analytically  !
 ! D13   D(5,1,9,8)           -175.1262         calculate D2E/DX2 analytically  !
 ! D14   D(5,1,9,10)            84.3401         calculate D2E/DX2 analytically  !
 ! D15   D(5,1,9,11)           -10.2299         calculate D2E/DX2 analytically  !
 ! D16   D(12,1,9,8)          -141.4817         calculate D2E/DX2 analytically  !
 ! D17   D(12,1,9,10)          117.9847         calculate D2E/DX2 analytically  !
 ! D18   D(12,1,9,11)           23.4146         calculate D2E/DX2 analytically  !
 ! D19   D(3,1,12,11)         -107.5092         calculate D2E/DX2 analytically  !
 ! D20   D(3,1,12,14)           16.8609         calculate D2E/DX2 analytically  !
 ! D21   D(3,1,12,16)          140.4162         calculate D2E/DX2 analytically  !
 ! D22   D(4,1,12,11)           24.6939         calculate D2E/DX2 analytically  !
 ! D23   D(4,1,12,14)          149.0639         calculate D2E/DX2 analytically  !
 ! D24   D(4,1,12,16)          -87.3807         calculate D2E/DX2 analytically  !
 ! D25   D(6,1,12,11)          -20.64           calculate D2E/DX2 analytically  !
 ! D26   D(6,1,12,14)          103.7301         calculate D2E/DX2 analytically  !
 ! D27   D(6,1,12,16)         -132.7145         calculate D2E/DX2 analytically  !
 ! D28   D(9,1,12,11)          -26.6315         calculate D2E/DX2 analytically  !
 ! D29   D(9,1,12,14)           97.7386         calculate D2E/DX2 analytically  !
 ! D30   D(9,1,12,16)         -138.706          calculate D2E/DX2 analytically  !
 ! D31   D(12,2,9,4)            64.2088         calculate D2E/DX2 analytically  !
 ! D32   D(12,2,9,6)           121.722          calculate D2E/DX2 analytically  !
 ! D33   D(12,2,9,8)           175.4936         calculate D2E/DX2 analytically  !
 ! D34   D(12,2,9,10)         -109.5485         calculate D2E/DX2 analytically  !
 ! D35   D(12,2,9,11)          -23.9243         calculate D2E/DX2 analytically  !
 ! D36   D(9,2,12,5)           -89.6371         calculate D2E/DX2 analytically  !
 ! D37   D(9,2,12,11)           27.0995         calculate D2E/DX2 analytically  !
 ! D38   D(9,2,12,14)          142.2198         calculate D2E/DX2 analytically  !
 ! D39   D(9,2,12,16)          173.6412         calculate D2E/DX2 analytically  !
 ! D40   D(1,4,6,9)             72.2141         calculate D2E/DX2 analytically  !
 ! D41   D(3,6,9,2)            -13.6898         calculate D2E/DX2 analytically  !
 ! D42   D(3,6,9,10)          -178.1623         calculate D2E/DX2 analytically  !
 ! D43   D(3,6,9,11)            87.4085         calculate D2E/DX2 analytically  !
 ! D44   D(7,6,9,2)            174.7681         calculate D2E/DX2 analytically  !
 ! D45   D(7,6,9,10)            10.2956         calculate D2E/DX2 analytically  !
 ! D46   D(7,6,9,11)           -84.1336         calculate D2E/DX2 analytically  !
 ! D47   D(13,6,9,2)           140.7313         calculate D2E/DX2 analytically  !
 ! D48   D(13,6,9,10)          -23.7412         calculate D2E/DX2 analytically  !
 ! D49   D(13,6,9,11)         -118.1704         calculate D2E/DX2 analytically  !
 ! D50   D(1,6,13,10)           21.7576         calculate D2E/DX2 analytically  !
 ! D51   D(1,6,13,18)         -106.8763         calculate D2E/DX2 analytically  !
 ! D52   D(1,6,13,20)          134.2167         calculate D2E/DX2 analytically  !
 ! D53   D(3,6,13,10)          108.5215         calculate D2E/DX2 analytically  !
 ! D54   D(3,6,13,18)          -20.1124         calculate D2E/DX2 analytically  !
 ! D55   D(3,6,13,20)         -139.0194         calculate D2E/DX2 analytically  !
 ! D56   D(4,6,13,10)          -24.0707         calculate D2E/DX2 analytically  !
 ! D57   D(4,6,13,18)         -152.7046         calculate D2E/DX2 analytically  !
 ! D58   D(4,6,13,20)           88.3884         calculate D2E/DX2 analytically  !
 ! D59   D(9,6,13,10)           27.0845         calculate D2E/DX2 analytically  !
 ! D60   D(9,6,13,18)         -101.5494         calculate D2E/DX2 analytically  !
 ! D61   D(9,6,13,20)          139.5436         calculate D2E/DX2 analytically  !
 ! D62   D(13,8,9,1)          -121.9924         calculate D2E/DX2 analytically  !
 ! D63   D(13,8,9,2)          -175.6099         calculate D2E/DX2 analytically  !
 ! D64   D(13,8,9,4)           -64.4007         calculate D2E/DX2 analytically  !
 ! D65   D(13,8,9,10)           23.7349         calculate D2E/DX2 analytically  !
 ! D66   D(13,8,9,11)          107.6617         calculate D2E/DX2 analytically  !
 ! D67   D(9,8,13,7)            88.7832         calculate D2E/DX2 analytically  !
 ! D68   D(9,8,13,10)          -26.9632         calculate D2E/DX2 analytically  !
 ! D69   D(9,8,13,18)         -142.3569         calculate D2E/DX2 analytically  !
 ! D70   D(9,8,13,20)         -173.4071         calculate D2E/DX2 analytically  !
 ! D71   D(1,9,10,13)           78.1389         calculate D2E/DX2 analytically  !
 ! D72   D(2,9,10,13)         -101.1147         calculate D2E/DX2 analytically  !
 ! D73   D(4,9,10,13)           84.7192         calculate D2E/DX2 analytically  !
 ! D74   D(6,9,10,13)           28.5628         calculate D2E/DX2 analytically  !
 ! D75   D(8,9,10,13)          -26.2482         calculate D2E/DX2 analytically  !
 ! D76   D(11,9,10,13)         173.5983         calculate D2E/DX2 analytically  !
 ! D77   D(1,9,11,12)          -28.05           calculate D2E/DX2 analytically  !
 ! D78   D(2,9,11,12)           26.715          calculate D2E/DX2 analytically  !
 ! D79   D(4,9,11,12)          -84.1655         calculate D2E/DX2 analytically  !
 ! D80   D(6,9,11,12)          -77.9675         calculate D2E/DX2 analytically  !
 ! D81   D(8,9,11,12)          103.2479         calculate D2E/DX2 analytically  !
 ! D82   D(10,9,11,12)        -173.2664         calculate D2E/DX2 analytically  !
 ! D83   D(9,10,13,6)          -27.2016         calculate D2E/DX2 analytically  !
 ! D84   D(9,10,13,7)          -77.0203         calculate D2E/DX2 analytically  !
 ! D85   D(9,10,13,8)           25.567          calculate D2E/DX2 analytically  !
 ! D86   D(9,10,13,18)         109.185          calculate D2E/DX2 analytically  !
 ! D87   D(9,10,13,20)        -164.1624         calculate D2E/DX2 analytically  !
 ! D88   D(9,11,12,1)           26.847          calculate D2E/DX2 analytically  !
 ! D89   D(9,11,12,2)          -25.6505         calculate D2E/DX2 analytically  !
 ! D90   D(9,11,12,5)           76.5627         calculate D2E/DX2 analytically  !
 ! D91   D(9,11,12,14)        -102.0943         calculate D2E/DX2 analytically  !
 ! D92   D(9,11,12,16)         163.5502         calculate D2E/DX2 analytically  !
 ! D93   D(1,12,14,15)         142.7856         calculate D2E/DX2 analytically  !
 ! D94   D(2,12,14,15)         171.4731         calculate D2E/DX2 analytically  !
 ! D95   D(5,12,14,15)          79.4829         calculate D2E/DX2 analytically  !
 ! D96   D(11,12,14,15)       -102.0766         calculate D2E/DX2 analytically  !
 ! D97   D(16,12,14,15)          0.0            calculate D2E/DX2 analytically  !
 ! D98   D(1,12,16,17)        -134.6181         calculate D2E/DX2 analytically  !
 ! D99   D(2,12,16,17)         -30.4891         calculate D2E/DX2 analytically  !
 ! D100  D(5,12,16,17)        -129.7407         calculate D2E/DX2 analytically  !
 ! D101  D(11,12,16,17)        115.3352         calculate D2E/DX2 analytically  !
 ! D102  D(14,12,16,17)          0.0            calculate D2E/DX2 analytically  !
 ! D103  D(6,13,18,19)          38.6801         calculate D2E/DX2 analytically  !
 ! D104  D(7,13,18,19)         105.4002         calculate D2E/DX2 analytically  !
 ! D105  D(8,13,18,19)           7.9095         calculate D2E/DX2 analytically  !
 ! D106  D(10,13,18,19)        -81.8972         calculate D2E/DX2 analytically  !
 ! D107  D(20,13,18,19)        178.9378         calculate D2E/DX2 analytically  !
 ! D108  D(6,13,20,21)         169.9853         calculate D2E/DX2 analytically  !
 ! D109  D(7,13,20,21)         166.3819         calculate D2E/DX2 analytically  !
 ! D110  D(8,13,20,21)          65.8875         calculate D2E/DX2 analytically  !
 ! D111  D(10,13,20,21)        -79.7992         calculate D2E/DX2 analytically  !
 ! D112  D(18,13,20,21)         34.7582         calculate D2E/DX2 analytically  !
 ! D113  D(12,14,15,17)          0.0            calculate D2E/DX2 analytically  !
 ! D114  D(14,15,17,16)          0.0            calculate D2E/DX2 analytically  !
 ! D115  D(12,16,17,15)          0.0            calculate D2E/DX2 analytically  !
 --------------------------------------------------------------------------------
 Trust Radius=3.00D-01 FncErr=1.00D-07 GrdErr=1.00D-06 EigMax=2.50D+02 EigMin=1.00D-04
 Number of steps in this run=    126 maximum allowed number of steps=    126.
 Search for a saddle point of order  1.
 GradGradGradGradGradGradGradGradGradGradGradGradGradGradGradGradGradGrad

                          Input orientation:                          
 ---------------------------------------------------------------------
 Center     Atomic      Atomic             Coordinates (Angstroms)
 Number     Number       Type             X           Y           Z
 ---------------------------------------------------------------------
      1         42           0        0.274043    1.507122   11.508953
      2         16           0        1.139652    3.660522   11.869048
      3         16           0       -1.934176    1.883191   12.314989
      4         16           0       -0.177360    1.067466    9.216936
      5         16           0        1.917213   -0.046042   11.748342
      6         42           0       -2.001815    2.378987    9.988025
      7         16           0       -3.356178    1.991238    8.202542
      8         16           0       -1.501006    4.674496   10.099055
      9         42           0        0.439815    3.318266    9.579021
     10         16           0       -0.013882    3.794979    7.130411
     11         16           0        2.830504    2.700365    9.022854
     12         42           0        2.969146    2.078886   11.185298
     13         42           0       -2.152955    4.063577    7.780069
     14         16           0        4.085060    3.625830   12.606047
     15          1           0        5.444588    2.558623   12.501295
     16         16           0        4.911596    0.755583   11.160931
     17          1           0        5.596222    1.995808   12.213637
     18         16           0       -2.969866    6.305570    7.729720
     19          1           0       -2.524941    6.843344    8.885819
     20         16           0       -3.296178    3.949450    5.717299
     21          1           0       -3.096629    5.200562    5.240300
 ---------------------------------------------------------------------
                    Distance matrix (angstroms):
                    1          2          3          4          5
     1  Mo   0.000000
     2  S    2.348633   0.000000
     3  S    2.380620   3.578573   0.000000
     4  S    2.377058   3.936008   3.653730   0.000000
     5  S    2.273683   3.789167   4.344678   3.469172   0.000000
     6  Mo   2.872786   3.879355   2.380158   2.375563   4.933382
     7  S    4.934088   6.036743   4.352698   3.462258   6.673220
     8  S    3.894980   3.336779   3.590179   3.942187   6.057049
     9  Mo   2.651860   2.418912   3.896254   2.361803   4.266993
    10  S    4.948618   4.878873   5.849984   3.437970   6.309347
    11  S    3.760320   3.446985   5.848769   3.428013   3.975567
    12  Mo   2.774031   2.513192   5.035580   3.846806   2.436986
    13  Mo   5.131311   5.265308   5.036611   3.865779   7.014444
    14  S    4.496264   3.036412   6.273174   6.016604   4.349467
    15  H    5.368886   4.488473   7.411955   6.679586   4.448999
    16  S    4.710926   4.813280   7.033345   5.456543   3.154993
    17  H    5.390824   4.769804   7.531922   6.570866   4.233291
    18  S    6.915971   6.404565   6.454052   6.119447   8.965257
    19  H    6.571941   5.697302   6.058987   6.243520   8.682765
    20  S    7.228741   7.589735   7.046559   5.502755   8.917224
    21  H    8.018662   8.016115   7.899840   6.435701   9.747824
                    6          7          8          9         10
     6  Mo   0.000000
     7  S    2.274335   0.000000
     8  S    2.352126   3.773367   0.000000
     9  Mo   2.647846   4.250325   2.424166   0.000000
    10  S    3.758041   3.946377   3.434812   2.535505   0.000000
    11  S    4.938233   6.280988   4.880305   2.531110   3.587485
    12  Mo   5.121911   6.993872   5.281986   3.242484   5.318415
    13  Mo   2.781323   2.433273   2.485147   3.242557   2.251629
    14  S    6.742307   8.799703   6.211992   4.748188   6.841968
    15  H    7.861152   9.810947   7.647807   5.845041   7.756924
    16  S    7.197666   8.867638   7.589923   5.391346   7.052897
    17  H    7.926559   9.809912   7.875117   5.939581   7.781354
    18  S    4.631967   4.357322   3.229814   4.895899   3.924294
    19  H    4.628067   4.969985   2.687803   4.657948   4.321968
    20  S    4.730838   3.164590   4.790420   5.410077   3.576900
    21  H    5.630346   4.375158   5.141037   5.905419   3.879628
                   11         12         13         14         15
    11  S    0.000000
    12  Mo   2.254245   0.000000
    13  Mo   5.313918   6.463010   0.000000
    14  S    3.907642   2.378409   7.899020   0.000000
    15  H    4.353514   2.844259   9.070696   1.731537   0.000000
    16  S    3.561530   2.350497   8.501819   3.318108   2.309028
    17  H    4.280969   2.822394   9.164166   2.257115   0.650000
    18  S    6.950827   8.067078   2.386716   8.985074  10.373552
    19  H    6.772285   7.627100   3.014658   8.239211   9.743916
    20  S    7.072704   8.523632   2.361145  10.101597  11.151592
    21  H    7.462547   9.048839   2.938313  10.407241  11.517564
                   16         17         18         19         20
    16  S    0.000000
    17  H    1.764953   0.000000
    18  S   10.231960  10.585718   0.000000
    19  H    9.876186  10.026279   1.350453   0.000000
    20  S   10.353814  11.184538   3.115705   4.359925   0.000000
    21  H   10.906117  11.595841   2.726596   4.039229   1.353746
                   21
    21  H    0.000000
 Symmetry turned off by external request.
 Stoichiometry    H4Mo5S12
 Framework group  C1[X(H4Mo5S12)]
 Deg. of freedom    57
 Full point group                 C1      NOp   1
 Rotational constants (GHZ):           0.2157536           0.0675146           0.0617460
 General basis read from cards:  (5D, 7F)
 ======================================================================================================
                                       Pseudopotential Parameters
 ======================================================================================================
  Center     Atomic      Valence      Angular      Power
  Number     Number     Electrons     Momentum     of R      Exponent        Coefficient   SO-Coeffient
 ======================================================================================================
    1         42           14
                                      F and up 
                                                     0      537.9667807       -0.04694920    0.00000000
                                                     1      147.8982938      -20.20800840    0.00000000
                                                     2       45.7358898     -106.21163020    0.00000000
                                                     2       13.2911467      -41.81073680    0.00000000
                                                     2        4.7059961       -4.20541030    0.00000000
                                      S - F
                                                     0      110.2991760        2.80637170    0.00000000
                                                     1       23.2014645       44.51620120    0.00000000
                                                     2        5.3530131       82.77852270    0.00000000
                                      P - F
                                                     0       63.2901397        4.94208760    0.00000000
                                                     1       23.3315302       25.86049760    0.00000000
                                                     2       24.6759423      132.47087420    0.00000000
                                                     2        4.6493040       57.31497940    0.00000000
                                      D - F
                                                     0      104.4839977        3.00545910    0.00000000
                                                     1       66.2307245       26.36378510    0.00000000
                                                     2       39.1283176      183.38491990    0.00000000
                                                     2       13.1164437       98.44530680    0.00000000
                                                     2        3.6280263       22.49013770    0.00000000
    2         16
                                   No pseudopotential on this center.
    3         16
                                   No pseudopotential on this center.
    4         16
                                   No pseudopotential on this center.
    5         16
                                   No pseudopotential on this center.
    6         42           14
                                      F and up 
                                                     0      537.9667807       -0.04694920    0.00000000
                                                     1      147.8982938      -20.20800840    0.00000000
                                                     2       45.7358898     -106.21163020    0.00000000
                                                     2       13.2911467      -41.81073680    0.00000000
                                                     2        4.7059961       -4.20541030    0.00000000
                                      S - F
                                                     0      110.2991760        2.80637170    0.00000000
                                                     1       23.2014645       44.51620120    0.00000000
                                                     2        5.3530131       82.77852270    0.00000000
                                      P - F
                                                     0       63.2901397        4.94208760    0.00000000
                                                     1       23.3315302       25.86049760    0.00000000
                                                     2       24.6759423      132.47087420    0.00000000
                                                     2        4.6493040       57.31497940    0.00000000
                                      D - F
                                                     0      104.4839977        3.00545910    0.00000000
                                                     1       66.2307245       26.36378510    0.00000000
                                                     2       39.1283176      183.38491990    0.00000000
                                                     2       13.1164437       98.44530680    0.00000000
                                                     2        3.6280263       22.49013770    0.00000000
    7         16
                                   No pseudopotential on this center.
    8         16
                                   No pseudopotential on this center.
    9         42           14
                                      F and up 
                                                     0      537.9667807       -0.04694920    0.00000000
                                                     1      147.8982938      -20.20800840    0.00000000
                                                     2       45.7358898     -106.21163020    0.00000000
                                                     2       13.2911467      -41.81073680    0.00000000
                                                     2        4.7059961       -4.20541030    0.00000000
                                      S - F
                                                     0      110.2991760        2.80637170    0.00000000
                                                     1       23.2014645       44.51620120    0.00000000
                                                     2        5.3530131       82.77852270    0.00000000
                                      P - F
                                                     0       63.2901397        4.94208760    0.00000000
                                                     1       23.3315302       25.86049760    0.00000000
                                                     2       24.6759423      132.47087420    0.00000000
                                                     2        4.6493040       57.31497940    0.00000000
                                      D - F
                                                     0      104.4839977        3.00545910    0.00000000
                                                     1       66.2307245       26.36378510    0.00000000
                                                     2       39.1283176      183.38491990    0.00000000
                                                     2       13.1164437       98.44530680    0.00000000
                                                     2        3.6280263       22.49013770    0.00000000
   10         16
                                   No pseudopotential on this center.
   11         16
                                   No pseudopotential on this center.
   12         42           14
                                      F and up 
                                                     0      537.9667807       -0.04694920    0.00000000
                                                     1      147.8982938      -20.20800840    0.00000000
                                                     2       45.7358898     -106.21163020    0.00000000
                                                     2       13.2911467      -41.81073680    0.00000000
                                                     2        4.7059961       -4.20541030    0.00000000
                                      S - F
                                                     0      110.2991760        2.80637170    0.00000000
                                                     1       23.2014645       44.51620120    0.00000000
                                                     2        5.3530131       82.77852270    0.00000000
                                      P - F
                                                     0       63.2901397        4.94208760    0.00000000
                                                     1       23.3315302       25.86049760    0.00000000
                                                     2       24.6759423      132.47087420    0.00000000
                                                     2        4.6493040       57.31497940    0.00000000
                                      D - F
                                                     0      104.4839977        3.00545910    0.00000000
                                                     1       66.2307245       26.36378510    0.00000000
                                                     2       39.1283176      183.38491990    0.00000000
                                                     2       13.1164437       98.44530680    0.00000000
                                                     2        3.6280263       22.49013770    0.00000000
   13         42           14
                                      F and up 
                                                     0      537.9667807       -0.04694920    0.00000000
                                                     1      147.8982938      -20.20800840    0.00000000
                                                     2       45.7358898     -106.21163020    0.00000000
                                                     2       13.2911467      -41.81073680    0.00000000
                                                     2        4.7059961       -4.20541030    0.00000000
                                      S - F
                                                     0      110.2991760        2.80637170    0.00000000
                                                     1       23.2014645       44.51620120    0.00000000
                                                     2        5.3530131       82.77852270    0.00000000
                                      P - F
                                                     0       63.2901397        4.94208760    0.00000000
                                                     1       23.3315302       25.86049760    0.00000000
                                                     2       24.6759423      132.47087420    0.00000000
                                                     2        4.6493040       57.31497940    0.00000000
                                      D - F
                                                     0      104.4839977        3.00545910    0.00000000
                                                     1       66.2307245       26.36378510    0.00000000
                                                     2       39.1283176      183.38491990    0.00000000
                                                     2       13.1164437       98.44530680    0.00000000
                                                     2        3.6280263       22.49013770    0.00000000
   14         16
                                   No pseudopotential on this center.
   15          1
                                   No pseudopotential on this center.
   16         16
                                   No pseudopotential on this center.
   17          1
                                   No pseudopotential on this center.
   18         16
                                   No pseudopotential on this center.
   19          1
                                   No pseudopotential on this center.
   20         16
                                   No pseudopotential on this center.
   21          1
                                   No pseudopotential on this center.
 ======================================================================================================
   346 basis functions,   897 primitive gaussians,   368 cartesian basis functions
   133 alpha electrons      133 beta electrons
       nuclear repulsion energy      4305.2891111896 Hartrees.
 NAtoms=   21 NActive=   21 NUniq=   21 SFac= 1.00D+00 NAtFMM=   60 NAOKFM=F Big=F
 Integral buffers will be    131072 words long.
 Raffenetti 2 integral format.
 Two-electron integral symmetry is turned off.
 One-electron integrals computed using PRISM.
   1 Symmetry operations used in ECPInt.
 ECPInt:  NShTT=    6328 NPrTT=   48368 LenC2=    5565 LenP2D=   27370.
 LDataN:  DoStor=T MaxTD1= 5 Len=  102
 NBasis=   346 RedAO= T EigKep=  8.74D-04  NBF=   346
 NBsUse=   346 1.00D-06 EigRej= -1.00D+00 NBFU=   346
 Defaulting to unpruned grid for atomic number  42.
 Defaulting to unpruned grid for atomic number  42.
 Defaulting to unpruned grid for atomic number  42.
 Defaulting to unpruned grid for atomic number  42.
 Defaulting to unpruned grid for atomic number  42.
 ExpMin= 2.47D-02 ExpMax= 2.19D+04 ExpMxC= 3.30D+03 IAcc=3 IRadAn=         5 AccDes= 0.00D+00
 Harris functional with IExCor=  402 and IRadAn=       5 diagonalized for initial guess.
 HarFok:  IExCor=  402 AccDes= 0.00D+00 IRadAn=         5 IDoV= 1 UseB2=F ITyADJ=14
 ICtDFT=  3500011 ScaDFX=  1.000000  1.000000  1.000000  1.000000
 Defaulting to unpruned grid for atomic number  42.
 FoFCou: FMM=F IPFlag=           0 FMFlag=      100000 FMFlg1=           0
         NFxFlg=           0 DoJE=T BraDBF=F KetDBF=T FulRan=T
         wScrn=  0.000000 ICntrl=       500 IOpCl=  0 I1Cent=   200000004 NGrid=           0
         NMat0=    1 NMatS0=      1 NMatT0=    0 NMatD0=    1 NMtDS0=    0 NMtDT0=    0
 Symmetry not used in FoFCou.
 Requested convergence on RMS density matrix=1.00D-08 within 128 cycles.
 Requested convergence on MAX density matrix=1.00D-06.
 Requested convergence on             energy=1.00D-06.
 No special actions if energy rises.
 Defaulting to unpruned grid for atomic number  42.
 Defaulting to unpruned grid for atomic number  42.
 Defaulting to unpruned grid for atomic number  42.
 Defaulting to unpruned grid for atomic number  42.
 Defaulting to unpruned grid for atomic number  42.
 Defaulting to unpruned grid for atomic number  42.
 Defaulting to unpruned grid for atomic number  42.
 Defaulting to unpruned grid for atomic number  42.
 Defaulting to unpruned grid for atomic number  42.
 Defaulting to unpruned grid for atomic number  42.
 Defaulting to unpruned grid for atomic number  42.
 Defaulting to unpruned grid for atomic number  42.
 Defaulting to unpruned grid for atomic number  42.
 Defaulting to unpruned grid for atomic number  42.
 Defaulting to unpruned grid for atomic number  42.
 Defaulting to unpruned grid for atomic number  42.
 Defaulting to unpruned grid for atomic number  42.
 Defaulting to unpruned grid for atomic number  42.
 Defaulting to unpruned grid for atomic number  42.
 Defaulting to unpruned grid for atomic number  42.
 Defaulting to unpruned grid for atomic number  42.
 Defaulting to unpruned grid for atomic number  42.
 Defaulting to unpruned grid for atomic number  42.
 Defaulting to unpruned grid for atomic number  42.
 Defaulting to unpruned grid for atomic number  42.
 Defaulting to unpruned grid for atomic number  42.
 Defaulting to unpruned grid for atomic number  42.
 Defaulting to unpruned grid for atomic number  42.
 Defaulting to unpruned grid for atomic number  42.
 Defaulting to unpruned grid for atomic number  42.
 Defaulting to unpruned grid for atomic number  42.
 Defaulting to unpruned grid for atomic number  42.
 Defaulting to unpruned grid for atomic number  42.
 Defaulting to unpruned grid for atomic number  42.
 Defaulting to unpruned grid for atomic number  42.
 Defaulting to unpruned grid for atomic number  42.
 Defaulting to unpruned grid for atomic number  42.
 Defaulting to unpruned grid for atomic number  42.
 Defaulting to unpruned grid for atomic number  42.
 Defaulting to unpruned grid for atomic number  42.
 Defaulting to unpruned grid for atomic number  42.
 Defaulting to unpruned grid for atomic number  42.
 Defaulting to unpruned grid for atomic number  42.
 Defaulting to unpruned grid for atomic number  42.
 Defaulting to unpruned grid for atomic number  42.
 Defaulting to unpruned grid for atomic number  42.
 EnCoef did   100 forward-backward iterations
 EnCoef did   100 forward-backward iterations
 EnCoef did   100 forward-backward iterations
 EnCoef did   100 forward-backward iterations
 EnCoef did   100 forward-backward iterations
 EnCoef did     1 forward-backward iterations
 EnCoef did     8 forward-backward iterations
 EnCoef did     4 forward-backward iterations
 EnCoef did     5 forward-backward iterations
 EnCoef did     3 forward-backward iterations
 Restarting incremental Fock formation.
 SCF Done:  E(RB3LYP) =  -5118.80857209     A.U. after   31 cycles
            NFock= 31  Conv=0.64D-08     -V/T= 2.0484
 DoSCS=F DFT=T ScalE2(SS,OS)=  1.000000  1.000000
 Range of M.O.s used for correlation:     1   346
 NBasis=   346 NAE=   133 NBE=   133 NFC=     0 NFV=     0
 NROrb=    346 NOA=   133 NOB=   133 NVA=   213 NVB=   213

 **** Warning!!: The largest alpha MO coefficient is  0.10348893D+02


 **** Warning!!: The smallest alpha delta epsilon is  0.49816328D-01

   1 Symmetry operations used in ECPInt.
 ECPInt:  NShTT=    6328 NPrTT=   48368 LenC2=    5565 LenP2D=   27370.
 LDataN:  DoStor=T MaxTD1= 6 Len=  172
 Symmetrizing basis deriv contribution to polar:
 IMax=3 JMax=2 DiffMx= 0.00D+00
 G2DrvN: will do    22 centers at a time, making    1 passes.
 Calling FoFCou, ICntrl=  3107 FMM=F I1Cent=   0 AccDes= 0.00D+00.
 Defaulting to unpruned grid for atomic number  42.
 Defaulting to unpruned grid for atomic number  42.
 Defaulting to unpruned grid for atomic number  42.
 Defaulting to unpruned grid for atomic number  42.
 Defaulting to unpruned grid for atomic number  42.
 Defaulting to unpruned grid for atomic number  42.
 Defaulting to unpruned grid for atomic number  42.
 Defaulting to unpruned grid for atomic number  42.
 Defaulting to unpruned grid for atomic number  42.
 Defaulting to unpruned grid for atomic number  42.
 Defaulting to unpruned grid for atomic number  42.
 Defaulting to unpruned grid for atomic number  42.
 Defaulting to unpruned grid for atomic number  42.
 Defaulting to unpruned grid for atomic number  42.
 Defaulting to unpruned grid for atomic number  42.
 Defaulting to unpruned grid for atomic number  42.
 Defaulting to unpruned grid for atomic number  42.
 Defaulting to unpruned grid for atomic number  42.
 Defaulting to unpruned grid for atomic number  42.
 Defaulting to unpruned grid for atomic number  42.
 Defaulting to unpruned grid for atomic number  42.
 Defaulting to unpruned grid for atomic number  42.
 Defaulting to unpruned grid for atomic number  42.
 Defaulting to unpruned grid for atomic number  42.
 Defaulting to unpruned grid for atomic number  42.
 Defaulting to unpruned grid for atomic number  42.
 Defaulting to unpruned grid for atomic number  42.
 Defaulting to unpruned grid for atomic number  42.
 Defaulting to unpruned grid for atomic number  42.
 Defaulting to unpruned grid for atomic number  42.
 Defaulting to unpruned grid for atomic number  42.
 Defaulting to unpruned grid for atomic number  42.
 Defaulting to unpruned grid for atomic number  42.
 Defaulting to unpruned grid for atomic number  42.
 Defaulting to unpruned grid for atomic number  42.
 Defaulting to unpruned grid for atomic number  42.
 Defaulting to unpruned grid for atomic number  42.
 Defaulting to unpruned grid for atomic number  42.
 Defaulting to unpruned grid for atomic number  42.
 Defaulting to unpruned grid for atomic number  42.
 Defaulting to unpruned grid for atomic number  42.
 Defaulting to unpruned grid for atomic number  42.
 Defaulting to unpruned grid for atomic number  42.
 Defaulting to unpruned grid for atomic number  42.
 Defaulting to unpruned grid for atomic number  42.
 Defaulting to unpruned grid for atomic number  42.
 End of G2Drv F.D. properties file   721 does not exist.
 End of G2Drv F.D. properties file   722 does not exist.
 End of G2Drv F.D. properties file   788 does not exist.
          IDoAtm=111111111111111111111
          Differentiating once with respect to nuclear coordinates.
 Defaulting to unpruned grid for atomic number  42.
 Defaulting to unpruned grid for atomic number  42.
 Defaulting to unpruned grid for atomic number  42.
 Defaulting to unpruned grid for atomic number  42.
 Defaulting to unpruned grid for atomic number  42.
 Keep R1 ints in memory in canonical form, NReq=1855003601.
 Defaulting to unpruned grid for atomic number  42.
 Defaulting to unpruned grid for atomic number  42.
 Defaulting to unpruned grid for atomic number  42.
 Defaulting to unpruned grid for atomic number  42.
 Defaulting to unpruned grid for atomic number  42.
 Defaulting to unpruned grid for atomic number  42.
 Defaulting to unpruned grid for atomic number  42.
 Defaulting to unpruned grid for atomic number  42.
 Defaulting to unpruned grid for atomic number  42.
 Defaulting to unpruned grid for atomic number  42.
 Defaulting to unpruned grid for atomic number  42.
 Defaulting to unpruned grid for atomic number  42.
 Defaulting to unpruned grid for atomic number  42.
 Defaulting to unpruned grid for atomic number  42.
 Defaulting to unpruned grid for atomic number  42.
 Defaulting to unpruned grid for atomic number  42.
 Defaulting to unpruned grid for atomic number  42.
 Defaulting to unpruned grid for atomic number  42.
 Defaulting to unpruned grid for atomic number  42.
 Defaulting to unpruned grid for atomic number  42.
 Defaulting to unpruned grid for atomic number  42.
 Defaulting to unpruned grid for atomic number  42.
 Defaulting to unpruned grid for atomic number  42.
 Defaulting to unpruned grid for atomic number  42.
 Defaulting to unpruned grid for atomic number  42.
 Defaulting to unpruned grid for atomic number  42.
 Defaulting to unpruned grid for atomic number  42.
 Defaulting to unpruned grid for atomic number  42.
 Defaulting to unpruned grid for atomic number  42.
 Defaulting to unpruned grid for atomic number  42.
 Defaulting to unpruned grid for atomic number  42.
 Defaulting to unpruned grid for atomic number  42.
 Defaulting to unpruned grid for atomic number  42.
 Defaulting to unpruned grid for atomic number  42.
 Defaulting to unpruned grid for atomic number  42.
 Defaulting to unpruned grid for atomic number  42.
 Defaulting to unpruned grid for atomic number  42.
 Defaulting to unpruned grid for atomic number  42.
 Defaulting to unpruned grid for atomic number  42.
 Defaulting to unpruned grid for atomic number  42.
 Defaulting to unpruned grid for atomic number  42.
 Defaulting to unpruned grid for atomic number  42.
 Defaulting to unpruned grid for atomic number  42.
 Defaulting to unpruned grid for atomic number  42.
 Defaulting to unpruned grid for atomic number  42.
 Defaulting to unpruned grid for atomic number  42.
          There are    66 degrees of freedom in the 1st order CPHF.  IDoFFX=6 NUNeed=     0.
     60 vectors produced by pass  0 Test12= 4.29D-14 1.52D-09 XBig12= 3.70D-01 2.88D-01.
 AX will form    60 AO Fock derivatives at one time.
     60 vectors produced by pass  1 Test12= 4.29D-14 1.52D-09 XBig12= 4.59D-01 9.59D-02.
     60 vectors produced by pass  2 Test12= 4.29D-14 1.52D-09 XBig12= 3.15D-02 2.39D-02.
     60 vectors produced by pass  3 Test12= 4.29D-14 1.52D-09 XBig12= 1.56D-03 6.01D-03.
     60 vectors produced by pass  4 Test12= 4.29D-14 1.52D-09 XBig12= 3.36D-05 6.48D-04.
     60 vectors produced by pass  5 Test12= 4.29D-14 1.52D-09 XBig12= 3.51D-07 6.86D-05.
     60 vectors produced by pass  6 Test12= 4.29D-14 1.52D-09 XBig12= 2.76D-09 4.40D-06.
     52 vectors produced by pass  7 Test12= 4.29D-14 1.52D-09 XBig12= 1.42D-11 3.70D-07.
     21 vectors produced by pass  8 Test12= 4.29D-14 1.52D-09 XBig12= 6.09D-14 2.12D-08.
 InvSVY:  IOpt=1 It=  1 EMax= 9.44D-16
 Solved reduced A of dimension   493 with    66 vectors.
 End of Minotr F.D. properties file   721 does not exist.
 End of Minotr F.D. properties file   722 does not exist.
 End of Minotr F.D. properties file   788 does not exist.

 **********************************************************************

            Population analysis using the SCF Density.

 **********************************************************************

 Alpha  occ. eigenvalues --  -88.93751 -88.93470 -88.92387 -88.89848 -88.89765
 Alpha  occ. eigenvalues --  -88.89680 -88.89641 -88.89547 -88.89336 -88.89333
 Alpha  occ. eigenvalues --  -88.88599 -88.88297  -8.01373  -8.01032  -8.00049
 Alpha  occ. eigenvalues --   -7.97604  -7.97500  -7.97452  -7.97089  -7.97068
 Alpha  occ. eigenvalues --   -7.97036  -7.96960  -7.96300  -7.95978  -5.97349
 Alpha  occ. eigenvalues --   -5.97346  -5.97278  -5.97105  -5.96964  -5.96898
 Alpha  occ. eigenvalues --   -5.96051  -5.96009  -5.95946  -5.93650  -5.93574
 Alpha  occ. eigenvalues --   -5.93572  -5.93502  -5.93456  -5.93441  -5.93441
 Alpha  occ. eigenvalues --   -5.93431  -5.93314  -5.93285  -5.93252  -5.93110
 Alpha  occ. eigenvalues --   -5.93036  -5.92999  -5.92981  -5.92953  -5.92947
 Alpha  occ. eigenvalues --   -5.92908  -5.92830  -5.92762  -5.92727  -5.92545
 Alpha  occ. eigenvalues --   -5.92260  -5.92191  -5.92020  -5.91880  -5.91656
 Alpha  occ. eigenvalues --   -2.57863  -2.57395  -2.56971  -2.56937  -2.56731
 Alpha  occ. eigenvalues --   -1.61502  -1.60960  -1.60635  -1.60244  -1.60067
 Alpha  occ. eigenvalues --   -1.59858  -1.59417  -1.59251  -1.59002  -1.58962
 Alpha  occ. eigenvalues --   -1.58462  -1.58280  -1.58272  -1.57940  -1.57722
 Alpha  occ. eigenvalues --   -0.77687  -0.76532  -0.76050  -0.74022  -0.73646
 Alpha  occ. eigenvalues --   -0.72740  -0.72583  -0.72236  -0.72009  -0.71680
 Alpha  occ. eigenvalues --   -0.70783  -0.69583  -0.53591  -0.45743  -0.44654
 Alpha  occ. eigenvalues --   -0.44063  -0.43350  -0.43144  -0.42590  -0.42355
 Alpha  occ. eigenvalues --   -0.41479  -0.40803  -0.39653  -0.39043  -0.38885
 Alpha  occ. eigenvalues --   -0.38536  -0.38220  -0.37031  -0.36687  -0.36382
 Alpha  occ. eigenvalues --   -0.36206  -0.35990  -0.35160  -0.35022  -0.34734
 Alpha  occ. eigenvalues --   -0.34364  -0.33853  -0.33308  -0.33048  -0.31925
 Alpha  occ. eigenvalues --   -0.31582  -0.31281  -0.30800  -0.30129  -0.29654
 Alpha  occ. eigenvalues --   -0.29255  -0.28810  -0.28170  -0.27911  -0.27474
 Alpha  occ. eigenvalues --   -0.26741  -0.26040  -0.24357
 Alpha virt. eigenvalues --   -0.19376  -0.16959  -0.16545  -0.15873  -0.15510
 Alpha virt. eigenvalues --   -0.14895  -0.14651  -0.13655  -0.13259  -0.12764
 Alpha virt. eigenvalues --   -0.12723  -0.11706  -0.11560  -0.11381  -0.10169
 Alpha virt. eigenvalues --   -0.10057  -0.08866  -0.08862  -0.07606  -0.05669
 Alpha virt. eigenvalues --   -0.04465  -0.01309  -0.00502   0.00454   0.01373
 Alpha virt. eigenvalues --    0.01866   0.02368   0.03096   0.03461   0.04113
 Alpha virt. eigenvalues --    0.04574   0.04993   0.05233   0.05517   0.05686
 Alpha virt. eigenvalues --    0.06244   0.06644   0.07202   0.08265   0.09492
 Alpha virt. eigenvalues --    0.10034   0.10411   0.12035   0.12662   0.12970
 Alpha virt. eigenvalues --    0.15222   0.15877   0.16680   0.16873   0.17770
 Alpha virt. eigenvalues --    0.18544   0.19005   0.19840   0.21588   0.23826
 Alpha virt. eigenvalues --    0.24156   0.24394   0.24679   0.26108   0.26629
 Alpha virt. eigenvalues --    0.27305   0.28616   0.28931   0.29848   0.30461
 Alpha virt. eigenvalues --    0.30912   0.31029   0.31375   0.31779   0.31955
 Alpha virt. eigenvalues --    0.32356   0.33110   0.33488   0.34695   0.35197
 Alpha virt. eigenvalues --    0.35279   0.35659   0.35834   0.36540   0.36957
 Alpha virt. eigenvalues --    0.37903   0.38237   0.38597   0.38787   0.38882
 Alpha virt. eigenvalues --    0.38959   0.39299   0.39638   0.39953   0.40212
 Alpha virt. eigenvalues --    0.41816   0.42696   0.43201   0.43390   0.43550
 Alpha virt. eigenvalues --    0.44094   0.44758   0.45253   0.45859   0.46535
 Alpha virt. eigenvalues --    0.47402   0.48254   0.49012   0.49817   0.50170
 Alpha virt. eigenvalues --    0.51301   0.51753   0.52035   0.52526   0.53523
 Alpha virt. eigenvalues --    0.53839   0.55014   0.56169   0.56711   0.57365
 Alpha virt. eigenvalues --    0.57777   0.58236   0.59324   0.59930   0.62460
 Alpha virt. eigenvalues --    0.64093   0.64568   0.64953   0.66047   0.67013
 Alpha virt. eigenvalues --    0.67938   0.68994   0.70108   0.71032   0.71333
 Alpha virt. eigenvalues --    0.71683   0.72457   0.72643   0.73677   0.74212
 Alpha virt. eigenvalues --    0.74468   0.74685   0.75044   0.75401   0.76372
 Alpha virt. eigenvalues --    0.76783   0.77386   0.77668   0.78244   0.78990
 Alpha virt. eigenvalues --    0.79611   0.79963   0.80997   0.81138   0.82254
 Alpha virt. eigenvalues --    0.83220   0.84334   0.84663   0.85658   0.86299
 Alpha virt. eigenvalues --    0.86972   0.87939   0.89385   0.90133   0.90819
 Alpha virt. eigenvalues --    0.91146   0.92002   0.92730   0.92994   0.93652
 Alpha virt. eigenvalues --    0.94095   0.95552   0.96016   0.97312   0.98185
 Alpha virt. eigenvalues --    0.98815   0.99081   0.99337   1.00640   1.01669
 Alpha virt. eigenvalues --    1.01932   1.03035   1.03324   1.04706   1.05795
 Alpha virt. eigenvalues --    1.07520   1.07629   1.08026   1.08699   1.10160
 Alpha virt. eigenvalues --    1.10775   1.12093   1.12727   1.13017   1.14249
 Alpha virt. eigenvalues --    1.15212   1.17766   1.18716   1.20876   1.23476
 Alpha virt. eigenvalues --    1.30849   1.64075   1.84858   2.07296   2.07876
 Alpha virt. eigenvalues --    2.09319   2.11707   2.58280   2.66192   2.72050
 Alpha virt. eigenvalues --    2.72995   2.85265   4.67217   7.05968   7.49453
 Alpha virt. eigenvalues --    9.77673  10.22169  14.15147
          Condensed to atoms (all electrons):
               1          2          3          4          5          6
     1  Mo  14.184887   0.179961   0.229236   0.150508   0.240314  -0.463956
     2  S    0.179961  15.574544   0.013227   0.010385  -0.021669  -0.025435
     3  S    0.229236   0.013227  15.680124  -0.017862   0.002779   0.217618
     4  S    0.150508   0.010385  -0.017862  15.379181  -0.007926   0.151065
     5  S    0.240314  -0.021669   0.002779  -0.007926  15.653687  -0.009099
     6  Mo  -0.463956  -0.025435   0.217618   0.151065  -0.009099  14.163374
     7  S   -0.008649  -0.000168   0.002586  -0.007866   0.000082   0.236123
     8  S   -0.021509  -0.025824   0.014164   0.009111  -0.000182   0.159362
     9  Mo  -0.121346   0.129680  -0.050903   0.100466  -0.026654  -0.122160
    10  S   -0.006443  -0.004253  -0.000337  -0.013371   0.000025  -0.079560
    11  S   -0.077938  -0.050383  -0.000310  -0.013587   0.007186  -0.006256
    12  Mo  -0.262666   0.062594  -0.021874  -0.031872   0.194486   0.018928
    13  Mo   0.014082   0.003066  -0.021325  -0.027657  -0.000545  -0.232348
    14  S   -0.002572  -0.027923   0.000011   0.000039   0.005970  -0.001024
    15  H    0.002344   0.000675   0.000000   0.000000   0.000123  -0.000012
    16  S   -0.021307  -0.007947  -0.000001   0.000096  -0.034352  -0.001481
    17  H    0.002358   0.000863   0.000000  -0.000001   0.001290   0.000011
    18  S   -0.000561   0.000002   0.000017   0.000054  -0.000000   0.007101
    19  H    0.000237  -0.000006  -0.000008  -0.000002   0.000000   0.002436
    20  S   -0.001252  -0.000002  -0.000005   0.000113   0.000000  -0.023505
    21  H    0.000229   0.000000   0.000000  -0.000001  -0.000000   0.004478
               7          8          9         10         11         12
     1  Mo  -0.008649  -0.021509  -0.121346  -0.006443  -0.077938  -0.262666
     2  S   -0.000168  -0.025824   0.129680  -0.004253  -0.050383   0.062594
     3  S    0.002586   0.014164  -0.050903  -0.000337  -0.000310  -0.021874
     4  S   -0.007866   0.009111   0.100466  -0.013371  -0.013587  -0.031872
     5  S    0.000082  -0.000182  -0.026654   0.000025   0.007186   0.194486
     6  Mo   0.236123   0.159362  -0.122160  -0.079560  -0.006256   0.018928
     7  S   15.654626  -0.019639  -0.034371   0.008839   0.000036  -0.000635
     8  S   -0.019639  15.667893   0.111663  -0.056293  -0.004309   0.003977
     9  Mo  -0.034371   0.111663  14.414219   0.188245   0.188096  -0.207568
    10  S    0.008839  -0.056293   0.188245  15.611159  -0.006578   0.003297
    11  S    0.000036  -0.004309   0.188096  -0.006578  15.609845   0.315513
    12  Mo  -0.000635   0.003977  -0.207568   0.003297   0.315513  13.647231
    13  Mo   0.219817   0.078134  -0.202423   0.328022   0.002796  -0.023146
    14  S   -0.000000  -0.000012  -0.013388   0.000001   0.012001   0.340463
    15  H   -0.000000   0.000000   0.000493   0.000000  -0.000274  -0.047441
    16  S    0.000000  -0.000002  -0.013376   0.000006  -0.002066   0.357911
    17  H   -0.000000  -0.000000   0.000676  -0.000000  -0.000137  -0.042131
    18  S    0.005935  -0.039759  -0.008844   0.012285   0.000000  -0.000035
    19  H   -0.000108  -0.001799   0.005243  -0.000165  -0.000000  -0.000004
    20  S   -0.034473  -0.008340  -0.009042  -0.003816   0.000005  -0.000369
    21  H    0.001431   0.000303  -0.004004  -0.000859  -0.000000  -0.000020
              13         14         15         16         17         18
     1  Mo   0.014082  -0.002572   0.002344  -0.021307   0.002358  -0.000561
     2  S    0.003066  -0.027923   0.000675  -0.007947   0.000863   0.000002
     3  S   -0.021325   0.000011   0.000000  -0.000001   0.000000   0.000017
     4  S   -0.027657   0.000039   0.000000   0.000096  -0.000001   0.000054
     5  S   -0.000545   0.005970   0.000123  -0.034352   0.001290  -0.000000
     6  Mo  -0.232348  -0.001024  -0.000012  -0.001481   0.000011   0.007101
     7  S    0.219817  -0.000000  -0.000000   0.000000  -0.000000   0.005935
     8  S    0.078134  -0.000012   0.000000  -0.000002  -0.000000  -0.039759
     9  Mo  -0.202423  -0.013388   0.000493  -0.013376   0.000676  -0.008844
    10  S    0.328022   0.000001   0.000000   0.000006  -0.000000   0.012285
    11  S    0.002796   0.012001  -0.000274  -0.002066  -0.000137   0.000000
    12  Mo  -0.023146   0.340463  -0.047441   0.357911  -0.042131  -0.000035
    13  Mo  13.565010  -0.000125   0.000010  -0.000340   0.000001   0.308630
    14  S   -0.000125  15.686525   0.165372  -0.074574  -0.114582   0.000000
    15  H    0.000010   0.165372   0.711799  -0.115261   0.255685   0.000000
    16  S   -0.000340  -0.074574  -0.115261  15.695794   0.169199   0.000000
    17  H    0.000001  -0.114582   0.255685   0.169199   0.698794  -0.000000
    18  S    0.308630   0.000000   0.000000   0.000000  -0.000000  15.525045
    19  H   -0.040527   0.000000   0.000000  -0.000000   0.000000   0.266131
    20  S    0.322794   0.000000   0.000000   0.000000  -0.000000  -0.045715
    21  H   -0.038900  -0.000000   0.000000  -0.000000  -0.000000  -0.000423
              19         20         21
     1  Mo   0.000237  -0.001252   0.000229
     2  S   -0.000006  -0.000002   0.000000
     3  S   -0.000008  -0.000005   0.000000
     4  S   -0.000002   0.000113  -0.000001
     5  S    0.000000   0.000000  -0.000000
     6  Mo   0.002436  -0.023505   0.004478
     7  S   -0.000108  -0.034473   0.001431
     8  S   -0.001799  -0.008340   0.000303
     9  Mo   0.005243  -0.009042  -0.004004
    10  S   -0.000165  -0.003816  -0.000859
    11  S   -0.000000   0.000005  -0.000000
    12  Mo  -0.000004  -0.000369  -0.000020
    13  Mo  -0.040527   0.322794  -0.038900
    14  S    0.000000   0.000000  -0.000000
    15  H    0.000000   0.000000   0.000000
    16  S   -0.000000   0.000000  -0.000000
    17  H    0.000000  -0.000000  -0.000000
    18  S    0.266131  -0.045715  -0.000423
    19  H    0.693512   0.002042   0.000111
    20  S    0.002042  15.507283   0.266924
    21  H    0.000111   0.266924   0.679847
 Mulliken charges:
               1
     1  Mo  -0.015957
     2  S    0.188613
     3  S   -0.047140
     4  S    0.319126
     5  S   -0.005514
     6  Mo   0.004338
     7  S   -0.023567
     8  S    0.133059
     9  Mo  -0.324706
    10  S    0.019794
    11  S    0.026360
    12  Mo  -0.306642
    13  Mo  -0.255026
    14  S    0.023818
    15  H    0.026487
    16  S    0.047702
    17  H    0.027973
    18  S   -0.029864
    19  H    0.072907
    20  S    0.027356
    21  H    0.090883
 Sum of Mulliken charges =  -0.00000
 Mulliken charges with hydrogens summed into heavy atoms:
               1
     1  Mo  -0.015957
     2  S    0.188613
     3  S   -0.047140
     4  S    0.319126
     5  S   -0.005514
     6  Mo   0.004338
     7  S   -0.023567
     8  S    0.133059
     9  Mo  -0.324706
    10  S    0.019794
    11  S    0.026360
    12  Mo  -0.306642
    13  Mo  -0.255026
    14  S    0.050305
    16  S    0.075675
    18  S    0.043043
    20  S    0.118239
 APT charges:
               1
     1  Mo  -0.416929
     2  S   -0.340867
     3  S    0.180471
     4  S   -0.189853
     5  S   -0.371525
     6  Mo   0.916665
     7  S   -1.076601
     8  S   -0.263444
     9  Mo   1.559477
    10  S   -0.575630
    11  S   -1.221277
    12  Mo   0.141848
    13  Mo   1.771126
    14  S    0.435388
    15  H    0.081779
    16  S   -0.206297
    17  H   -0.266998
    18  S   -1.446965
    19  H    1.321694
    20  S   -0.536035
    21  H    0.503972
 Sum of APT charges =  -0.00000
 APT charges with hydrogens summed into heavy atoms:
               1
     1  Mo  -0.416929
     2  S   -0.340867
     3  S    0.180471
     4  S   -0.189853
     5  S   -0.371525
     6  Mo   0.916665
     7  S   -1.076601
     8  S   -0.263444
     9  Mo   1.559477
    10  S   -0.575630
    11  S   -1.221277
    12  Mo   0.141848
    13  Mo   1.771126
    14  S    0.517168
    16  S   -0.473296
    18  S   -0.125270
    20  S   -0.032063
 Electronic spatial extent (au):  <R**2>=         112049.7108
 Charge=             -0.0000 electrons
 Dipole moment (field-independent basis, Debye):
    X=              0.0193    Y=              0.8490    Z=              1.0036  Tot=              1.3147
 Quadrupole moment (field-independent basis, Debye-Ang):
   XX=           -285.8178   YY=           -268.7581   ZZ=           -261.5788
   XY=              2.7434   XZ=             -3.4625   YZ=             10.8882
 Traceless Quadrupole moment (field-independent basis, Debye-Ang):
   XX=            -13.7662   YY=              3.2934   ZZ=             10.4727
   XY=              2.7434   XZ=             -3.4625   YZ=             10.8882
 Octapole moment (field-independent basis, Debye-Ang**2):
  XXX=            -11.2183  YYY=          -2258.9567  ZZZ=          -8038.4527  XYY=            -21.3756
  XXY=           -795.1519  XXZ=          -2788.1643  XZZ=            -70.7997  YZZ=           -646.5956
  YYZ=          -2644.6205  XYZ=             16.3899
 Hexadecapole moment (field-independent basis, Debye-Ang**3):
 XXXX=         -10439.5323 YYYY=         -16482.9365 ZZZZ=        -166763.3175 XXXY=           1323.2791
 XXXZ=          -2489.7936 YYYX=           1082.6168 YYYZ=         -21042.0897 ZZZX=          -3392.7053
 ZZZY=         -20443.9383 XXYY=          -4705.8471 XXZZ=         -30026.6379 YYZZ=         -29862.5310
 XXYZ=          -7353.6190 YYXZ=          -1068.2298 ZZXY=            426.5728
 N-N= 4.305289111190D+03 E-N=-2.065728892974D+04  KE= 4.882269820856D+03
  Exact polarizability:       0.000       0.000       0.000       0.000       0.000       0.000
 Approx polarizability:    1974.293    -276.755    1312.561     420.054    -189.696    1478.335
   1 Symmetry operations used in ECPInt.
 ECPInt:  NShTT=    6328 NPrTT=   48368 LenC2=    5565 LenP2D=   27370.
 LDataN:  DoStor=T MaxTD1= 7 Len=  274
 Calling FoFJK, ICntrl=    100127 FMM=F ISym2X=0 I1Cent= 0 IOpClX= 0 NMat=1 NMatS=1 NMatT=0.
 Defaulting to unpruned grid for atomic number  42.
 Defaulting to unpruned grid for atomic number  42.
 Defaulting to unpruned grid for atomic number  42.
 Defaulting to unpruned grid for atomic number  42.
 Defaulting to unpruned grid for atomic number  42.
 Defaulting to unpruned grid for atomic number  42.
 Defaulting to unpruned grid for atomic number  42.
 Defaulting to unpruned grid for atomic number  42.
 Defaulting to unpruned grid for atomic number  42.
 Defaulting to unpruned grid for atomic number  42.
 Defaulting to unpruned grid for atomic number  42.
 Defaulting to unpruned grid for atomic number  42.
 Defaulting to unpruned grid for atomic number  42.
 Defaulting to unpruned grid for atomic number  42.
 Defaulting to unpruned grid for atomic number  42.
 Defaulting to unpruned grid for atomic number  42.
 Defaulting to unpruned grid for atomic number  42.
 Defaulting to unpruned grid for atomic number  42.
 Defaulting to unpruned grid for atomic number  42.
 Defaulting to unpruned grid for atomic number  42.
 Defaulting to unpruned grid for atomic number  42.
 Defaulting to unpruned grid for atomic number  42.
 Defaulting to unpruned grid for atomic number  42.
 Defaulting to unpruned grid for atomic number  42.
 Defaulting to unpruned grid for atomic number  42.
 Defaulting to unpruned grid for atomic number  42.
 Defaulting to unpruned grid for atomic number  42.
 Defaulting to unpruned grid for atomic number  42.
 Defaulting to unpruned grid for atomic number  42.
 Defaulting to unpruned grid for atomic number  42.
 Defaulting to unpruned grid for atomic number  42.
 Defaulting to unpruned grid for atomic number  42.
 Defaulting to unpruned grid for atomic number  42.
 Defaulting to unpruned grid for atomic number  42.
 Defaulting to unpruned grid for atomic number  42.
 Defaulting to unpruned grid for atomic number  42.
 Defaulting to unpruned grid for atomic number  42.
 Defaulting to unpruned grid for atomic number  42.
 Defaulting to unpruned grid for atomic number  42.
 Defaulting to unpruned grid for atomic number  42.
 Defaulting to unpruned grid for atomic number  42.
 Defaulting to unpruned grid for atomic number  42.
 Defaulting to unpruned grid for atomic number  42.
 Defaulting to unpruned grid for atomic number  42.
 Defaulting to unpruned grid for atomic number  42.
 Defaulting to unpruned grid for atomic number  42.
 -------------------------------------------------------------------
 Center     Atomic                   Forces (Hartrees/Bohr)
 Number     Number              X              Y              Z
 -------------------------------------------------------------------
      1       42          -0.017060543    0.003810372   -0.001834283
      2       16          -0.006396571   -0.001451482    0.002634351
      3       16           0.001863846   -0.000707908    0.001766299
      4       16          -0.000249759    0.000554044   -0.000446770
      5       16          -0.004978190   -0.000938286    0.001101699
      6       42           0.002037510   -0.003621663    0.000916993
      7       16           0.000128270    0.000377844   -0.000240774
      8       16          -0.000563877    0.000497677   -0.000166867
      9       42           0.006602254   -0.000819358    0.001062516
     10       16          -0.000757124    0.000140254    0.000592521
     11       16          -0.001129682    0.001786687   -0.001159634
     12       42           0.041970803   -0.000407359    0.005178745
     13       42          -0.000097146    0.000332743   -0.000573992
     14       16          -0.006933601   -0.020522213   -0.013165951
     15        1          -0.037066216    0.148811820    0.074546145
     16       16          -0.018863565    0.016014195    0.007348223
     17        1           0.041571142   -0.143699396   -0.077616838
     18       16           0.000110101   -0.000062557   -0.000032564
     19        1          -0.000064669   -0.000013281    0.000001905
     20       16          -0.000174040   -0.000057002    0.000100743
     21        1           0.000051054   -0.000025131   -0.000012467
 -------------------------------------------------------------------
 Cartesian Forces:  Max     0.148811820 RMS     0.031127100
 FormGI is forming the generalized inverse of G from B-inverse, IUseBI=4.

 GradGradGradGradGradGradGradGradGradGradGradGradGradGradGradGradGradGrad
 Berny optimization.
 Internal  Forces:  Max     0.149784237 RMS     0.010657623
 Search for a saddle point.
 Step number   1 out of a maximum of  126
 All quantities printed in internal units (Hartrees-Bohrs-Radians)
 Swapping is turned off.
 Second derivative matrix not updated -- analytic derivatives used.
 ITU=  0
     Eigenvalues ---   -0.03090   0.00037   0.00344   0.00475   0.00504
     Eigenvalues ---    0.00567   0.00676   0.00685   0.00709   0.00855
     Eigenvalues ---    0.00905   0.00999   0.01088   0.01299   0.01510
     Eigenvalues ---    0.01625   0.01819   0.01925   0.02097   0.02238
     Eigenvalues ---    0.02353   0.02658   0.02920   0.03437   0.03652
     Eigenvalues ---    0.04276   0.04357   0.04693   0.05134   0.05502
     Eigenvalues ---    0.05774   0.06084   0.06400   0.06702   0.06800
     Eigenvalues ---    0.07076   0.08269   0.08878   0.09203   0.09295
     Eigenvalues ---    0.09672   0.09729   0.10049   0.10735   0.10780
     Eigenvalues ---    0.10899   0.12575   0.13242   0.13586   0.13886
     Eigenvalues ---    0.14175   0.15545   0.15593   0.16868   0.25826
     Eigenvalues ---    0.26278   0.59817
 Eigenvectors required to have negative eigenvalues:
                          R31       R29       R26       R25       R7
   1                    0.55107   0.49088  -0.28909  -0.22483   0.17355
                          A76       R9        A78       D95       A61
   1                   -0.17274   0.16228  -0.15431   0.13193   0.11812
 RFO step:  Lambda0=4.196588534D-05 Lambda=-5.32813625D-02.
 Linear search not attempted -- option 19 set.
 Maximum step size (   0.300) exceeded in Quadratic search.
    -- Step size scaled by   0.678
 Iteration  1 RMS(Cart)=  0.01595599 RMS(Int)=  0.00040795
 Iteration  2 RMS(Cart)=  0.00057610 RMS(Int)=  0.00007285
 Iteration  3 RMS(Cart)=  0.00000028 RMS(Int)=  0.00007285
 Variable       Old X    -DE/DX   Delta X   Delta X   Delta X     New X
                                 (Linear)    (Quad)   (Total)
    R1        4.43827   0.00011   0.00000  -0.01400  -0.01415   4.42412
    R2        4.49872  -0.00191   0.00000  -0.01731  -0.01727   4.48145
    R3        4.49199   0.00029   0.00000   0.00184   0.00185   4.49384
    R4        4.29664  -0.00040   0.00000  -0.00275  -0.00287   4.29377
    R5        5.42878  -0.00342   0.00000  -0.02466  -0.02466   5.40412
    R6        5.01129   0.00068   0.00000  -0.00084  -0.00090   5.01039
    R7        5.24216   0.00742   0.00000   0.07450   0.07447   5.31663
    R8        4.57108  -0.00089   0.00000  -0.00026  -0.00023   4.57085
    R9        4.74924   0.00384   0.00000   0.03566   0.03580   4.78504
   R10        4.49785   0.00102   0.00000   0.00525   0.00519   4.50304
   R11        4.48916  -0.00043   0.00000  -0.00288  -0.00287   4.48629
   R12        4.46316  -0.00007   0.00000  -0.00285  -0.00285   4.46031
   R13        4.60524   0.00419   0.00000   0.03136   0.03156   4.63679
   R14        4.29787   0.00004   0.00000   0.00253   0.00254   4.30041
   R15        4.44487   0.00050   0.00000   0.00253   0.00251   4.44738
   R16        5.00370   0.00126   0.00000   0.00720   0.00720   5.01090
   R17        5.25594   0.00058   0.00000   0.00270   0.00271   5.25864
   R18        4.59822  -0.00007   0.00000  -0.00245  -0.00246   4.59576
   R19        4.58101   0.00034   0.00000   0.00232   0.00234   4.58335
   R20        4.69625   0.00033   0.00000   0.00233   0.00232   4.69857
   R21        4.79141  -0.00060   0.00000  -0.00149  -0.00148   4.78993
   R22        4.78310   0.00047   0.00000  -0.00726  -0.00729   4.77581
   R23        4.25496   0.00052   0.00000   0.00082   0.00082   4.25579
   R24        4.25991  -0.00008   0.00000   0.00767   0.00769   4.26760
   R25        4.49454  -0.00889   0.00000  -0.08613  -0.08601   4.40853
   R26        4.44180  -0.01036   0.00000  -0.09223  -0.09223   4.34956
   R27        4.51024  -0.00009   0.00000  -0.00016  -0.00016   4.51008
   R28        4.46192  -0.00001   0.00000  -0.00050  -0.00050   4.46141
   R29        3.27213  -0.01472   0.00000  -0.11312  -0.11312   3.15901
   R30        1.22832   0.14978   0.00000   0.17055   0.17047   1.39879
   R31        3.33528  -0.01331   0.00000  -0.10963  -0.10974   3.22554
   R32        2.55199  -0.00002   0.00000  -0.00010  -0.00010   2.55189
   R33        2.55821  -0.00001   0.00000   0.00004   0.00004   2.55825
    A1        1.71643   0.00028   0.00000   0.00433   0.00438   1.72080
[...]
 0.02721342,0.02307096,0.00116866,0.00020382,-0.00402124,0.00042881,0.0
 0057785,-0.00426954,0.00106123,0.00015045,0.00195441,-0.00177907,0.001
 42143,-0.00080954,-0.00013374,0.00001855,0.00021607,0.00453467,-0.0015
 4820,-0.00715725,-0.00029811,0.00063395,0.00366798,0.00637450,0.000552
 68,-0.00510395,0.00102715,0.00529730,-0.01439991,-0.03002006,-0.012681
 69,0.05327735,-0.00853909,0.00423634,0.00147753,-0.00644766,-0.0018922
 3,0.00680900,0.00172695,-0.00103662,0.00044736,-0.00241433,-0.00327914
 ,-0.00054622,0.01662589,0.00139457,-0.00386562,-0.00897265,-0.00184824
 ,0.00203079,0.00006395,0.00140384,0.00003450,-0.00655535,0.00055150,-0
 .00162694,-0.06631961,-0.01414021,0.01134121,-0.00623057,0.00173056,-0
 .00640432,0.11336427,0.00426436,-0.00232511,0.00058377,0.00227841,0.00
 279978,-0.00071882,-0.00040979,-0.00044612,0.00002589,-0.00615755,-0.0
 0040437,0.00087063,-0.01054662,-0.00136646,0.00319974,0.00320174,0.007
 57686,0.00155221,-0.00008082,-0.00096156,-0.00069371,-0.00424936,0.001
 12994,-0.00212781,-0.02612214,-0.02547211,0.00415688,0.00323514,0.0002
 2041,0.00135251,0.01610607,0.07907460,0.00026211,-0.00066859,0.0000843
 8,0.00779467,0.00182119,-0.00322659,0.00017572,0.00079890,-0.00008448,
 -0.00186798,0.00270176,0.00087290,0.00539757,0.00216004,-0.00192416,-0
 .00147997,-0.00456328,0.00135751,0.00027340,0.00064302,0.00041242,0.00
 068438,0.00018468,0.00074748,0.02270827,0.00067733,-0.01522166,-0.0083
 6317,0.00064051,-0.00523719,-0.01460763,-0.04290252,0.05974111,-0.0187
 9520,0.00079752,0.00924895,0.00041562,-0.00100810,0.00257738,0.0003441
 7,0.00102807,-0.00021731,-0.00055917,-0.00350704,-0.00621224,-0.029186
 28,-0.02106367,0.02299889,-0.00113202,-0.00295863,-0.00326855,0.000237
 02,0.00107618,0.00160643,0.00046777,-0.00034949,0.00189970,0.00099677,
 0.00887117,-0.00750832,-0.00025445,-0.00019077,0.00029143,-0.02305762,
 0.00899403,-0.00770961,0.34360554,-0.02057299,0.01119713,-0.00185264,-
 0.00351569,-0.00634068,-0.00123886,0.00079598,0.00032539,-0.00075573,0
 .00201596,-0.00037219,-0.00349152,-0.00111594,-0.03735421,0.02446781,-
 0.00294426,-0.00445544,0.00703039,-0.00001999,0.00095702,-0.00007012,-
 0.00063351,0.00055433,-0.00069340,0.03102820,0.00374854,-0.00212916,-0
 .00319618,0.00018132,-0.00139221,-0.01217966,-0.05737425,0.03392167,-0
 .03086512,0.21899354,0.01708575,-0.00985847,0.00625435,0.00170985,0.00
 241313,-0.00445672,-0.00186423,0.00035262,-0.00008747,-0.00003416,-0.0
 0584617,-0.00349280,0.00461322,0.02846930,-0.04384932,0.00347569,0.003
 03248,-0.00024956,-0.00033589,-0.00102248,-0.00017195,0.00108860,-0.00
 158479,0.00050382,-0.02305599,0.00608130,0.00582182,0.00171278,-0.0001
 0351,0.00123333,0.01138480,0.03094876,-0.04040248,0.01277375,0.0401145
 6,0.23180376,-0.00262726,-0.00197773,0.00611045,0.00027700,-0.00022125
 ,0.00215492,0.00069340,-0.00118651,-0.00485091,0.00002668,0.00272973,-
 0.00330488,-0.00008498,-0.00020530,-0.00102195,-0.00523162,0.00543225,
 0.02158173,-0.01814205,-0.01547283,-0.00668204,-0.00857342,-0.00152066
 ,0.01103498,-0.00348675,0.00629705,-0.03705140,-0.15599658,-0.02641758
 ,0.03428409,0.00165225,-0.00250814,0.00378412,0.00090260,0.00262563,-0
 .00204387,0.24163442,-0.00412602,-0.00062138,0.00091838,0.00075421,-0.
 00053098,0.00147777,0.00245763,0.00274034,0.00499887,0.00213085,-0.001
 12656,0.00089904,-0.00024558,-0.00004022,0.00009213,0.00407202,-0.0229
 3014,0.03057264,-0.02082445,-0.07040738,-0.01747853,0.00953528,-0.0158
 9271,-0.02689390,-0.00111597,-0.00112790,-0.00461301,-0.02393110,-0.02
 565552,0.00551814,0.00019646,0.00065073,0.00131303,-0.00037579,0.00057
 302,-0.00012337,0.00188553,0.24085746,0.00256677,-0.00145158,-0.003265
 43,0.00001714,-0.00039090,-0.00049421,-0.00294351,-0.00062765,-0.00592
 611,0.00033720,0.00124430,0.00088982,0.00066209,-0.00000121,-0.0003234
 0,-0.00430657,0.03758999,-0.02685912,-0.00386034,-0.01197987,-0.005989
 54,0.01514180,-0.03099956,-0.05779859,-0.00420141,0.00263136,0.0030099
 7,0.02224074,0.00290332,-0.01719477,-0.00063076,0.00049582,-0.00072378
 ,0.00046494,-0.00079625,-0.00015839,-0.00343721,0.00043356,0.22650976,
 0.00189508,-0.00271223,0.00034596,-0.00025094,0.00057831,-0.00005265,-
 0.00001448,-0.00034371,-0.00023694,-0.00054518,0.00078151,0.00135828,-
 0.00708039,-0.00236094,0.00308855,-0.00057618,0.00044844,0.00023184,0.
 00000764,-0.00011570,0.00010877,-0.00049826,0.00044995,-0.00056622,0.0
 0323733,-0.00113642,-0.00066441,-0.00065674,0.00005547,-0.00044788,-0.
 00393368,0.00778134,-0.00304091,-0.13012995,-0.04990151,-0.08851427,0.
 00070026,0.00040392,0.00008149,0.13592986,0.00124791,0.00020080,0.0015
 4417,-0.00006509,0.00006907,0.00029880,-0.00014511,-0.00031152,-0.0001
 1964,0.00006632,0.00048405,0.00046043,-0.00421909,-0.00116303,-0.00148
 832,-0.00019224,0.00002555,-0.00061502,-0.00008735,0.00002619,0.000208
 59,-0.00007655,0.00024503,-0.00007781,0.00086609,-0.00118555,-0.000349
 42,-0.00037711,0.00003793,-0.00021739,0.00304209,0.00474869,0.00210996
 ,-0.02933564,-0.03746769,-0.02344468,0.00060051,-0.00000905,0.00010526
 ,0.03678568,0.07036537,0.00115501,-0.00212305,0.00000819,-0.00025807,0
 .00039936,0.00024638,-0.00009011,-0.00002351,-0.00036357,-0.00037237,0
 .00080759,0.00133493,-0.00036594,0.00042945,0.00592346,-0.00040469,0.0
 0015137,-0.00002199,0.00007008,-0.00001436,0.00009987,-0.00062226,0.00
 010706,-0.00014559,0.00310703,0.00001986,-0.00044741,-0.00032911,-0.00
 001325,-0.00014225,-0.00517772,0.00306047,-0.00376791,-0.06503573,-0.0
 3020350,-0.07733435,0.00029369,0.00007695,0.00001744,0.07534749,0.0600
 9770,0.11835251,-0.00091209,0.00078746,-0.00099966,0.00023063,-0.00013
 137,-0.00008821,-0.00003764,0.00005767,0.00045341,0.00058109,-0.000122
 51,-0.00008853,0.00089562,-0.00083619,0.00043336,0.00056478,0.00024017
 ,0.00052682,-0.00004781,-0.00007613,-0.00039830,0.00007561,-0.00003680
 ,0.00014223,-0.00151279,0.00031642,-0.00025335,0.00015723,0.00000212,0
 .00006029,0.00099462,-0.00022137,-0.00008056,-0.03541588,0.00255137,-0
 .00967924,-0.00013716,-0.00022233,0.00008491,0.00163933,0.00140729,0.0
 0646480,0.04786695,0.00091772,-0.00142524,0.00027776,-0.00011333,0.000
 31915,0.00006779,0.00011358,0.00000338,-0.00043826,-0.00072511,0.00009
 864,0.00029028,-0.00102515,0.00131715,-0.00029639,-0.00059699,-0.00004
 692,-0.00045701,0.00006144,0.00007900,0.00033227,-0.00017087,-0.000055
 41,-0.00010340,0.00117054,0.00011796,0.00007773,-0.00002800,-0.0000076
 4,0.00001851,-0.00070010,0.00009360,0.00012601,0.03130148,-0.00330288,
 -0.00038556,-0.00000186,0.00016644,-0.00004955,-0.02412858,-0.00498017
 ,0.00214991,0.01496448,0.01560888,0.00080196,-0.00041108,0.00095266,-0
 .00023207,0.00001438,0.00009372,0.00012425,-0.00012560,-0.00032936,-0.
 00050537,0.00023702,0.00005409,-0.00038355,0.00056029,-0.00015998,-0.0
 0048252,0.00005906,-0.00040402,0.00001131,0.00002832,0.00027756,-0.000
 03429,0.00010102,-0.00022143,0.00062027,-0.00070203,-0.00012777,-0.000
 15315,-0.00002398,-0.00014950,-0.00087605,0.00032420,0.00066926,0.0217
 5884,-0.00931889,0.00147609,0.00024590,0.00023857,0.00002945,-0.021831
 53,0.01032848,-0.00951405,0.02387126,-0.00543159,0.02673123,0.00046138
 ,-0.00229952,0.00095727,-0.00018007,0.00053412,-0.00015492,0.00042344,
 0.00020019,-0.00051334,-0.00143169,0.00054144,0.00017828,-0.00444331,0
 .00015311,0.00302075,-0.00122787,-0.00018502,0.00024549,-0.00001423,-0
 .00011219,-0.00004121,0.00004758,-0.00015390,-0.00021273,0.00277484,0.
 00063609,0.00027586,-0.00050730,0.00018482,-0.00023620,-0.00309394,0.0
 0428446,-0.00361292,-0.06658296,0.06522815,0.06269003,0.00038054,0.000
 18559,-0.00026309,-0.02298761,0.00721934,-0.00267667,0.00354291,-0.048
 79532,-0.05312148,0.08336156,-0.00128496,0.00186928,-0.00180877,-0.000
 48934,0.00061943,0.00027195,0.00027061,0.00016359,0.00068866,0.0004815
 5,-0.00070148,-0.00004742,0.00337911,0.00470432,0.00107361,0.00145859,
 0.00038945,-0.00057222,0.00009246,-0.00000222,-0.00000090,0.00008918,0
 .00022813,0.00017348,-0.00333993,0.00034203,0.00040029,0.00067764,-0.0
 0012607,0.00055236,0.00554208,-0.00792777,0.00097912,0.04610333,-0.092
 42847,-0.06434699,-0.00097885,-0.00025723,0.00002727,0.00072981,-0.009
 64827,-0.02092244,0.00084608,-0.00222133,-0.00197125,-0.04305835,0.118
 66058,-0.00026636,0.00294614,-0.00089373,-0.00048492,0.00011361,0.0003
 8749,-0.00000011,-0.00027621,0.00066176,0.00007485,-0.00013356,-0.0004
 9781,0.00508648,-0.00104144,-0.00378980,0.00042461,-0.00025922,-0.0005
 5783,0.00003864,0.00026855,0.00016234,0.00046955,0.00020221,0.00017526
 ,-0.00331968,-0.00068553,0.00018549,0.00069782,0.00001793,0.00019860,0
 .00031089,-0.00042024,0.00683257,0.04010888,-0.05747765,-0.07881925,-0
 .00036987,-0.00025364,0.00011439,-0.00878379,-0.01877027,-0.01449976,0
 .00179525,-0.01737126,-0.01924824,-0.03074797,0.08821985,0.11956774,-0
 .00098403,0.00140910,-0.00126727,0.00022309,-0.00024395,-0.00022348,-0
 .00020863,-0.00000813,0.00065553,0.00091946,-0.00022274,-0.00006930,0.
 00126475,-0.00121074,0.00046636,0.00096527,0.00024202,0.00074146,-0.00
 005701,-0.00010387,-0.00050493,0.00009610,0.00003605,0.00014072,-0.001
 86568,0.00031589,-0.00000911,0.00021840,-0.00001152,0.00007226,0.00146
 471,-0.00023784,-0.00009512,-0.04210508,0.02104152,0.00897238,-0.00021
 096,-0.00026419,0.00012240,0.02341409,-0.01662061,-0.01098925,-0.01844
 233,0.02770249,0.03016985,0.00959480,-0.01074545,-0.00518598,0.0257585
 9,0.00070069,0.00031257,-0.00035896,0.00014448,-0.00008779,-0.00006631
 ,-0.00012500,-0.00009989,0.00018354,0.00021345,0.00004754,-0.00013076,
 0.00001266,0.00003600,0.00020909,0.00016792,0.00017133,-0.00008792,-0.
 00002722,0.00003319,-0.00007246,-0.00001855,0.00002693,0.00004194,-0.0
 0102029,-0.00023114,-0.00008259,0.00013433,-0.00002329,0.00000655,0.00
 097212,0.00049713,-0.00007509,-0.00852342,0.00240434,-0.00451421,-0.00
 000232,-0.00008346,0.00011926,0.03262972,-0.02153007,-0.01408330,-0.01
 957133,-0.00571731,0.00612138,0.01544964,-0.01361011,0.00494764,-0.021
 13366,0.03783260,-0.00097957,0.00082624,-0.00060446,0.00002950,-0.0002
 4576,-0.00008748,0.00000136,0.00001768,0.00044175,0.00065304,-0.000207
 80,-0.00004902,0.00100404,-0.00101951,0.00121371,0.00062340,0.00025594
 ,0.00040341,-0.00003699,-0.00009425,-0.00030793,0.00002943,0.00005515,
 0.00006734,-0.00068819,0.00011032,-0.00024446,0.00009317,-0.00002678,0
 .00005937,0.00048325,-0.00003220,0.00024530,-0.02393752,0.00435085,0.0
 0183248,-0.00017158,-0.00015213,0.00004896,0.04376596,-0.02994305,-0.0
 1958435,-0.02220778,0.02115360,-0.00013020,0.02429972,-0.00293311,-0.0
 1017450,-0.02294652,0.00785824,0.02689468,-0.00046432,0.00004159,-0.00
 030924,0.00004073,-0.00031861,-0.00028500,0.00054920,0.00002313,0.0002
 9288,0.00028849,-0.00041887,-0.00012211,-0.00012125,0.00002885,0.00010
 896,0.00010595,0.00225530,0.00141112,0.00290525,0.00498694,-0.00297398
 ,0.00054515,0.00417684,-0.00119427,-0.00023150,0.00057613,0.00167185,-
 0.00503446,0.00274300,-0.00176869,0.00002174,0.00024548,-0.00002111,0.
 00019401,-0.00012107,0.00007157,-0.03149416,0.02507825,-0.01330264,-0.
 00008017,-0.00008499,-0.00005616,-0.00002937,0.00003719,0.00001138,-0.
 00005145,0.00009683,0.00004163,-0.00002683,-0.00000452,-0.00001018,0.0
 4013252,0.00028569,-0.00035082,0.00029668,-0.00018883,0.00038952,0.000
 26851,-0.00039613,-0.00016552,-0.00005039,-0.00012281,0.00047971,-0.00
 000111,0.00007616,-0.00003374,-0.00002395,-0.00060615,-0.00213405,0.00
 037484,-0.00127333,-0.00238815,0.00334515,0.00381832,-0.00297604,0.002
 61029,-0.00050841,-0.00050667,-0.00173134,0.00818005,0.00606287,0.0007
 9498,0.00017009,-0.00039790,0.00012427,-0.00018698,0.00025738,-0.00025
 091,0.03383661,-0.06950088,0.01492575,0.00009484,0.00009901,0.00011660
 ,0.00006344,-0.00006439,-0.00003834,0.00003481,-0.00011468,-0.00007874
 ,0.00007388,0.00001828,0.00003493,-0.04035762,0.12973558,-0.00050405,0
 .00016570,0.00012363,0.00013735,-0.00003780,-0.00006747,0.00073547,-0.
 00024478,0.00011268,0.00005081,0.00000176,-0.00000906,0.00000705,-0.00
 003314,0.00006473,-0.00233368,0.00119361,0.00097063,0.00175055,0.00088
 336,-0.00007066,-0.00778839,0.00863932,-0.00497416,-0.00011969,0.00059
 545,-0.00072003,-0.00253639,-0.00125456,0.00108839,-0.00006048,-0.0001
 2278,-0.00003857,-0.00002530,-0.00007811,0.00000964,-0.00135686,0.0021
 3711,-0.02840360,0.00000194,-0.00000365,-0.00000669,-0.00000321,0.0000
 0476,0.00000212,-0.00000479,0.00000851,0.00001370,0.00000283,-0.000000
 44,0.00000371,0.02431274,0.08287168,0.26053675,0.00018180,-0.00003518,
 0.00007244,-0.00001245,0.00002277,0.00000654,-0.00023898,0.00006719,-0
 .00029965,-0.00002580,-0.00006961,0.00008235,0.00001940,0.00004012,-0.
 00005424,0.00082373,0.00066167,-0.00010099,-0.00014788,-0.00067159,-0.
 00084356,-0.00157984,0.00052383,-0.00150058,0.00028987,0.00014449,-0.0
 0032355,0.00052510,0.00003509,0.00079777,-0.00010912,-0.00006498,0.000
 06878,0.00004281,-0.00003316,0.00000484,-0.00287305,0.00489300,0.00627
 148,0.00000868,0.00001568,-0.00000670,-0.00000268,0.00000026,0.0000053
 5,-0.00000159,-0.00000052,0.00000372,-0.00000446,0.00000097,-0.0000010
 1,-0.00789543,-0.00353384,-0.01631057,0.00998778,-0.00011455,0.0000747
 2,0.00012070,0.00007037,0.00001542,0.00003334,0.00012388,-0.00004817,0
 .00007175,-0.00002257,0.00007087,-0.00001092,0.00004261,0.00002134,-0.
 00000098,-0.00059296,0.00043965,-0.00110444,0.00021152,-0.00018809,-0.
 00014160,0.00045075,-0.00082316,0.00216148,0.00023243,0.00028260,-0.00
 021379,0.00029278,0.00037929,0.00061137,-0.00018322,-0.00008754,-0.000
 03541,-0.00000196,-0.00008146,0.00008520,0.00067800,-0.00803354,-0.009
 58137,0.00000055,0.00000139,-0.00000125,-0.00000312,0.00000269,0.00000
 013,0.00000155,0.00000827,-0.00000569,-0.00000182,-0.00000408,0.000000
 24,-0.00057866,-0.05057551,-0.08344524,-0.00202893,0.05946483,-0.00016
 429,0.00003935,-0.00009967,-0.00005934,-0.00002352,-0.00002461,0.00002
 458,-0.00011309,0.00022682,0.00002980,0.00001878,-0.00003840,0.0000120
 4,-0.00001764,0.00001692,0.00016454,0.00081542,-0.00026349,0.00017792,
 0.00035361,-0.00023809,-0.00118691,0.00255019,0.00060354,0.00025190,0.
 00002884,0.00005019,-0.00026164,-0.00026450,-0.00027764,-0.00000801,0.
 00005465,-0.00000727,-0.00001065,-0.00000687,0.00002302,-0.00055971,0.
 00009496,0.00055201,-0.00002624,-0.00001471,-0.00000678,0.00000979,-0.
 00000459,-0.00001266,0.00000007,0.00000381,0.00000273,0.00000759,0.000
 00099,0.00000271,-0.01172512,-0.09363162,-0.22108294,0.01269621,0.0917
 3149,0.21949258,-0.00022256,0.00064938,-0.00098156,-0.00012106,0.00053
 232,-0.00047171,-0.00001721,0.00023806,0.00024344,-0.00002278,0.000195
 80,-0.00005094,-0.00025102,-0.00002606,0.00006433,-0.00092848,-0.00287
 642,-0.00386036,-0.00026968,0.00182680,0.00078727,0.00082020,0.0029116
 4,-0.00529615,0.00155178,-0.00162731,0.00344359,-0.00539544,-0.0013600
 5,-0.01003530,-0.00027080,0.00022949,-0.00042143,-0.00000512,-0.000173
 53,-0.00007522,-0.01579489,-0.00560827,-0.01026362,-0.00008458,-0.0000
 3536,-0.00005647,-0.00000702,0.00001411,-0.00000154,-0.00007644,0.0001
 4465,0.00013063,-0.00000851,0.00000572,-0.00000160,0.00000677,0.000358
 98,0.00299653,0.00152820,0.00147572,0.00102615,0.02724556,0.00001799,0
 .00049747,-0.00060184,0.00004885,-0.00013956,-0.00016799,-0.00072076,-
 0.00016976,-0.00084304,-0.00009853,0.00010878,0.00006335,-0.00001577,-
 0.00003702,0.00001427,0.00212892,0.00033545,0.00164236,0.00206231,-0.0
 0175957,0.00933087,-0.00151758,0.00298783,0.00384156,0.00022209,0.0003
 7553,-0.00022318,-0.00022341,0.00081640,-0.00131850,-0.00005853,-0.000
 07260,0.00013372,0.00025062,0.00000831,-0.00000735,-0.00469515,-0.0316
 7342,-0.00829963,-0.00003740,-0.00000855,-0.00003551,-0.00002341,0.000
 02045,0.00001626,-0.00004646,0.00004191,0.00005088,-0.00002462,0.00000
 610,-0.00001430,0.00167179,-0.00716049,-0.00971333,-0.00024215,-0.0007
 4259,-0.00142984,0.01221377,0.27028109,0.00064380,-0.00001902,-0.00060
 665,-0.00005005,0.00063196,-0.00036027,-0.00040928,-0.00011410,0.00081
 034,-0.00022126,-0.00027209,0.00012815,-0.00040115,0.00011041,0.000155
 79,0.00082407,-0.00211126,-0.00252879,0.00149667,0.00830140,-0.0064033
 6,-0.00147038,0.00048241,-0.00742398,0.00050570,-0.00145840,0.00198546
 ,-0.00884443,-0.00055203,-0.00295615,-0.00045872,0.00034080,-0.0002451
 1,0.00023165,-0.00036968,0.00008832,-0.01781099,-0.01399165,-0.0770897
 4,-0.00017446,-0.00011747,-0.00015379,-0.00003916,0.00003504,0.0000071
 0,-0.00008327,0.00020420,0.00017416,-0.00005413,-0.00001607,-0.0000261
 6,0.00257576,-0.00937141,-0.00552907,-0.00045373,0.00013156,0.00020202
 ,0.02131692,-0.05605324,0.13632202,0.00030151,-0.00028727,0.00019446,0
 .00001741,0.00005418,0.00010441,-0.00011719,-0.00009334,-0.00000213,-0
 .00008797,-0.00008746,0.00005260,-0.00000085,0.00002037,0.00003700,0.0
 0056095,0.00043640,0.00163780,0.00218281,-0.00071024,0.00007798,-0.000
 08958,-0.00216320,-0.00081478,-0.00029528,0.00000261,-0.00078936,-0.00
 024195,0.00037792,0.00102253,0.00003004,-0.00002192,0.00015141,0.00001
 743,-0.00001420,0.00001961,-0.00161427,0.00512095,-0.00478181,0.000005
 88,-0.00001178,0.00000313,-0.00000401,0.00000205,0.00000118,0.00001140
 ,-0.00001452,-0.00002428,-0.00000574,-0.00000538,-0.00000193,0.0006391
 5,0.00018122,0.00104817,-0.00051610,-0.00005235,-0.00039868,-0.0076769
 3,-0.01091257,0.00287645,0.00688329,0.00002067,0.00007297,0.00000650,-
 0.00000586,0.00005946,-0.00000728,0.00003843,0.00002021,0.00014322,-0.
 00001048,-0.00003614,-0.00003756,-0.00000978,-0.00000291,0.00000240,-0
 .00036789,-0.00046425,-0.00085045,0.00008825,0.00059972,0.00089511,0.0
 0019317,0.00030692,-0.00091441,0.00001644,-0.00022146,0.00039555,-0.00
 027993,0.00011045,-0.00055246,-0.00002777,0.00004405,-0.00009033,-0.00
 005577,-0.00002305,-0.00000887,0.00110287,0.00290239,0.00370168,-0.000
 00304,0.00000084,0.00000383,0.00000806,-0.00000605,-0.00000633,-0.0000
 0258,0.00001064,0.00000665,0.00000820,0.00000113,0.00000571,-0.0000769
 8,-0.00067354,-0.00156743,0.00027490,-0.00017693,-0.00018570,-0.009089
 44,-0.23371576,0.07420863,0.00817854,0.23119131,-0.00003274,0.00007414
 ,0.00016088,-0.00000365,-0.00000587,0.00007327,0.00022178,0.00010852,-
 0.00013239,0.00008372,0.00003242,-0.00008091,-0.00002797,0.00000523,-0
 .00002867,-0.00119742,-0.00116540,-0.00053310,-0.00118578,-0.00068091,
 -0.00075511,0.00066215,-0.00037875,-0.00112465,0.00017354,-0.00022308,
 0.00006588,-0.00002134,-0.00002747,0.00002341,-0.00005686,0.00005173,-
 0.00008372,-0.00003559,-0.00001068,-0.00002436,-0.00082859,0.01473508,
 -0.00694513,0.00000904,0.00000804,0.00000570,-0.00000413,0.00000394,0.
 00000394,0.00000112,-0.00000001,0.00000468,-0.00000628,-0.00000051,-0.
 00000487,0.00127060,-0.00058587,-0.00202372,-0.00011488,-0.00040658,0.
 00087901,0.00150706,0.06361448,-0.03655030,-0.00041375,-0.07514846,0.0
 4707017\\0.00000400,0.00000327,0.00001033,-0.00000137,-0.00000311,-0.0
 0000473,0.00000043,0.00000148,-0.00000121,-0.00000093,0.00000011,0.000
 00074,0.00000016,0.00000365,-0.00000158,-0.00000270,0.00000171,0.00000
 108,0.00000003,-0.00000022,0.00000106,0.00000081,0.00000100,-0.0000009
 3,0.00000083,0.00000447,-0.00000089,0.00000264,-0.00000077,-0.00000095
 ,0.00000057,0.00000018,-0.00000153,-0.00001005,-0.00000455,0.00000195,
 -0.00000336,-0.00000271,-0.00000071,0.00000201,0.00000650,0.00000562,0
 .00000857,0.00001957,0.00002432,0.00000059,-0.00000570,-0.00000450,-0.
 00000399,-0.00002185,-0.00002401,0.00000180,0.00000051,-0.00000151,-0.
 00000052,-0.00000047,-0.00000132,0.00000184,-0.00000129,-0.00000076,-0
 .00000137,-0.00000180,-0.00000047\\\@
 The archive entry for this job was punched.


 AND ALL THIS SCIENCE I DON'T UNDERSTAND
 IT'S JUST MY JOB FIVE DAYS A WEEK

                           -- ELTON JOHN, "ROCKET MAN"
 Job cpu time:       0 days  1 hours 43 minutes 41.8 seconds.
 Elapsed time:       0 days  0 hours  2 minutes 16.6 seconds.
 File lengths (MBytes):  RWF=    455 Int=      0 D2E=      0 Chk=     12 Scr=      2
 Normal termination of Gaussian 16 at Thu Dec  8 21:27:31 2022.
