 Entering Gaussian System, Link 0=g16
 Initial command:
 /home/chesagar/softwares/G16_AVX2//g16/l1.exe "/home/chesagar/scratch/Gau-210735.inp" -scrdir="/home/chesagar/scratch/"
 Entering Link 1 = /home/chesagar/softwares/G16_AVX2//g16/l1.exe PID=    210736.
  
 Copyright (c) 1988-2019, Gaussian, Inc.  All Rights Reserved.
  
 This is part of the Gaussian(R) 16 program.  It is based on
 the Gaussian(R) 09 system (copyright 2009, Gaussian, Inc.),
 the Gaussian(R) 03 system (copyright 2003, Gaussian, Inc.),
 the Gaussian(R) 98 system (copyright 1998, Gaussian, Inc.),
 the Gaussian(R) 94 system (copyright 1995, Gaussian, Inc.),
 the Gaussian 92(TM) system (copyright 1992, Gaussian, Inc.),
 the Gaussian 90(TM) system (copyright 1990, Gaussian, Inc.),
 the Gaussian 88(TM) system (copyright 1988, Gaussian, Inc.),
 the Gaussian 86(TM) system (copyright 1986, Carnegie Mellon
 University), and the Gaussian 82(TM) system (copyright 1983,
 Carnegie Mellon University). Gaussian is a federally registered
 trademark of Gaussian, Inc.
  
 This software contains proprietary and confidential information,
 including trade secrets, belonging to Gaussian, Inc.
  
 This software is provided under written license and may be
 used, copied, transmitted, or stored only in accord with that
 written license.
  
 The following legend is applicable only to US Government
 contracts under FAR:
  
                    RESTRICTED RIGHTS LEGEND
  
 Use, reproduction and disclosure by the US Government is
 subject to restrictions as set forth in subparagraphs (a)
 and (c) of the Commercial Computer Software - Restricted
 Rights clause in FAR 52.227-19.
  
 Gaussian, Inc.
 340 Quinnipiac St., Bldg. 40, Wallingford CT 06492
  
  
 ---------------------------------------------------------------
 Warning -- This program may not be used in any manner that
 competes with the business of Gaussian, Inc. or will provide
 assistance to any competitor of Gaussian, Inc.  The licensee
 of this program is prohibited from giving any competitor of
 Gaussian, Inc. access to this program.  By using this program,
 the user acknowledges that Gaussian, Inc. is engaged in the
 business of creating and licensing software in the field of
 computational chemistry and represents and warrants to the
 licensee that it is not a competitor of Gaussian, Inc. and that
 it will not use this program in any manner prohibited above.
 ---------------------------------------------------------------
  

 Cite this work as:
 Gaussian 16, Revision C.01,
 M. J. Frisch, G. W. Trucks, H. B. Schlegel, G. E. Scuseria, 
 M. A. Robb, J. R. Cheeseman, G. Scalmani, V. Barone, 
 G. A. Petersson, H. Nakatsuji, X. Li, M. Caricato, A. V. Marenich, 
 J. Bloino, B. G. Janesko, R. Gomperts, B. Mennucci, H. P. Hratchian, 
 J. V. Ortiz, A. F. Izmaylov, J. L. Sonnenberg, D. Williams-Young, 
 F. Ding, F. Lipparini, F. Egidi, J. Goings, B. Peng, A. Petrone, 
 T. Henderson, D. Ranasinghe, V. G. Zakrzewski, J. Gao, N. Rega, 
 G. Zheng, W. Liang, M. Hada, M. Ehara, K. Toyota, R. Fukuda, 
 J. Hasegawa, M. Ishida, T. Nakajima, Y. Honda, O. Kitao, H. Nakai, 
 T. Vreven, K. Throssell, J. A. Montgomery, Jr., J. E. Peralta, 
 F. Ogliaro, M. J. Bearpark, J. J. Heyd, E. N. Brothers, K. N. Kudin, 
 V. N. Staroverov, T. A. Keith, R. Kobayashi, J. Normand, 
 K. Raghavachari, A. P. Rendell, J. C. Burant, S. S. Iyengar, 
 J. Tomasi, M. Cossi, J. M. Millam, M. Klene, C. Adamo, R. Cammi, 
 J. W. Ochterski, R. L. Martin, K. Morokuma, O. Farkas, 
 J. B. Foresman, and D. J. Fox, Gaussian, Inc., Wallingford CT, 2019.
 
 ******************************************
 Gaussian 16:  ES64L-G16RevC.01  3-Jul-2019
                 9-Dec-2022 
 ******************************************
 %nprocshared=46
 Will use up to   46 processors via shared memory.
 %mem=100GB
 ---------------------------------------
 # opt freq b3lyp/gen nosymm pseudo=read
 ---------------------------------------
 1/18=20,19=15,26=3,38=1/1,3;
 2/9=110,12=2,15=1,17=6,18=5,40=1/2;
 3/5=7,11=2,16=1,17=8,25=1,30=1,71=1,74=-5/1,2,3;
 4//1;
 5/5=2,38=5/2;
 6/7=2,8=2,9=2,10=2,28=1/1;
 7/30=1/1,2,3,16;
 1/18=20,19=15,26=3/3(2);
 2/9=110,15=1/2;
 99//99;
 2/9=110,15=1/2;
 3/5=7,6=1,11=2,16=1,17=8,25=1,30=1,71=1,74=-5,82=7/1,2,3;
 4/5=5,16=3,69=1/1;
 5/5=2,38=5/2;
 7/30=1/1,2,3,16;
 1/18=20,19=15,26=3/3(-5);
 2/9=110,15=1/2;
 6/7=2,8=2,9=2,10=2,19=2,28=1/1;
 99/9=1/99;
 -------------------
 Title Card Required
 -------------------
 Symbolic Z-matrix:
 Charge =  0 Multiplicity = 1
 42                   -0.10877   1.97774   12.06829 
 16                    0.22432   4.16334   12.56425 
 16                   -2.41586   1.6506    12.15047 
 16                    0.27911   1.50669   9.71846 
 16                    1.76158   0.85937   12.80857 
 42                   -1.94393   2.24288   9.90432 
 16                   -2.70106   1.63135   7.87572 
 16                   -2.03768   4.57124   10.11587 
 42                    0.31826   3.81448   10.21307 
 16                    0.22495   4.28335   7.58793 
 16                    2.64245   4.03127   9.91456 
 42                    3.10056   2.17377   11.30774 
 42                   -1.95575   3.9599    7.71189 
 16                    4.81145   2.73011   12.47717 
 16                    4.26454   0.801     10.12259 
 16                   -3.19877   5.97996   7.44134 
 1                    -3.15002   6.55137   8.66392 
 16                   -2.61487   3.6542    5.45763 
 1                    -2.57398   4.92651   4.99774 
 

 GradGradGradGradGradGradGradGradGradGradGradGradGradGradGradGradGradGrad
 Berny optimization.
 Initialization pass.
                           ----------------------------
                           !    Initial Parameters    !
                           ! (Angstroms and Degrees)  !
 --------------------------                            --------------------------
 ! Name  Definition              Value          Derivative Info.                !
 --------------------------------------------------------------------------------
 ! R1    R(1,2)                  2.2658         estimate D2E/DX2                !
 ! R2    R(1,3)                  2.3316         estimate D2E/DX2                !
 ! R3    R(1,4)                  2.4278         estimate D2E/DX2                !
 ! R4    R(1,5)                  2.3015         estimate D2E/DX2                !
 ! R5    R(1,6)                  2.8497         estimate D2E/DX2                !
 ! R6    R(1,9)                  2.6453         estimate D2E/DX2                !
 ! R7    R(2,9)                  2.3788         estimate D2E/DX2                !
 ! R8    R(3,6)                  2.3704         estimate D2E/DX2                !
 ! R9    R(4,6)                  2.3491         estimate D2E/DX2                !
 ! R10   R(4,9)                  2.3605         estimate D2E/DX2                !
 ! R11   R(5,12)                 2.4027         estimate D2E/DX2                !
 ! R12   R(6,7)                  2.25           estimate D2E/DX2                !
 ! R13   R(6,8)                  2.3398         estimate D2E/DX2                !
 ! R14   R(6,9)                  2.7718         estimate D2E/DX2                !
 ! R15   R(6,13)                 2.7848         estimate D2E/DX2                !
 ! R16   R(7,13)                 2.4504         estimate D2E/DX2                !
 ! R17   R(8,9)                  2.4764         estimate D2E/DX2                !
 ! R18   R(8,13)                 2.4818         estimate D2E/DX2                !
 ! R19   R(9,10)                 2.6683         estimate D2E/DX2                !
 ! R20   R(9,11)                 2.3533         estimate D2E/DX2                !
 ! R21   R(10,13)                2.208          estimate D2E/DX2                !
 ! R22   R(11,12)                2.3667         estimate D2E/DX2                !
 ! R23   R(12,14)                2.1457         estimate D2E/DX2                !
 ! R24   R(12,15)                2.155          estimate D2E/DX2                !
 ! R25   R(13,16)                2.3872         estimate D2E/DX2                !
 ! R26   R(13,18)                2.3685         estimate D2E/DX2                !
 ! R27   R(16,17)                1.3504         estimate D2E/DX2                !
 ! R28   R(18,19)                1.3535         estimate D2E/DX2                !
 ! A1    A(2,1,3)              105.848          estimate D2E/DX2                !
 ! A2    A(2,1,4)              112.0572         estimate D2E/DX2                !
 ! A3    A(2,1,5)              106.192          estimate D2E/DX2                !
 ! A4    A(2,1,6)               99.854          estimate D2E/DX2                !
 ! A5    A(3,1,4)               99.4959         estimate D2E/DX2                !
 ! A6    A(3,1,5)              136.4356         estimate D2E/DX2                !
 ! A7    A(3,1,9)              106.3715         estimate D2E/DX2                !
 ! A8    A(4,1,5)               95.0028         estimate D2E/DX2                !
 ! A9    A(5,1,6)              144.3699         estimate D2E/DX2                !
 ! A10   A(5,1,9)              115.5809         estimate D2E/DX2                !
 ! A11   A(1,5,12)              89.2059         estimate D2E/DX2                !
 ! A12   A(1,6,7)              151.171          estimate D2E/DX2                !
 ! A13   A(1,6,8)               92.8505         estimate D2E/DX2                !
 ! A14   A(1,6,13)             131.1428         estimate D2E/DX2                !
 ! A15   A(3,6,4)              100.6656         estimate D2E/DX2                !
 ! A16   A(3,6,7)              136.0086         estimate D2E/DX2                !
 ! A17   A(3,6,8)               98.9161         estimate D2E/DX2                !
 ! A18   A(3,6,9)              101.4559         estimate D2E/DX2                !
 ! A19   A(3,6,13)             154.0583         estimate D2E/DX2                !
 ! A20   A(4,6,7)               99.3192         estimate D2E/DX2                !
 ! A21   A(4,6,8)              110.9112         estimate D2E/DX2                !
 ! A22   A(4,6,13)              97.7561         estimate D2E/DX2                !
 ! A23   A(7,6,8)              109.7851         estimate D2E/DX2                !
 ! A24   A(7,6,9)              121.9499         estimate D2E/DX2                !
 ! A25   A(9,6,13)              75.0227         estimate D2E/DX2                !
 ! A26   A(9,8,13)              86.0631         estimate D2E/DX2                !
 ! A27   A(1,9,8)               94.9411         estimate D2E/DX2                !
 ! A28   A(1,9,10)             143.7388         estimate D2E/DX2                !
 ! A29   A(1,9,11)             108.201          estimate D2E/DX2                !
 ! A30   A(2,9,4)              110.4768         estimate D2E/DX2                !
 ! A31   A(2,9,6)               99.2663         estimate D2E/DX2                !
 ! A32   A(2,9,8)               87.5017         estimate D2E/DX2                !
 ! A33   A(2,9,10)             160.9538         estimate D2E/DX2                !
 ! A34   A(2,9,11)              98.6772         estimate D2E/DX2                !
 ! A35   A(4,9,8)              105.9475         estimate D2E/DX2                !
 ! A36   A(4,9,10)              87.998          estimate D2E/DX2                !
 ! A37   A(4,9,11)              94.5808         estimate D2E/DX2                !
 ! A38   A(6,9,10)              87.7937         estimate D2E/DX2                !
 ! A39   A(6,9,11)             147.5822         estimate D2E/DX2                !
 ! A40   A(8,9,10)              82.7858         estimate D2E/DX2                !
 ! A41   A(8,9,11)             155.0209         estimate D2E/DX2                !
 ! A42   A(10,9,11)             83.8896         estimate D2E/DX2                !
 ! A43   A(9,10,13)             87.3385         estimate D2E/DX2                !
 ! A44   A(9,11,12)             92.5334         estimate D2E/DX2                !
 ! A45   A(5,12,11)            133.5661         estimate D2E/DX2                !
 ! A46   A(5,12,14)            104.226          estimate D2E/DX2                !
 ! A47   A(5,12,15)            107.2204         estimate D2E/DX2                !
 ! A48   A(11,12,14)           105.7635         estimate D2E/DX2                !
 ! A49   A(11,12,15)           106.3071         estimate D2E/DX2                !
 ! A50   A(14,12,15)            91.961          estimate D2E/DX2                !
 ! A51   A(6,13,10)             97.4882         estimate D2E/DX2                !
 ! A52   A(6,13,16)            127.8194         estimate D2E/DX2                !
 ! A53   A(6,13,18)            132.1386         estimate D2E/DX2                !
 ! A54   A(7,13,8)              99.1646         estimate D2E/DX2                !
 ! A55   A(7,13,10)            116.3174         estimate D2E/DX2                !
 ! A56   A(7,13,16)            130.792          estimate D2E/DX2                !
 ! A57   A(7,13,18)             81.7401         estimate D2E/DX2                !
 ! A58   A(8,13,10)             92.9175         estimate D2E/DX2                !
 ! A59   A(8,13,16)             83.3477         estimate D2E/DX2                !
 ! A60   A(8,13,18)            160.827          estimate D2E/DX2                !
 ! A61   A(10,13,16)           112.5774         estimate D2E/DX2                !
 ! A62   A(10,13,18)           103.9052         estimate D2E/DX2                !
 ! A63   A(16,13,18)            81.7465         estimate D2E/DX2                !
 ! A64   A(13,16,17)           103.6891         estimate D2E/DX2                !
 ! A65   A(13,18,19)           101.1663         estimate D2E/DX2                !
 ! D1    D(2,1,5,12)           -60.7617         estimate D2E/DX2                !
 ! D2    D(3,1,5,12)           163.3549         estimate D2E/DX2                !
 ! D3    D(4,1,5,12)            53.9441         estimate D2E/DX2                !
 ! D4    D(6,1,5,12)            74.5588         estimate D2E/DX2                !
 ! D5    D(9,1,5,12)             0.266          estimate D2E/DX2                !
 ! D6    D(2,1,6,7)            139.095          estimate D2E/DX2                !
 ! D7    D(2,1,6,8)             -3.4013         estimate D2E/DX2                !
 ! D8    D(2,1,6,13)            43.9246         estimate D2E/DX2                !
 ! D9    D(5,1,6,7)              2.3589         estimate D2E/DX2                !
 ! D10   D(5,1,6,8)           -140.1374         estimate D2E/DX2                !
 ! D11   D(5,1,6,13)           -92.8115         estimate D2E/DX2                !
 ! D12   D(3,1,9,8)             15.4455         estimate D2E/DX2                !
 ! D13   D(3,1,9,10)           -69.0888         estimate D2E/DX2                !
 ! D14   D(3,1,9,11)          -174.0877         estimate D2E/DX2                !
 ! D15   D(5,1,9,8)           -176.615          estimate D2E/DX2                !
 ! D16   D(5,1,9,10)            98.8508         estimate D2E/DX2                !
 ! D17   D(5,1,9,11)            -6.1481         estimate D2E/DX2                !
 ! D18   D(1,4,6,9)             70.6977         estimate D2E/DX2                !
 ! D19   D(1,5,12,11)            7.3983         estimate D2E/DX2                !
 ! D20   D(1,5,12,14)          136.2961         estimate D2E/DX2                !
 ! D21   D(1,5,12,15)         -127.0694         estimate D2E/DX2                !
 ! D22   D(3,6,9,2)            -13.6928         estimate D2E/DX2                !
 ! D23   D(3,6,9,10)          -175.902          estimate D2E/DX2                !
 ! D24   D(3,6,9,11)           109.1307         estimate D2E/DX2                !
 ! D25   D(7,6,9,2)            173.7789         estimate D2E/DX2                !
 ! D26   D(7,6,9,10)            11.5697         estimate D2E/DX2                !
 ! D27   D(7,6,9,11)           -63.3976         estimate D2E/DX2                !
 ! D28   D(13,6,9,2)           139.889          estimate D2E/DX2                !
 ! D29   D(13,6,9,10)          -22.3203         estimate D2E/DX2                !
 ! D30   D(13,6,9,11)          -97.2875         estimate D2E/DX2                !
 ! D31   D(1,6,13,10)           26.9628         estimate D2E/DX2                !
 ! D32   D(1,6,13,16)          -99.3527         estimate D2E/DX2                !
 ! D33   D(1,6,13,18)          143.4374         estimate D2E/DX2                !
 ! D34   D(3,6,13,10)          112.967          estimate D2E/DX2                !
 ! D35   D(3,6,13,16)          -13.3485         estimate D2E/DX2                !
 ! D36   D(3,6,13,18)         -130.5584         estimate D2E/DX2                !
 ! D37   D(4,6,13,10)          -22.0211         estimate D2E/DX2                !
 ! D38   D(4,6,13,16)         -148.3366         estimate D2E/DX2                !
 ! D39   D(4,6,13,18)           94.4535         estimate D2E/DX2                !
 ! D40   D(9,6,13,10)           27.5521         estimate D2E/DX2                !
 ! D41   D(9,6,13,16)          -98.7633         estimate D2E/DX2                !
 ! D42   D(9,6,13,18)          144.0267         estimate D2E/DX2                !
 ! D43   D(13,8,9,1)          -121.5134         estimate D2E/DX2                !
 ! D44   D(13,8,9,2)          -174.3349         estimate D2E/DX2                !
 ! D45   D(13,8,9,4)           -63.743          estimate D2E/DX2                !
 ! D46   D(13,8,9,10)           22.0825         estimate D2E/DX2                !
 ! D47   D(13,8,9,11)           80.3609         estimate D2E/DX2                !
 ! D48   D(9,8,13,7)            90.4236         estimate D2E/DX2                !
 ! D49   D(9,8,13,10)          -26.8269         estimate D2E/DX2                !
 ! D50   D(9,8,13,16)         -139.2281         estimate D2E/DX2                !
 ! D51   D(9,8,13,18)         -178.3792         estimate D2E/DX2                !
 ! D52   D(1,9,10,13)           63.5608         estimate D2E/DX2                !
 ! D53   D(2,9,10,13)          -84.8758         estimate D2E/DX2                !
 ! D54   D(4,9,10,13)           81.3903         estimate D2E/DX2                !
 ! D55   D(6,9,10,13)           27.5946         estimate D2E/DX2                !
 ! D56   D(8,9,10,13)          -24.962          estimate D2E/DX2                !
 ! D57   D(11,9,10,13)         176.2153         estimate D2E/DX2                !
 ! D58   D(1,9,11,12)            7.757          estimate D2E/DX2                !
 ! D59   D(2,9,11,12)           61.8611         estimate D2E/DX2                !
 ! D60   D(4,9,11,12)          -49.6844         estimate D2E/DX2                !
 ! D61   D(6,9,11,12)          -61.1062         estimate D2E/DX2                !
 ! D62   D(8,9,11,12)          164.7567         estimate D2E/DX2                !
 ! D63   D(10,9,11,12)        -137.1727         estimate D2E/DX2                !
 ! D64   D(9,10,13,6)          -27.6888         estimate D2E/DX2                !
 ! D65   D(9,10,13,7)          -76.9925         estimate D2E/DX2                !
 ! D66   D(9,10,13,8)           24.7274         estimate D2E/DX2                !
 ! D67   D(9,10,13,16)         108.7329         estimate D2E/DX2                !
 ! D68   D(9,10,13,18)        -164.5474         estimate D2E/DX2                !
 ! D69   D(9,11,12,5)          -11.038          estimate D2E/DX2                !
 ! D70   D(9,11,12,14)        -139.4206         estimate D2E/DX2                !
 ! D71   D(9,11,12,15)         123.7086         estimate D2E/DX2                !
 ! D72   D(6,13,16,17)          38.9212         estimate D2E/DX2                !
 ! D73   D(7,13,16,17)         105.6105         estimate D2E/DX2                !
 ! D74   D(8,13,16,17)           9.2284         estimate D2E/DX2                !
 ! D75   D(10,13,16,17)        -81.1727         estimate D2E/DX2                !
 ! D76   D(18,13,16,17)        177.1339         estimate D2E/DX2                !
 ! D77   D(6,13,18,19)         170.2767         estimate D2E/DX2                !
 ! D78   D(7,13,18,19)         168.9842         estimate D2E/DX2                !
 ! D79   D(8,13,18,19)          74.8241         estimate D2E/DX2                !
 ! D80   D(10,13,18,19)        -75.8287         estimate D2E/DX2                !
 ! D81   D(16,13,18,19)         35.502          estimate D2E/DX2                !
 --------------------------------------------------------------------------------
 Trust Radius=3.00D-01 FncErr=1.00D-07 GrdErr=1.00D-06 EigMax=2.50D+02 EigMin=1.00D-04
 Number of steps in this run=    114 maximum allowed number of steps=    114.
 GradGradGradGradGradGradGradGradGradGradGradGradGradGradGradGradGradGrad

                          Input orientation:                          
 ---------------------------------------------------------------------
 Center     Atomic      Atomic             Coordinates (Angstroms)
 Number     Number       Type             X           Y           Z
 ---------------------------------------------------------------------
      1         42           0       -0.108769    1.977735   12.068294
      2         16           0        0.224317    4.163342   12.564250
      3         16           0       -2.415863    1.650596   12.150471
      4         16           0        0.279107    1.506692    9.718459
      5         16           0        1.761583    0.859373   12.808566
      6         42           0       -1.943927    2.242875    9.904318
      7         16           0       -2.701059    1.631351    7.875723
      8         16           0       -2.037679    4.571236   10.115871
      9         42           0        0.318257    3.814482   10.213071
     10         16           0        0.224949    4.283346    7.587934
     11         16           0        2.642452    4.031271    9.914564
     12         42           0        3.100560    2.173774   11.307736
     13         42           0       -1.955753    3.959904    7.711893
     14         16           0        4.811449    2.730113   12.477168
     15         16           0        4.264539    0.801003   10.122592
     16         16           0       -3.198773    5.979961    7.441337
     17          1           0       -3.150021    6.551372    8.663915
     18         16           0       -2.614867    3.654200    5.457630
     19          1           0       -2.573976    4.926512    4.997743
 ---------------------------------------------------------------------
                    Distance matrix (angstroms):
                    1          2          3          4          5
     1  Mo   0.000000
     2  S    2.265788   0.000000
     3  S    2.331621   3.668195   0.000000
     4  S    2.427767   3.893497   3.632940   0.000000
     5  S    2.301511   3.652272   4.302346   3.487910   0.000000
     6  Mo   2.849719   3.932520   2.370384   2.349125   4.907091
     7  S    4.941417   6.078741   4.284294   3.506081   6.696571
     8  S    3.776095   3.358208   3.579491   3.862236   5.955076
     9  Mo   2.645344   2.378775   3.988901   2.360523   4.189565
    10  S    5.049835   4.977763   5.892538   3.500268   6.429606
    11  S    4.052750   3.589660   6.021083   3.463720   4.383163
    12  Mo   3.304039   3.716178   5.604894   3.306266   2.402707
    13  Mo   5.130163   5.323482   5.024498   3.878035   7.029079
    14  S    4.994176   4.806611   7.314788   5.445122   3.593212
    15  S    4.929125   5.795724   7.032914   4.067553   3.671873
    16  S    6.853807   6.423542   6.444555   6.106641   8.923716
    17  H    6.461978   5.683437   6.059098   6.190297   8.584919
    18  S    7.265806   7.669696   6.989145   5.580461   9.000035
    19  H    8.047684   8.103388   7.868808   6.490024   9.815684
                    6          7          8          9         10
     6  Mo   0.000000
     7  S    2.249980   0.000000
     8  S    2.339831   3.755164   0.000000
     9  Mo   2.771778   4.398355   2.476400   0.000000
    10  S    3.772689   3.959473   3.404825   2.668311   0.000000
    11  S    4.922737   6.202387   4.715476   2.353293   3.364680
    12  Mo   5.236526   6.762523   5.793951   3.410487   5.153286
    13  Mo   2.784790   2.450404   2.481844   3.383513   2.208040
    14  S    7.245141   8.877970   7.475026   5.146918   6.881361
    15  S    6.377436   7.365966   7.343885   4.966124   5.905039
    16  S    4.648304   4.398502   3.238175   4.974064   3.823855
    17  H    4.642888   5.002941   2.695630   4.681816   4.206198
    18  S    4.713283   3.153811   4.782605   5.589555   3.605354
    19  H    5.627908   4.376872   5.158398   6.066405   3.867394
                   11         12         13         14         15
    11  S    0.000000
    12  Mo   2.366661   0.000000
    13  Mo   5.099053   6.456520   0.000000
    14  S    3.600625   2.145746   8.367512   0.000000
    15  S    3.620645   2.154974   7.381203   3.092669   0.000000
    16  S    6.635824   8.313705   2.387243  10.004237   9.471629
    17  H    6.439548   8.076071   3.008044   9.619144   9.495798
    18  S    6.902597   8.311529   2.368457  10.260508   8.787994
    19  H    7.224106   8.921543   2.946717  10.738271   9.489425
                   16         17         18         19
    16  S    0.000000
    17  H    1.350402   0.000000
    18  S    3.112106   4.354338   0.000000
    19  H    2.733364   4.051273   1.353494   0.000000
 Symmetry turned off by external request.
 Stoichiometry    H2Mo5S12
 Framework group  C1[X(H2Mo5S12)]
 Deg. of freedom    51
 Full point group                 C1      NOp   1
 Rotational constants (GHZ):           0.1897072           0.0701181           0.0623749
 General basis read from cards:  (5D, 7F)
 ======================================================================================================
                                       Pseudopotential Parameters
 ======================================================================================================
  Center     Atomic      Valence      Angular      Power
  Number     Number     Electrons     Momentum     of R      Exponent        Coefficient   SO-Coeffient
 ======================================================================================================
    1         42           14
                                      F and up 
                                                     0      537.9667807       -0.04694920    0.00000000
                                                     1      147.8982938      -20.20800840    0.00000000
                                                     2       45.7358898     -106.21163020    0.00000000
                                                     2       13.2911467      -41.81073680    0.00000000
                                                     2        4.7059961       -4.20541030    0.00000000
                                      S - F
                                                     0      110.2991760        2.80637170    0.00000000
                                                     1       23.2014645       44.51620120    0.00000000
                                                     2        5.3530131       82.77852270    0.00000000
                                      P - F
                                                     0       63.2901397        4.94208760    0.00000000
                                                     1       23.3315302       25.86049760    0.00000000
                                                     2       24.6759423      132.47087420    0.00000000
                                                     2        4.6493040       57.31497940    0.00000000
                                      D - F
                                                     0      104.4839977        3.00545910    0.00000000
                                                     1       66.2307245       26.36378510    0.00000000
                                                     2       39.1283176      183.38491990    0.00000000
                                                     2       13.1164437       98.44530680    0.00000000
                                                     2        3.6280263       22.49013770    0.00000000
    2         16
                                   No pseudopotential on this center.
    3         16
                                   No pseudopotential on this center.
    4         16
                                   No pseudopotential on this center.
    5         16
                                   No pseudopotential on this center.
    6         42           14
                                      F and up 
                                                     0      537.9667807       -0.04694920    0.00000000
                                                     1      147.8982938      -20.20800840    0.00000000
                                                     2       45.7358898     -106.21163020    0.00000000
                                                     2       13.2911467      -41.81073680    0.00000000
                                                     2        4.7059961       -4.20541030    0.00000000
                                      S - F
                                                     0      110.2991760        2.80637170    0.00000000
                                                     1       23.2014645       44.51620120    0.00000000
                                                     2        5.3530131       82.77852270    0.00000000
                                      P - F
                                                     0       63.2901397        4.94208760    0.00000000
                                                     1       23.3315302       25.86049760    0.00000000
                                                     2       24.6759423      132.47087420    0.00000000
                                                     2        4.6493040       57.31497940    0.00000000
                                      D - F
                                                     0      104.4839977        3.00545910    0.00000000
                                                     1       66.2307245       26.36378510    0.00000000
                                                     2       39.1283176      183.38491990    0.00000000
                                                     2       13.1164437       98.44530680    0.00000000
                                                     2        3.6280263       22.49013770    0.00000000
    7         16
                                   No pseudopotential on this center.
    8         16
                                   No pseudopotential on this center.
    9         42           14
                                      F and up 
                                                     0      537.9667807       -0.04694920    0.00000000
                                                     1      147.8982938      -20.20800840    0.00000000
                                                     2       45.7358898     -106.21163020    0.00000000
                                                     2       13.2911467      -41.81073680    0.00000000
                                                     2        4.7059961       -4.20541030    0.00000000
                                      S - F
                                                     0      110.2991760        2.80637170    0.00000000
                                                     1       23.2014645       44.51620120    0.00000000
                                                     2        5.3530131       82.77852270    0.00000000
                                      P - F
                                                     0       63.2901397        4.94208760    0.00000000
                                                     1       23.3315302       25.86049760    0.00000000
                                                     2       24.6759423      132.47087420    0.00000000
                                                     2        4.6493040       57.31497940    0.00000000
                                      D - F
                                                     0      104.4839977        3.00545910    0.00000000
                                                     1       66.2307245       26.36378510    0.00000000
                                                     2       39.1283176      183.38491990    0.00000000
                                                     2       13.1164437       98.44530680    0.00000000
                                                     2        3.6280263       22.49013770    0.00000000
   10         16
                                   No pseudopotential on this center.
   11         16
                                   No pseudopotential on this center.
   12         42           14
                                      F and up 
                                                     0      537.9667807       -0.04694920    0.00000000
                                                     1      147.8982938      -20.20800840    0.00000000
                                                     2       45.7358898     -106.21163020    0.00000000
                                                     2       13.2911467      -41.81073680    0.00000000
                                                     2        4.7059961       -4.20541030    0.00000000
                                      S - F
                                                     0      110.2991760        2.80637170    0.00000000
                                                     1       23.2014645       44.51620120    0.00000000
                                                     2        5.3530131       82.77852270    0.00000000
                                      P - F
                                                     0       63.2901397        4.94208760    0.00000000
                                                     1       23.3315302       25.86049760    0.00000000
                                                     2       24.6759423      132.47087420    0.00000000
                                                     2        4.6493040       57.31497940    0.00000000
                                      D - F
                                                     0      104.4839977        3.00545910    0.00000000
                                                     1       66.2307245       26.36378510    0.00000000
                                                     2       39.1283176      183.38491990    0.00000000
                                                     2       13.1164437       98.44530680    0.00000000
                                                     2        3.6280263       22.49013770    0.00000000
   13         42           14
                                      F and up 
                                                     0      537.9667807       -0.04694920    0.00000000
                                                     1      147.8982938      -20.20800840    0.00000000
                                                     2       45.7358898     -106.21163020    0.00000000
                                                     2       13.2911467      -41.81073680    0.00000000
                                                     2        4.7059961       -4.20541030    0.00000000
                                      S - F
                                                     0      110.2991760        2.80637170    0.00000000
                                                     1       23.2014645       44.51620120    0.00000000
                                                     2        5.3530131       82.77852270    0.00000000
                                      P - F
                                                     0       63.2901397        4.94208760    0.00000000
                                                     1       23.3315302       25.86049760    0.00000000
                                                     2       24.6759423      132.47087420    0.00000000
                                                     2        4.6493040       57.31497940    0.00000000
                                      D - F
                                                     0      104.4839977        3.00545910    0.00000000
                                                     1       66.2307245       26.36378510    0.00000000
                                                     2       39.1283176      183.38491990    0.00000000
                                                     2       13.1164437       98.44530680    0.00000000
                                                     2        3.6280263       22.49013770    0.00000000
   14         16
                                   No pseudopotential on this center.
   15         16
                                   No pseudopotential on this center.
   16         16
                                   No pseudopotential on this center.
   17          1
                                   No pseudopotential on this center.
   18         16
                                   No pseudopotential on this center.
   19          1
                                   No pseudopotential on this center.
 ======================================================================================================
   336 basis functions,   883 primitive gaussians,   358 cartesian basis functions
   132 alpha electrons      132 beta electrons
       nuclear repulsion energy      4228.1988847888 Hartrees.
 NAtoms=   19 NActive=   19 NUniq=   19 SFac= 1.00D+00 NAtFMM=   60 NAOKFM=F Big=F
 Integral buffers will be    131072 words long.
 Raffenetti 2 integral format.
 Two-electron integral symmetry is turned off.
 One-electron integrals computed using PRISM.
   1 Symmetry operations used in ECPInt.
 ECPInt:  NShTT=    5671 NPrTT=   45317 LenC2=    5065 LenP2D=   25821.
 LDataN:  DoStor=T MaxTD1= 5 Len=  102
 NBasis=   336 RedAO= T EigKep=  1.00D-03  NBF=   336
 NBsUse=   336 1.00D-06 EigRej= -1.00D+00 NBFU=   336
 Defaulting to unpruned grid for atomic number  42.
 Defaulting to unpruned grid for atomic number  42.
 Defaulting to unpruned grid for atomic number  42.
 Defaulting to unpruned grid for atomic number  42.
 Defaulting to unpruned grid for atomic number  42.
 ExpMin= 2.47D-02 ExpMax= 2.19D+04 ExpMxC= 3.30D+03 IAcc=3 IRadAn=         5 AccDes= 0.00D+00
 Harris functional with IExCor=  402 and IRadAn=       5 diagonalized for initial guess.
 HarFok:  IExCor=  402 AccDes= 0.00D+00 IRadAn=         5 IDoV= 1 UseB2=F ITyADJ=14
 ICtDFT=  3500011 ScaDFX=  1.000000  1.000000  1.000000  1.000000
 Defaulting to unpruned grid for atomic number  42.
 FoFCou: FMM=F IPFlag=           0 FMFlag=      100000 FMFlg1=           0
         NFxFlg=           0 DoJE=T BraDBF=F KetDBF=T FulRan=T
         wScrn=  0.000000 ICntrl=       500 IOpCl=  0 I1Cent=   200000004 NGrid=           0
         NMat0=    1 NMatS0=      1 NMatT0=    0 NMatD0=    1 NMtDS0=    0 NMtDT0=    0
 Symmetry not used in FoFCou.
 Requested convergence on RMS density matrix=1.00D-08 within 128 cycles.
 Requested convergence on MAX density matrix=1.00D-06.
 Requested convergence on             energy=1.00D-06.
 No special actions if energy rises.
 Defaulting to unpruned grid for atomic number  42.
 Defaulting to unpruned grid for atomic number  42.
 Defaulting to unpruned grid for atomic number  42.
 Defaulting to unpruned grid for atomic number  42.
 Defaulting to unpruned grid for atomic number  42.
 Defaulting to unpruned grid for atomic number  42.
 Defaulting to unpruned grid for atomic number  42.
 Defaulting to unpruned grid for atomic number  42.
 Defaulting to unpruned grid for atomic number  42.
 Defaulting to unpruned grid for atomic number  42.
 Defaulting to unpruned grid for atomic number  42.
 Defaulting to unpruned grid for atomic number  42.
 Defaulting to unpruned grid for atomic number  42.
 Defaulting to unpruned grid for atomic number  42.
 Defaulting to unpruned grid for atomic number  42.
 Defaulting to unpruned grid for atomic number  42.
 Defaulting to unpruned grid for atomic number  42.
 Defaulting to unpruned grid for atomic number  42.
 Defaulting to unpruned grid for atomic number  42.
 Defaulting to unpruned grid for atomic number  42.
 Defaulting to unpruned grid for atomic number  42.
 Defaulting to unpruned grid for atomic number  42.
 Defaulting to unpruned grid for atomic number  42.
 Defaulting to unpruned grid for atomic number  42.
 Defaulting to unpruned grid for atomic number  42.
 Defaulting to unpruned grid for atomic number  42.
 Defaulting to unpruned grid for atomic number  42.
 Defaulting to unpruned grid for atomic number  42.
 Defaulting to unpruned grid for atomic number  42.
 Defaulting to unpruned grid for atomic number  42.
 Defaulting to unpruned grid for atomic number  42.
 Defaulting to unpruned grid for atomic number  42.
 Defaulting to unpruned grid for atomic number  42.
 Defaulting to unpruned grid for atomic number  42.
 Defaulting to unpruned grid for atomic number  42.
 Defaulting to unpruned grid for atomic number  42.
 Defaulting to unpruned grid for atomic number  42.
 Defaulting to unpruned grid for atomic number  42.
 Defaulting to unpruned grid for atomic number  42.
 Defaulting to unpruned grid for atomic number  42.
 Defaulting to unpruned grid for atomic number  42.
 Defaulting to unpruned grid for atomic number  42.
 Defaulting to unpruned grid for atomic number  42.
 Defaulting to unpruned grid for atomic number  42.
 Defaulting to unpruned grid for atomic number  42.
 Defaulting to unpruned grid for atomic number  42.
 EnCoef did   100 forward-backward iterations
 EnCoef did   100 forward-backward iterations
 EnCoef did   100 forward-backward iterations
 EnCoef did   100 forward-backward iterations
 EnCoef did     5 forward-backward iterations
 EnCoef did     3 forward-backward iterations
 EnCoef did     5 forward-backward iterations
 EnCoef did     7 forward-backward iterations
 EnCoef did     5 forward-backward iterations
 EnCoef did     3 forward-backward iterations
 EnCoef did     2 forward-backward iterations
 Restarting incremental Fock formation.
 SCF Done:  E(RB3LYP) =  -5117.70961165     A.U. after   30 cycles
            NFock= 30  Conv=0.82D-08     -V/T= 2.0485

 **********************************************************************

            Population analysis using the SCF Density.

 **********************************************************************

 Alpha  occ. eigenvalues --  -88.93837 -88.91726 -88.91069 -88.89992 -88.89972
 Alpha  occ. eigenvalues --  -88.89762 -88.89738 -88.89304 -88.89175 -88.89144
 Alpha  occ. eigenvalues --  -88.87829 -88.87599  -8.01422  -7.99350  -7.98865
 Alpha  occ. eigenvalues --   -7.97836  -7.97712  -7.97580  -7.97471  -7.97088
 Alpha  occ. eigenvalues --   -7.96982  -7.96946  -7.95527  -7.95279  -5.97446
 Alpha  occ. eigenvalues --   -5.97366  -5.97317  -5.95359  -5.95329  -5.95229
 Alpha  occ. eigenvalues --   -5.94863  -5.94827  -5.94733  -5.93886  -5.93813
 Alpha  occ. eigenvalues --   -5.93743  -5.93659  -5.93653  -5.93638  -5.93592
 Alpha  occ. eigenvalues --   -5.93590  -5.93465  -5.93439  -5.93357  -5.93309
 Alpha  occ. eigenvalues --   -5.93199  -5.93058  -5.93035  -5.92990  -5.92974
 Alpha  occ. eigenvalues --   -5.92958  -5.92846  -5.92783  -5.92696  -5.91781
 Alpha  occ. eigenvalues --   -5.91566  -5.91436  -5.91220  -5.91190  -5.90945
 Alpha  occ. eigenvalues --   -2.58566  -2.57761  -2.57307  -2.56586  -2.56178
 Alpha  occ. eigenvalues --   -1.61416  -1.61182  -1.60650  -1.60550  -1.60398
 Alpha  occ. eigenvalues --   -1.60129  -1.59796  -1.59590  -1.59467  -1.59110
 Alpha  occ. eigenvalues --   -1.58892  -1.58223  -1.58119  -1.57583  -1.57209
 Alpha  occ. eigenvalues --   -0.77388  -0.75716  -0.74093  -0.73427  -0.73124
 Alpha  occ. eigenvalues --   -0.72661  -0.72150  -0.71835  -0.71386  -0.71247
 Alpha  occ. eigenvalues --   -0.70925  -0.69792  -0.45223  -0.43973  -0.43767
 Alpha  occ. eigenvalues --   -0.43305  -0.43060  -0.41968  -0.41124  -0.40916
 Alpha  occ. eigenvalues --   -0.40648  -0.39568  -0.38994  -0.38595  -0.38212
 Alpha  occ. eigenvalues --   -0.38067  -0.37519  -0.37173  -0.36843  -0.36369
 Alpha  occ. eigenvalues --   -0.36216  -0.35632  -0.35115  -0.35042  -0.34689
 Alpha  occ. eigenvalues --   -0.34390  -0.34205  -0.33948  -0.32900  -0.31759
 Alpha  occ. eigenvalues --   -0.31162  -0.30909  -0.30528  -0.30178  -0.29643
 Alpha  occ. eigenvalues --   -0.28844  -0.28566  -0.28160  -0.26468  -0.25947
 Alpha  occ. eigenvalues --   -0.25607  -0.25172
 Alpha virt. eigenvalues --   -0.18003  -0.17653  -0.16579  -0.15578  -0.15332
 Alpha virt. eigenvalues --   -0.14715  -0.14576  -0.14089  -0.13779  -0.13051
 Alpha virt. eigenvalues --   -0.12340  -0.11852  -0.11314  -0.11018  -0.10029
 Alpha virt. eigenvalues --   -0.09619  -0.08637  -0.08150  -0.07942  -0.07165
 Alpha virt. eigenvalues --   -0.04493  -0.01508  -0.00424   0.00429   0.01353
 Alpha virt. eigenvalues --    0.01912   0.02688   0.03062   0.03685   0.04051
 Alpha virt. eigenvalues --    0.04336   0.05076   0.05517   0.05630   0.05931
 Alpha virt. eigenvalues --    0.06242   0.06707   0.07121   0.08315   0.08918
 Alpha virt. eigenvalues --    0.09657   0.10338   0.11732   0.12631   0.14237
 Alpha virt. eigenvalues --    0.15069   0.15535   0.16623   0.17677   0.18465
 Alpha virt. eigenvalues --    0.18730   0.19448   0.19566   0.21514   0.23008
 Alpha virt. eigenvalues --    0.24640   0.25808   0.26340   0.26925   0.27556
 Alpha virt. eigenvalues --    0.27933   0.29126   0.29520   0.29900   0.30386
 Alpha virt. eigenvalues --    0.30861   0.31475   0.31818   0.32425   0.33250
 Alpha virt. eigenvalues --    0.33707   0.34140   0.34534   0.34940   0.35078
 Alpha virt. eigenvalues --    0.35728   0.36161   0.36518   0.37068   0.37384
 Alpha virt. eigenvalues --    0.37617   0.38172   0.38867   0.39297   0.39835
 Alpha virt. eigenvalues --    0.40224   0.40675   0.40724   0.40986   0.41844
 Alpha virt. eigenvalues --    0.42250   0.42418   0.43055   0.43713   0.43989
 Alpha virt. eigenvalues --    0.44152   0.44887   0.45663   0.46175   0.46818
 Alpha virt. eigenvalues --    0.47313   0.47715   0.48381   0.50060   0.50691
 Alpha virt. eigenvalues --    0.51492   0.52662   0.53136   0.54099   0.54218
 Alpha virt. eigenvalues --    0.55252   0.55436   0.56571   0.57172   0.57682
 Alpha virt. eigenvalues --    0.58986   0.60171   0.60710   0.61904   0.62318
 Alpha virt. eigenvalues --    0.63406   0.65012   0.65934   0.67435   0.67521
 Alpha virt. eigenvalues --    0.68911   0.70166   0.70968   0.71856   0.72013
 Alpha virt. eigenvalues --    0.72656   0.73616   0.73749   0.74503   0.74822
 Alpha virt. eigenvalues --    0.74877   0.75547   0.75766   0.76406   0.76635
 Alpha virt. eigenvalues --    0.76878   0.77540   0.77740   0.78562   0.79542
 Alpha virt. eigenvalues --    0.80006   0.80297   0.80525   0.81633   0.82187
 Alpha virt. eigenvalues --    0.82916   0.84220   0.84436   0.84602   0.86110
 Alpha virt. eigenvalues --    0.87218   0.87858   0.88306   0.89496   0.90558
 Alpha virt. eigenvalues --    0.91087   0.92516   0.93166   0.93705   0.95115
 Alpha virt. eigenvalues --    0.95719   0.96805   0.97658   0.98242   0.98462
 Alpha virt. eigenvalues --    0.98924   0.99952   1.00263   1.01422   1.02160
 Alpha virt. eigenvalues --    1.02275   1.03095   1.03434   1.04651   1.05463
 Alpha virt. eigenvalues --    1.07444   1.07923   1.08412   1.09610   1.10468
 Alpha virt. eigenvalues --    1.12299   1.12821   1.13263   1.14088   1.15972
 Alpha virt. eigenvalues --    1.17983   1.21618   1.25119   2.07923   2.08546
 Alpha virt. eigenvalues --    2.09876   2.12093   2.72709   2.73611   7.13577
 Alpha virt. eigenvalues --    8.56963   9.81326  10.06093  14.47971
          Condensed to atoms (all electrons):
               1          2          3          4          5          6
     1  Mo  13.772441   0.269881   0.221299   0.102085   0.249065  -0.394905
     2  S    0.269881  15.551027   0.005837   0.007438  -0.017689  -0.039003
     3  S    0.221299   0.005837  15.690047  -0.031255  -0.003751   0.210042
     4  S    0.102085   0.007438  -0.031255  15.431902  -0.029145   0.186191
     5  S    0.249065  -0.017689  -0.003751  -0.029145  15.664689  -0.011716
     6  Mo  -0.394905  -0.039003   0.210042   0.186191  -0.011716  14.137088
     7  S   -0.015879  -0.000060   0.004243   0.002787   0.000068   0.226627
     8  S   -0.018744  -0.029021   0.008558   0.001759  -0.000186   0.205919
     9  Mo  -0.003833   0.214899  -0.026036   0.070431  -0.005483  -0.261463
    10  S    0.001357  -0.003386  -0.000241  -0.006577  -0.000008  -0.094335
    11  S   -0.012517  -0.035675  -0.000120  -0.024727  -0.001653  -0.013584
    12  Mo  -0.089147  -0.043634  -0.000707  -0.007931   0.212009   0.019607
    13  Mo   0.010666   0.000509  -0.018827  -0.014915   0.000106  -0.240097
    14  S   -0.011147  -0.000026  -0.000002  -0.000261   0.003489   0.000360
    15  S   -0.009656  -0.000274   0.000001  -0.004934  -0.000226  -0.000622
    16  S   -0.001427   0.000001   0.000021   0.000001  -0.000000   0.002763
    17  H    0.000319  -0.000012  -0.000010  -0.000001   0.000000   0.004111
    18  S   -0.000746  -0.000001  -0.000004   0.000196   0.000000  -0.015091
    19  H    0.000121   0.000000   0.000000  -0.000002  -0.000000   0.002685
               7          8          9         10         11         12
     1  Mo  -0.015879  -0.018744  -0.003833   0.001357  -0.012517  -0.089147
     2  S   -0.000060  -0.029021   0.214899  -0.003386  -0.035675  -0.043634
     3  S    0.004243   0.008558  -0.026036  -0.000241  -0.000120  -0.000707
     4  S    0.002787   0.001759   0.070431  -0.006577  -0.024727  -0.007931
     5  S    0.000068  -0.000186  -0.005483  -0.000008  -0.001653   0.212009
     6  Mo   0.226627   0.205919  -0.261463  -0.094335  -0.013584   0.019607
     7  S   15.667368  -0.019693  -0.018405   0.005475   0.000071   0.000234
     8  S   -0.019693  15.666703   0.089195  -0.061599  -0.007303   0.001228
     9  Mo  -0.018405   0.089195  14.103496   0.179265   0.252306  -0.091106
    10  S    0.005475  -0.061599   0.179265  15.685890  -0.021611   0.003122
    11  S    0.000071  -0.007303   0.252306  -0.021611  15.612025   0.241016
    12  Mo   0.000234   0.001228  -0.091106   0.003122   0.241016  12.799683
    13  Mo   0.201878   0.081532  -0.071339   0.319202   0.002897  -0.006529
    14  S   -0.000000  -0.000001  -0.009689  -0.000000   0.002636   0.392153
    15  S    0.000001  -0.000001  -0.008178   0.000129  -0.003365   0.409905
    16  S    0.003963  -0.038332  -0.001970   0.011447   0.000003  -0.000025
    17  H   -0.000077  -0.001869   0.002422  -0.000424  -0.000001   0.000005
    18  S   -0.038472  -0.007756  -0.007153   0.000204   0.000002  -0.000150
    19  H    0.001574   0.000254  -0.002369  -0.001204  -0.000000  -0.000002
              13         14         15         16         17         18
     1  Mo   0.010666  -0.011147  -0.009656  -0.001427   0.000319  -0.000746
     2  S    0.000509  -0.000026  -0.000274   0.000001  -0.000012  -0.000001
     3  S   -0.018827  -0.000002   0.000001   0.000021  -0.000010  -0.000004
     4  S   -0.014915  -0.000261  -0.004934   0.000001  -0.000001   0.000196
     5  S    0.000106   0.003489  -0.000226  -0.000000   0.000000   0.000000
     6  Mo  -0.240097   0.000360  -0.000622   0.002763   0.004111  -0.015091
     7  S    0.201878  -0.000000   0.000001   0.003963  -0.000077  -0.038472
     8  S    0.081532  -0.000001  -0.000001  -0.038332  -0.001869  -0.007756
     9  Mo  -0.071339  -0.009689  -0.008178  -0.001970   0.002422  -0.007153
    10  S    0.319202  -0.000000   0.000129   0.011447  -0.000424   0.000204
    11  S    0.002897   0.002636  -0.003365   0.000003  -0.000001   0.000002
    12  Mo  -0.006529   0.392153   0.409905  -0.000025   0.000005  -0.000150
    13  Mo  13.389151   0.000010  -0.000052   0.302240  -0.039235   0.312359
    14  S    0.000010  15.724848  -0.037208  -0.000000  -0.000000   0.000000
    15  S   -0.000052  -0.037208  15.721748   0.000000  -0.000000   0.000000
    16  S    0.302240  -0.000000   0.000000  15.534670   0.265498  -0.047585
    17  H   -0.039235  -0.000000  -0.000000   0.265498   0.695806   0.002081
    18  S    0.312359   0.000000   0.000000  -0.047585   0.002081  15.520062
    19  H   -0.038669  -0.000000   0.000000   0.000010   0.000106   0.267093
              19
     1  Mo   0.000121
     2  S    0.000000
     3  S    0.000000
     4  S   -0.000002
     5  S   -0.000000
     6  Mo   0.002685
     7  S    0.001574
     8  S    0.000254
     9  Mo  -0.002369
    10  S   -0.001204
    11  S   -0.000000
    12  Mo  -0.000002
    13  Mo  -0.038669
    14  S   -0.000000
    15  S    0.000000
    16  S    0.000010
    17  H    0.000106
    18  S    0.267093
    19  H    0.681538
 Mulliken charges:
               1
     1  Mo  -0.069234
     2  S    0.119187
     3  S   -0.059096
     4  S    0.316958
     5  S   -0.059571
     6  Mo   0.075422
     7  S   -0.021703
     8  S    0.129358
     9  Mo  -0.404990
    10  S   -0.016706
    11  S    0.009599
    12  Mo   0.160269
    13  Mo  -0.190887
    14  S   -0.065163
    15  S   -0.067269
    16  S   -0.031279
    17  H    0.071280
    18  S    0.014961
    19  H    0.088864
 Sum of Mulliken charges =  -0.00000
 Mulliken charges with hydrogens summed into heavy atoms:
               1
     1  Mo  -0.069234
     2  S    0.119187
     3  S   -0.059096
     4  S    0.316958
     5  S   -0.059571
     6  Mo   0.075422
     7  S   -0.021703
     8  S    0.129358
     9  Mo  -0.404990
    10  S   -0.016706
    11  S    0.009599
    12  Mo   0.160269
    13  Mo  -0.190887
    14  S   -0.065163
    15  S   -0.067269
    16  S    0.040000
    18  S    0.103825
 Electronic spatial extent (au):  <R**2>=         114025.1175
 Charge=             -0.0000 electrons
 Dipole moment (field-independent basis, Debye):
    X=             -0.1159    Y=              0.0357    Z=              2.3991  Tot=              2.4021
 Quadrupole moment (field-independent basis, Debye-Ang):
   XX=           -282.6976   YY=           -269.8970   ZZ=           -230.8127
   XY=              0.3505   XZ=             -7.1265   YZ=              6.9156
 Traceless Quadrupole moment (field-independent basis, Debye-Ang):
   XX=            -21.5619   YY=             -8.7612   ZZ=             30.3231
   XY=              0.3505   XZ=             -7.1265   YZ=              6.9156
 Octapole moment (field-independent basis, Debye-Ang**2):
  XXX=             25.7065  YYY=          -2375.1698  ZZZ=          -7622.8710  XYY=             -0.9705
  XXY=           -830.5870  XXZ=          -2804.9802  XZZ=           -105.8492  YZZ=           -678.9350
  YYZ=          -2674.2785  XYZ=            -14.9883
 Hexadecapole moment (field-independent basis, Debye-Ang**3):
 XXXX=          -9690.9451 YYYY=         -17327.0666 ZZZZ=        -163764.6968 XXXY=           1073.0835
 XXXZ=          -1949.8867 YYYX=            930.9329 YYYZ=         -22543.2846 ZZZX=          -3311.8502
 ZZZY=         -21390.3470 XXYY=          -4625.8306 XXZZ=         -30710.6516 YYZZ=         -30614.4077
 XXYZ=          -7852.3557 YYXZ=           -793.8913 ZZXY=             44.2709
 N-N= 4.228198884789D+03 E-N=-2.050173427906D+04  KE= 4.881186864091D+03
   1 Symmetry operations used in ECPInt.
 ECPInt:  NShTT=    5671 NPrTT=   45317 LenC2=    5065 LenP2D=   25821.
 LDataN:  DoStor=T MaxTD1= 6 Len=  172
 Calling FoFJK, ICntrl=      2127 FMM=F ISym2X=0 I1Cent= 0 IOpClX= 0 NMat=1 NMatS=1 NMatT=0.
 Defaulting to unpruned grid for atomic number  42.
 Defaulting to unpruned grid for atomic number  42.
 Defaulting to unpruned grid for atomic number  42.
 Defaulting to unpruned grid for atomic number  42.
 Defaulting to unpruned grid for atomic number  42.
 Defaulting to unpruned grid for atomic number  42.
 Defaulting to unpruned grid for atomic number  42.
 Defaulting to unpruned grid for atomic number  42.
 Defaulting to unpruned grid for atomic number  42.
 Defaulting to unpruned grid for atomic number  42.
 Defaulting to unpruned grid for atomic number  42.
 Defaulting to unpruned grid for atomic number  42.
 Defaulting to unpruned grid for atomic number  42.
 Defaulting to unpruned grid for atomic number  42.
 Defaulting to unpruned grid for atomic number  42.
 Defaulting to unpruned grid for atomic number  42.
 Defaulting to unpruned grid for atomic number  42.
 Defaulting to unpruned grid for atomic number  42.
 Defaulting to unpruned grid for atomic number  42.
 Defaulting to unpruned grid for atomic number  42.
 Defaulting to unpruned grid for atomic number  42.
 Defaulting to unpruned grid for atomic number  42.
 Defaulting to unpruned grid for atomic number  42.
 Defaulting to unpruned grid for atomic number  42.
 Defaulting to unpruned grid for atomic number  42.
 Defaulting to unpruned grid for atomic number  42.
 Defaulting to unpruned grid for atomic number  42.
 Defaulting to unpruned grid for atomic number  42.
 Defaulting to unpruned grid for atomic number  42.
 Defaulting to unpruned grid for atomic number  42.
 Defaulting to unpruned grid for atomic number  42.
 Defaulting to unpruned grid for atomic number  42.
 Defaulting to unpruned grid for atomic number  42.
 Defaulting to unpruned grid for atomic number  42.
 Defaulting to unpruned grid for atomic number  42.
 Defaulting to unpruned grid for atomic number  42.
 Defaulting to unpruned grid for atomic number  42.
 Defaulting to unpruned grid for atomic number  42.
 Defaulting to unpruned grid for atomic number  42.
 Defaulting to unpruned grid for atomic number  42.
 Defaulting to unpruned grid for atomic number  42.
 Defaulting to unpruned grid for atomic number  42.
 Defaulting to unpruned grid for atomic number  42.
 Defaulting to unpruned grid for atomic number  42.
 Defaulting to unpruned grid for atomic number  42.
 Defaulting to unpruned grid for atomic number  42.
 -------------------------------------------------------------------
 Center     Atomic                   Forces (Hartrees/Bohr)
 Number     Number              X              Y              Z
 -------------------------------------------------------------------
      1       42           0.002918468   -0.002563552    0.001078781
      2       16           0.000002354    0.000809566    0.000514335
      3       16           0.000238828   -0.000188319   -0.000914578
      4       16          -0.000856599    0.000138545    0.000432931
      5       16          -0.002533138    0.001890541   -0.000987414
      6       42          -0.001928356   -0.000483556   -0.000834797
      7       16           0.000111912    0.000232556    0.000804762
      8       16          -0.000057337    0.000123378   -0.000335538
      9       42           0.003691771   -0.000995734    0.000378107
     10       16          -0.000407463    0.000029674   -0.000212394
     11       16          -0.002567660    0.001239328   -0.000223450
     12       42           0.049820194   -0.015566355   -0.000854261
     13       42           0.000522540    0.000493059   -0.000215935
     14       16          -0.021945800    0.013558011    0.007626143
     15       16          -0.027037898    0.001346743   -0.006280224
     16       16           0.000032453   -0.000100821    0.000005226
     17        1           0.000005220    0.000005936   -0.000017438
     18       16          -0.000013901    0.000043522    0.000024172
     19        1           0.000004412   -0.000012521    0.000011571
 -------------------------------------------------------------------
 Cartesian Forces:  Max     0.049820194 RMS     0.008665546

 GradGradGradGradGradGradGradGradGradGradGradGradGradGradGradGradGradGrad
 Berny optimization.
 FormGI is forming the generalized inverse of G from B-inverse, IUseBI=4.
 Internal  Forces:  Max     0.049060649 RMS     0.005497970
 Search for a local minimum.
 Step number   1 out of a maximum of  114
 All quantities printed in internal units (Hartrees-Bohrs-Radians)
 Mixed Optimization -- RFO/linear search
 Second derivative matrix not updated -- first step.
 ITU=  0
     Eigenvalues ---    0.00230   0.00230   0.00248   0.02274   0.02579
     Eigenvalues ---    0.02700   0.03272   0.03815   0.04192   0.04613
     Eigenvalues ---    0.05468   0.05668   0.06136   0.06957   0.08144
     Eigenvalues ---    0.08204   0.08567   0.09417   0.09866   0.10467
     Eigenvalues ---    0.11137   0.11491   0.11987   0.12323   0.12591
     Eigenvalues ---    0.12625   0.12697   0.12838   0.13203   0.13337
     Eigenvalues ---    0.13452   0.13686   0.13875   0.14377   0.14722
     Eigenvalues ---    0.15457   0.15605   0.15857   0.16000   0.16000
     Eigenvalues ---    0.16814   0.17311   0.18618   0.19362   0.22449
     Eigenvalues ---    0.22579   0.22965   0.23174   0.23805   0.25371
     Eigenvalues ---    0.25607
 RFO step:  Lambda=-3.19290923D-02 EMin= 2.30000000D-03
 Linear search not attempted -- first point.
 Maximum step size (   0.300) exceeded in Quadratic search.
    -- Step size scaled by   0.933
 Iteration  1 RMS(Cart)=  0.04830350 RMS(Int)=  0.00539644
 Iteration  2 RMS(Cart)=  0.00823658 RMS(Int)=  0.00060048
 Iteration  3 RMS(Cart)=  0.00010585 RMS(Int)=  0.00059368
 Iteration  4 RMS(Cart)=  0.00000008 RMS(Int)=  0.00059368
 Variable       Old X    -DE/DX   Delta X   Delta X   Delta X     New X
                                 (Linear)    (Quad)   (Total)
    R1        4.28172   0.00061   0.00000   0.00229   0.00217   4.28389
    R2        4.40612   0.00027   0.00000   0.00195   0.00211   4.40823
    R3        4.58782  -0.00031   0.00000  -0.00214  -0.00221   4.58560
    R4        4.34923  -0.00282   0.00000  -0.01645  -0.01676   4.33247
    R5        5.38519   0.00082   0.00000   0.00612   0.00608   5.39127
    R6        4.99898   0.00012   0.00000  -0.00575  -0.00641   4.99256
    R7        4.49523   0.00033   0.00000   0.00136   0.00130   4.49653
    R8        4.47938  -0.00070   0.00000  -0.00348  -0.00347   4.47591
    R9        4.43920  -0.00038   0.00000  -0.00106  -0.00109   4.43811
   R10        4.46074   0.00008   0.00000  -0.00051  -0.00055   4.46019
   R11        4.54046   0.00000   0.00000   0.00729   0.00798   4.54844
   R12        4.25185  -0.00069   0.00000  -0.00326  -0.00326   4.24859
   R13        4.42164   0.00010   0.00000   0.00042   0.00041   4.42205
   R14        5.23790   0.00055   0.00000   0.00350   0.00347   5.24137
   R15        5.26249   0.00028   0.00000   0.00144   0.00137   5.26386
   R16        4.63059   0.00003   0.00000   0.00048   0.00049   4.63108
   R17        4.67972   0.00019   0.00000   0.00172   0.00179   4.68151
   R18        4.69001  -0.00029   0.00000  -0.00083  -0.00079   4.68921
   R19        5.04238   0.00026   0.00000   0.00242   0.00247   5.04484
   R20        4.44708  -0.00206   0.00000  -0.01407  -0.01432   4.43276
   R21        4.17259  -0.00013   0.00000  -0.00077  -0.00074   4.17185
   R22        4.47234   0.00065   0.00000   0.01038   0.01107   4.48341
   R23        4.05487  -0.00983   0.00000  -0.03398  -0.03398   4.02090
   R24        4.07231  -0.01201   0.00000  -0.04251  -0.04251   4.02980
   R25        4.51124  -0.00010   0.00000  -0.00058  -0.00058   4.51065
   R26        4.47573  -0.00003   0.00000  -0.00020  -0.00020   4.47554
   R27        2.55189  -0.00001   0.00000  -0.00005  -0.00005   2.55184
   R28        2.55773  -0.00002   0.00000  -0.00006  -0.00006   2.55768
    A1        1.84740   0.00017   0.00000   0.00055   0.00053   1.84793
    A2        1.95577   0.00008   0.00000   0.00223   0.00241   1.95818
    A3        1.85340  -0.00026   0.00000  -0.00232  -0.00245   1.85095
    A4        1.74278  -0.00005   0.00000  -0.00020  -0.00011   1.74267
    A5        1.73653  -0.00057   0.00000  -0.00382  -0.00384   1.73269
    A6        2.38125   0.00010   0.00000   0.00212   0.00227   2.38352
    A7        1.85653  -0.00012   0.00000   0.00016   0.00022   1.85675
    A8        1.65811   0.00051   0.00000   0.00190   0.00179   1.65991
    A9        2.51973   0.00041   0.00000   0.00225   0.00221   2.52194
   A10        2.01727   0.00004   0.00000  -0.00228  -0.00249   2.01478
   A11        1.55694   0.00033   0.00000   0.01372   0.01480   1.57174
   A12        2.63843   0.00007   0.00000   0.00060   0.00059   2.63902
   A13        1.62055  -0.00000   0.00000  -0.00127  -0.00135   1.61919
   A14        2.28887  -0.00016   0.00000  -0.00224  -0.00232   2.28655
   A15        1.75695  -0.00030   0.00000  -0.00273  -0.00273   1.75422
   A16        2.37380  -0.00009   0.00000   0.00028   0.00033   2.37412
   A17        1.72641   0.00036   0.00000   0.00193   0.00187   1.72828
   A18        1.77074   0.00001   0.00000  -0.00102  -0.00110   1.76964
   A19        2.68882   0.00028   0.00000   0.00214   0.00211   2.69093
   A20        1.73345   0.00019   0.00000   0.00101   0.00098   1.73443
   A21        1.93577  -0.00008   0.00000  -0.00068  -0.00067   1.93510
   A22        1.70616   0.00003   0.00000  -0.00001  -0.00001   1.70616
   A23        1.91611  -0.00013   0.00000  -0.00043  -0.00040   1.91572
   A24        2.12843   0.00005   0.00000   0.00041   0.00044   2.12887
   A25        1.30939  -0.00004   0.00000  -0.00003   0.00001   1.30941
   A26        1.50208   0.00012   0.00000   0.00066   0.00068   1.50276
   A27        1.65704   0.00014   0.00000   0.00122   0.00126   1.65829
   A28        2.50872   0.00000   0.00000   0.00047   0.00048   2.50920
   A29        1.88846   0.00027   0.00000   0.00041   0.00020   1.88867
   A30        1.92818   0.00004   0.00000   0.00192   0.00206   1.93024
   A31        1.73252   0.00008   0.00000   0.00072   0.00079   1.73331
   A32        1.52719   0.00009   0.00000  -0.00078  -0.00079   1.52640
   A33        2.80917  -0.00011   0.00000  -0.00194  -0.00202   2.80716
   A34        1.72224  -0.00007   0.00000   0.00038   0.00031   1.72256
   A35        1.84913  -0.00023   0.00000  -0.00117  -0.00118   1.84795
   A36        1.53585   0.00005   0.00000  -0.00031  -0.00037   1.53548
   A37        1.65075   0.00066   0.00000   0.00274   0.00260   1.65334
   A38        1.53229  -0.00007   0.00000  -0.00085  -0.00089   1.53140
   A39        2.57579   0.00044   0.00000   0.00182   0.00170   2.57749
   A40        1.44488  -0.00016   0.00000  -0.00085  -0.00087   1.44401
   A41        2.70563  -0.00047   0.00000  -0.00191  -0.00174   2.70389
   A42        1.46415  -0.00005   0.00000  -0.00003   0.00009   1.46424
   A43        1.52434   0.00006   0.00000   0.00045   0.00048   1.52483
   A44        1.61501  -0.00003   0.00000   0.01155   0.01262   1.62763
   A45        2.33117  -0.00060   0.00000  -0.02319  -0.02493   2.30624
   A46        1.81909  -0.00654   0.00000  -0.03047  -0.03341   1.78568
   A47        1.87135  -0.00728   0.00000  -0.03671  -0.04046   1.83089
   A48        1.84592  -0.00827   0.00000  -0.03727  -0.04009   1.80583
   A49        1.85541  -0.00601   0.00000  -0.03075  -0.03460   1.82081
   A50        1.60502   0.04906   0.00000   0.28263   0.28307   1.88810
   A51        1.70149   0.00005   0.00000   0.00011   0.00007   1.70156
   A52        2.23087   0.00005   0.00000   0.00014   0.00014   2.23101
   A53        2.30625  -0.00003   0.00000  -0.00020  -0.00020   2.30606
   A54        1.73075  -0.00020   0.00000  -0.00103  -0.00101   1.72974
   A55        2.03012   0.00009   0.00000   0.00001  -0.00004   2.03008
   A56        2.28275  -0.00001   0.00000   0.00005   0.00008   2.28283
   A57        1.42663   0.00017   0.00000   0.00074   0.00074   1.42738
   A58        1.62172   0.00001   0.00000   0.00027   0.00025   1.62197
   A59        1.45469   0.00005   0.00000   0.00013   0.00013   1.45483
   A60        2.80696  -0.00002   0.00000  -0.00025  -0.00026   2.80670
   A61        1.96485  -0.00006   0.00000   0.00003   0.00005   1.96489
   A62        1.81349   0.00000   0.00000   0.00008   0.00011   1.81360
   A63        1.42675  -0.00004   0.00000  -0.00016  -0.00016   1.42658
   A64        1.80972   0.00002   0.00000   0.00010   0.00010   1.80981
   A65        1.76568  -0.00002   0.00000  -0.00008  -0.00008   1.76560
    D1       -1.06049  -0.00006   0.00000  -0.00160  -0.00175  -1.06224
    D2        2.85108  -0.00009   0.00000  -0.00172  -0.00185   2.84923
    D3        0.94150   0.00015   0.00000   0.00093   0.00090   0.94240
    D4        1.30130  -0.00004   0.00000  -0.00328  -0.00358   1.29772
    D5        0.00464  -0.00015   0.00000  -0.00154  -0.00165   0.00299
    D6        2.42767  -0.00005   0.00000  -0.00116  -0.00123   2.42644
    D7       -0.05936   0.00021   0.00000   0.00264   0.00271  -0.05665
    D8        0.76663   0.00014   0.00000   0.00217   0.00224   0.76887
    D9        0.04117  -0.00000   0.00000   0.00105   0.00116   0.04233
   D10       -2.44586   0.00025   0.00000   0.00485   0.00510  -2.44076
   D11       -1.61987   0.00018   0.00000   0.00438   0.00463  -1.61524
   D12        0.26957   0.00026   0.00000   0.00246   0.00246   0.27204
   D13       -1.20583   0.00033   0.00000   0.00226   0.00225  -1.20358
   D14       -3.03840   0.00002   0.00000   0.00137   0.00143  -3.03697
   D15       -3.08251   0.00033   0.00000   0.00280   0.00282  -3.07969
   D16        1.72527   0.00040   0.00000   0.00260   0.00261   1.72788
   D17       -0.10731   0.00009   0.00000   0.00171   0.00179  -0.10551
   D18        1.23391  -0.00005   0.00000  -0.00199  -0.00216   1.23175
   D19        0.12913   0.00006   0.00000  -0.00221  -0.00219   0.12693
   D20        2.37881  -0.02449   0.00000  -0.13665  -0.13552   2.24329
   D21       -2.21778   0.02448   0.00000   0.14938   0.14774  -2.07004
   D22       -0.23898  -0.00039   0.00000  -0.00466  -0.00473  -0.24371
   D23       -3.07007  -0.00027   0.00000  -0.00249  -0.00248  -3.07255
   D24        1.90469   0.00016   0.00000  -0.00019  -0.00040   1.90429
   D25        3.03301  -0.00021   0.00000  -0.00262  -0.00266   3.03035
   D26        0.20193  -0.00009   0.00000  -0.00045  -0.00041   0.20152
   D27       -1.10650   0.00034   0.00000   0.00185   0.00167  -1.10483
   D28        2.44152  -0.00010   0.00000  -0.00224  -0.00233   2.43920
   D29       -0.38956   0.00003   0.00000  -0.00007  -0.00008  -0.38964
   D30       -1.69799   0.00045   0.00000   0.00223   0.00200  -1.69598
   D31        0.47059  -0.00004   0.00000   0.00041   0.00044   0.47103
   D32       -1.73403  -0.00005   0.00000   0.00015   0.00019  -1.73384
   D33        2.50345  -0.00000   0.00000   0.00053   0.00056   2.50402
   D34        1.97165  -0.00017   0.00000  -0.00294  -0.00303   1.96862
   D35       -0.23297  -0.00017   0.00000  -0.00320  -0.00327  -0.23625
   D36       -2.27867  -0.00013   0.00000  -0.00282  -0.00290  -2.28158
   D37       -0.38434   0.00008   0.00000   0.00103   0.00102  -0.38332
   D38       -2.58896   0.00007   0.00000   0.00077   0.00077  -2.58819
   D39        1.64852   0.00012   0.00000   0.00115   0.00114   1.64967
   D40        0.48087   0.00001   0.00000   0.00042   0.00043   0.48131
   D41       -1.72375   0.00001   0.00000   0.00017   0.00018  -1.72356
   D42        2.51374   0.00005   0.00000   0.00054   0.00055   2.51429
   D43       -2.12081  -0.00004   0.00000  -0.00101  -0.00103  -2.12184
   D44       -3.04272  -0.00013   0.00000  -0.00193  -0.00201  -3.04473
   D45       -1.11253  -0.00008   0.00000  -0.00023  -0.00017  -1.11269
   D46        0.38541  -0.00004   0.00000  -0.00063  -0.00064   0.38477
   D47        1.40256   0.00010   0.00000  -0.00011  -0.00009   1.40247
   D48        1.57819   0.00009   0.00000   0.00042   0.00038   1.57857
   D49       -0.46822   0.00002   0.00000   0.00050   0.00051  -0.46771
   D50       -2.42999   0.00008   0.00000   0.00050   0.00049  -2.42950
   D51       -3.11330   0.00001   0.00000  -0.00032  -0.00033  -3.11363
   D52        1.10935   0.00009   0.00000   0.00154   0.00158   1.11093
   D53       -1.48136   0.00009   0.00000   0.00284   0.00283  -1.47854
   D54        1.42053  -0.00017   0.00000  -0.00037  -0.00036   1.42017
   D55        0.48162   0.00000   0.00000   0.00031   0.00032   0.48193
   D56       -0.43567   0.00006   0.00000   0.00071   0.00072  -0.43495
   D57        3.07554   0.00049   0.00000   0.00243   0.00229   3.07783
   D58        0.13539  -0.00001   0.00000   0.00004   0.00012   0.13551
   D59        1.07968   0.00006   0.00000   0.00136   0.00150   1.08118
   D60       -0.86716  -0.00010   0.00000  -0.00119  -0.00116  -0.86832
   D61       -1.06650  -0.00052   0.00000  -0.00318  -0.00293  -1.06944
   D62        2.87555  -0.00019   0.00000  -0.00093  -0.00085   2.87469
   D63       -2.39412  -0.00007   0.00000  -0.00058  -0.00050  -2.39462
   D64       -0.48326  -0.00003   0.00000  -0.00051  -0.00051  -0.48378
   D65       -1.34377   0.00018   0.00000   0.00052   0.00051  -1.34326
   D66        0.43157  -0.00002   0.00000  -0.00050  -0.00050   0.43107
   D67        1.89775   0.00003   0.00000  -0.00024  -0.00025   1.89749
   D68       -2.87189  -0.00003   0.00000  -0.00037  -0.00038  -2.87227
   D69       -0.19265   0.00001   0.00000   0.00310   0.00311  -0.18954
   D70       -2.43335   0.02415   0.00000   0.13652   0.13510  -2.29825
   D71        2.15912  -0.02468   0.00000  -0.14943  -0.14807   2.01105
   D72        0.67930   0.00008   0.00000   0.00055   0.00053   0.67983
   D73        1.84325  -0.00017   0.00000  -0.00068  -0.00066   1.84259
   D74        0.16107   0.00006   0.00000   0.00057   0.00056   0.16163
   D75       -1.41673   0.00002   0.00000   0.00021   0.00023  -1.41650
   D76        3.09157   0.00003   0.00000   0.00019   0.00018   3.09175
   D77        2.97189  -0.00001   0.00000  -0.00019  -0.00019   2.97170
   D78        2.94933  -0.00008   0.00000  -0.00023  -0.00020   2.94913
   D79        1.30593   0.00006   0.00000   0.00078   0.00077   1.30670
   D80       -1.32346   0.00005   0.00000  -0.00007  -0.00009  -1.32355
   D81        0.61963  -0.00002   0.00000  -0.00008  -0.00008   0.61954
         Item               Value     Threshold  Converged?
 Maximum Force            0.049061     0.000450     NO 
 RMS     Force            0.005498     0.000300     NO 
 Maximum Displacement     0.436582     0.001800     NO 
 RMS     Displacement     0.055691     0.001200     NO 
 Predicted change in Energy=-1.844264D-02
 GradGradGradGradGradGradGradGradGradGradGradGradGradGradGradGradGradGrad

                          Input orientation:                          
 ---------------------------------------------------------------------
 Center     Atomic      Atomic             Coordinates (Angstroms)
 Number     Number       Type             X           Y           Z
 ---------------------------------------------------------------------
      1         42           0       -0.078421    1.968841   12.066299
      2         16           0        0.253172    4.155380   12.564398
      3         16           0       -2.385867    1.637368   12.152759
      4         16           0        0.296710    1.497022    9.715759
      5         16           0        1.791132    0.861490   12.797569
      6         42           0       -1.924706    2.234704    9.907645
      7         16           0       -2.688539    1.627397    7.882209
      8         16           0       -2.014450    4.563222   10.121566
      9         42           0        0.341897    3.803902   10.212712
     10         16           0        0.240410    4.275096    7.586968
     11         16           0        2.657585    4.021916    9.908689
     12         42           0        3.151529    2.163690   11.298602
     13         42           0       -1.940051    3.955102    7.716960
     14         16           0        4.671822    2.902043   12.591249
     15         16           0        4.033510    0.738387    9.980239
     16         16           0       -3.180523    5.977132    7.452232
     17          1           0       -3.127095    6.547403    8.675120
     18         16           0       -2.606535    3.653120    5.464472
     19          1           0       -2.565054    4.925924    5.006086
 ---------------------------------------------------------------------
                    Distance matrix (angstroms):
                    1          2          3          4          5
     1  Mo   0.000000
     2  S    2.266939   0.000000
     3  S    2.332736   3.670743   0.000000
     4  S    2.426597   3.896602   3.626966   0.000000
     5  S    2.292643   3.642719   4.297102   3.483498   0.000000
     6  Mo   2.852935   3.935795   2.368547   2.348549   4.903553
     7  S    4.943268   6.080070   4.281274   3.505797   6.694388
     8  S    3.776375   3.357956   3.581106   3.861052   5.945273
     9  Mo   2.641950   2.379461   3.987273   2.360233   4.176069
    10  S    5.048254   4.978885   5.890788   3.500374   6.419331
    11  S    4.044271   3.584941   6.013179   3.462087   4.368599
    12  Mo   3.325643   3.737585   5.627553   3.331641   2.406929
    13  Mo   5.131047   5.324283   5.024635   3.878203   7.021734
    14  S    4.869419   4.593043   7.183498   5.420713   3.536212
    15  S    4.772173   5.713552   6.836403   3.822192   3.602882
    16  S    6.854126   6.422093   6.446703   6.106233   8.914021
    17  H    6.462023   5.681061   6.062329   6.189646   8.573981
    18  S    7.267205   7.670667   6.988929   5.581311   8.994831
    19  H    8.048248   8.103346   7.869030   6.490615   9.808323
                    6          7          8          9         10
     6  Mo   0.000000
     7  S    2.248255   0.000000
     8  S    2.340046   3.753423   0.000000
     9  Mo   2.773615   4.399086   2.477347   0.000000
    10  S    3.773124   3.959321   3.404643   2.669617   0.000000
    11  S    4.918488   6.198499   4.708104   2.345713   3.361134
    12  Mo   5.263835   6.787175   5.816400   3.429793   5.168063
    13  Mo   2.785517   2.450664   2.481426   3.385104   2.207647
    14  S    7.152709   8.830327   7.318817   5.021855   6.823892
    15  S    6.143661   7.097746   7.157315   4.804105   5.711713
    16  S    4.648859   4.398536   3.237933   4.975000   3.823331
    17  H    4.643731   5.002750   2.695767   4.682403   4.205656
    18  S    4.713659   3.155271   4.781984   5.591223   3.605127
    19  H    5.628320   4.378083   5.157795   6.067805   3.867191
                   11         12         13         14         15
    11  S    0.000000
    12  Mo   2.372518   0.000000
    13  Mo   5.093761   6.477770   0.000000
    14  S    3.536579   2.127767   8.281575   0.000000
    15  S    3.560878   2.132477   7.152141   3.450540   0.000000
    16  S    6.628768   8.332573   2.386934   9.875474   9.267013
    17  H    6.431353   8.094487   3.007851   9.457685   9.312479
    18  S    6.899134   8.331313   2.368353  10.214184   8.542718
    19  H    7.220022   8.938961   2.946517  10.677227   9.263839
                   16         17         18         19
    16  S    0.000000
    17  H    1.350377   0.000000
    18  S    3.111540   4.353862   0.000000
    19  H    2.732667   4.050543   1.353465   0.000000
 Symmetry turned off by external request.
 Stoichiometry    H2Mo5S12
 Framework group  C1[X(H2Mo5S12)]
 Deg. of freedom    51
 Full point group                 C1      NOp   1
 Rotational constants (GHZ):           0.1895288           0.0706756           0.0631781
 Basis read from rwf:  (5D, 7F)
 Pseudo-potential data read from rwf file.
   336 basis functions,   883 primitive gaussians,   358 cartesian basis functions
   132 alpha electrons      132 beta electrons
       nuclear repulsion energy      4239.7548260937 Hartrees.
 NAtoms=   19 NActive=   19 NUniq=   19 SFac= 1.00D+00 NAtFMM=   60 NAOKFM=F Big=F
 Integral buffers will be    131072 words long.
 Raffenetti 2 integral format.
 Two-electron integral symmetry is turned off.
 One-electron integrals computed using PRISM.
   1 Symmetry operations used in ECPInt.
[...]
 .00033654,0.00053656,0.00248042,-0.02382546,0.13506468,0.01512231,-0.0
 1238811,-0.09182959,-0.00011875,-0.00315668,0.00123635,0.00388727,-0.0
 0071076,-0.00228967,-0.01715287,0.03264535,0.11452493,-0.06971469,0.03
 988537,-0.03004070,0.00245095,0.00865908,0.00163778,-0.00362899,-0.002
 10100,-0.00146146,-0.00235652,-0.00005055,-0.00251366,0.11028529,0.038
 35125,-0.04724539,0.02423067,0.00717627,-0.00718136,0.00402255,0.00534
 494,0.00331374,0.00051105,0.00065241,0.00120080,0.00245052,-0.03190391
 ,0.08245966,-0.03654902,0.02533653,-0.04207851,0.00244647,0.00277167,0
 .00375672,-0.00393251,-0.00350575,0.00019921,-0.00540521,0.00252372,-0
 .00203738,0.01867254,-0.05362430,0.07820120,0.00055236,-0.00460038,-0.
 03203891,-0.00511671,0.00283802,0.00293521,-0.02059397,-0.00646551,0.0
 3088832,-0.11480075,0.02996351,0.01813698,-0.00381880,0.00304256,0.000
 23631,0.22250150,0.01629146,-0.00020629,0.01244883,-0.00055829,-0.0038
 5211,-0.00553445,-0.01217920,-0.01656543,0.01400498,0.03497404,-0.0080
 3645,-0.00610969,0.00133606,0.00164787,0.00056388,0.00619792,0.2348672
 4,-0.03289036,0.00508355,-0.02190757,0.00062157,-0.00038509,-0.0000538
 5,0.03892980,0.01844395,-0.07665771,0.01150410,-0.00608959,-0.01092463
 ,-0.00531214,-0.00132205,0.00298243,0.02612709,0.00261917,0.26946549,0
 .00029179,0.00007475,0.00029516,0.00045734,-0.00076861,0.00004800,0.00
 059188,0.00409552,-0.00440052,-0.00221564,-0.00043840,-0.00506139,-0.0
 0044698,0.00018923,-0.00004366,-0.03039365,-0.01892182,-0.04660543,0.0
 4474297,-0.00328625,0.00007804,-0.00171288,0.00036004,-0.00012738,-0.0
 0066931,0.00203550,0.00189079,-0.00248175,-0.00079822,-0.00003119,0.00
 156976,-0.00021040,-0.00029257,-0.00017100,-0.01645883,-0.03224861,-0.
 03923193,0.03969584,0.09538077,-0.00593910,-0.00072871,-0.00136767,0.0
 0073316,-0.00011722,-0.00068789,0.00203768,0.00282207,-0.00153911,-0.0
 0302166,0.00057174,-0.00204921,0.00015634,-0.00021994,-0.00032649,-0.0
 4476819,-0.04233061,-0.12214190,0.05887457,0.04691140,0.14321156,-0.00
 278412,0.00090866,-0.00348180,-0.00416622,0.00263967,-0.00700071,0.000
 59752,-0.00147328,0.00169996,-0.00079862,0.00044413,-0.00086560,0.0000
 3677,-0.00038709,0.00050964,-0.00486336,-0.00333539,-0.00183987,0.0000
 5686,-0.00330964,0.00043311,0.08618494,-0.00081462,-0.00511418,-0.0022
 9661,0.00007709,0.00214267,0.00114084,-0.00019194,-0.00285883,0.004469
 46,0.00206985,0.00011129,0.00479139,-0.00018579,-0.00019174,0.00076203
 ,0.00565548,-0.11766270,-0.00848743,-0.00178570,0.00018557,-0.00312368
 ,-0.03937357,0.15089882,-0.00541724,-0.00169081,-0.00330802,-0.0060379
 6,0.00380887,-0.00599746,-0.00266804,0.00407154,0.00029141,-0.00025824
 ,-0.00001865,0.00345272,0.00049199,0.00047663,0.00005660,0.00539044,-0
 .01280751,-0.00333058,0.00159000,-0.00070533,-0.00345913,-0.00413979,0
 .02423683,0.10207579,-0.00165688,-0.00448996,0.01098486,-0.00959136,-0
 .00189957,0.00610137,-0.00359520,0.00065591,0.00142927,-0.00480213,-0.
 00227419,-0.00373714,-0.00539905,0.00104282,-0.00182049,-0.02247347,-0
 .02024390,-0.00620915,0.00010119,-0.00251217,-0.00427016,-0.05494175,0
 .02905436,0.00274796,0.18072172,0.00351514,-0.04845896,0.03661940,0.00
 190427,-0.01156636,-0.02043103,-0.00494785,0.00037103,-0.00147279,-0.0
 1270168,-0.12699546,-0.02036019,-0.00187556,-0.00082305,0.00124997,-0.
 02478350,-0.03525298,-0.01099597,0.00025737,0.00386581,0.00039408,0.03
 455056,-0.01448087,0.00588432,0.00774961,0.26743805,0.01195450,0.05928
 841,-0.04104378,-0.00062460,-0.02925598,-0.08232606,0.00046241,-0.0038
 5272,-0.00154808,0.00083614,-0.02534315,-0.00840978,0.00289453,-0.0016
 8781,0.00092029,-0.00619750,0.00451520,-0.00063139,-0.00236223,-0.0014
 4332,-0.00321117,0.00269550,-0.00104740,-0.01453369,-0.00687066,-0.002
 35238,0.17261857,0.00019671,0.00046746,-0.00547418,0.00021574,0.001069
 63,-0.00323639,0.00089421,-0.00019148,0.00260124,0.00028962,-0.0019999
 4,0.00025723,0.00068679,-0.00051301,0.00057921,-0.00279971,-0.00372315
 ,-0.00386519,0.00071246,-0.00633138,0.00410078,-0.00428595,0.00135039,
 0.00723550,-0.00673491,-0.00115791,0.02297680,0.19039564,0.00056992,0.
 00309576,-0.00018082,-0.00038979,0.00047888,0.00279360,0.00049755,-0.0
 0049301,0.00020899,-0.00034018,-0.00137301,0.00238082,0.00031531,-0.00
 013683,-0.00006128,-0.00143259,-0.00052115,0.00315265,-0.00123917,0.00
 344339,0.00026144,0.00166422,0.00102329,-0.00107236,-0.00387290,-0.010
 05970,0.00280318,0.02428887,0.02169014,0.00136540,-0.00011645,-0.00401
 524,0.00063211,0.00051702,-0.00399059,0.00079514,0.00027673,0.00179145
 ,-0.00162064,0.00133496,-0.00052294,-0.00019136,-0.00001724,0.00024236
 ,0.00491828,-0.00151084,-0.00666431,-0.00026376,0.00096847,0.00330351,
 0.00640429,0.00059617,-0.00503758,0.00029054,0.00498338,-0.01306787,-0
 .03226888,-0.01171860,0.05231549,-0.00522797,0.00214895,0.00245538,-0.
 00620308,-0.00158806,0.00638627,0.00193888,-0.00114762,0.00029209,-0.0
 0250572,-0.00279326,-0.00052781,0.01324299,0.00129699,-0.00214698,-0.0
 1057811,-0.00341637,0.00169658,0.00018356,0.00179010,0.00018973,-0.005
 60658,0.00126470,-0.00174450,-0.07619899,-0.01681253,0.01537802,-0.006
 05419,0.00180264,-0.00634761,0.12475135,-0.00148062,-0.00043199,0.0001
 2683,0.00228163,0.00252731,-0.00000346,0.00003902,-0.00042535,0.000442
 72,-0.00470511,-0.00022517,0.00091791,-0.00668270,-0.00101121,0.001629
 25,0.00310296,0.00745069,0.00229347,-0.00019411,-0.00117963,-0.0009273
 9,-0.00420098,0.00131231,-0.00241734,-0.02694687,-0.02789906,0.0051432
 3,0.00291329,0.00035062,0.00103966,0.01743136,0.07475863,0.00454005,-0
 .00051330,0.00046031,0.00778355,0.00231989,-0.00314553,-0.00030861,0.0
 0084263,-0.00022302,-0.00229870,0.00278760,0.00096921,0.00267592,0.001
 59472,-0.00137552,-0.00164038,-0.00499420,0.00072953,0.00029117,0.0010
 7694,0.00057940,0.00067105,0.00006306,0.00119369,0.02380971,0.00126161
 ,-0.01753095,-0.00815098,0.00075418,-0.00501726,-0.01581126,-0.0398937
 4,0.06120514,-0.01472144,-0.00127896,0.01117662,0.00015822,-0.00025614
 ,0.00237887,0.00000487,0.00104444,-0.00195568,-0.00146830,-0.00257862,
 -0.00404700,-0.03089645,-0.02160230,0.02204577,-0.00360918,-0.00247454
 ,-0.00333476,0.00051001,0.00106246,0.00164221,-0.00030450,-0.00066932,
 0.00174849,0.00219434,0.00946575,-0.00890700,-0.00067355,-0.00015235,0
 .00007967,-0.02392203,0.01070933,-0.00913235,0.30684735,-0.01551335,0.
 00884106,-0.00191194,-0.00295319,-0.00661093,-0.00263033,0.00035365,0.
 00029943,-0.00135433,-0.00016182,-0.00005976,-0.00381219,-0.00191457,-
 0.03498758,0.02334334,-0.00244297,-0.00557060,0.00728879,-0.00017259,0
 .00120701,-0.00015107,0.00011083,0.00053930,-0.00101531,0.02872693,0.0
 0649841,-0.00302495,-0.00290852,0.00008627,-0.00126500,-0.01028509,-0.
 05076981,0.03042024,-0.01102739,0.25460383,0.01727241,-0.00788038,0.00
 665294,0.00165534,0.00077507,-0.00457177,-0.00097639,-0.00010451,0.000
 76452,-0.00195042,-0.00492304,-0.00382032,0.00569907,0.02447058,-0.041
 17444,0.00367783,0.00440938,-0.00164868,-0.00046447,-0.00113776,-0.000
 01576,0.00044428,-0.00218447,0.00041143,-0.02191608,0.00415486,0.00416
 837,0.00136962,-0.00023086,0.00090043,0.01028033,0.02663051,-0.0377585
 9,0.02694076,0.11029712,0.28369678,-0.00421997,-0.00170936,0.00648319,
 0.00006343,-0.00017176,0.00204285,0.00104545,-0.00104875,-0.00454089,-
 0.00026993,0.00291247,-0.00370501,0.00048785,-0.00016746,-0.00120220,-
 0.00468940,0.00568431,0.02111640,-0.01919543,-0.01725788,-0.00691226,-
 0.00890713,-0.00237544,0.01044131,-0.00244288,0.00612501,-0.03624025,-
 0.16197878,-0.02437328,0.03649297,0.00133088,-0.00230437,0.00370876,0.
 00142595,0.00246930,-0.00159750,0.24796053,-0.00384463,-0.00030863,0.0
 0067946,0.00047251,-0.00017052,0.00132039,0.00264782,0.00267292,0.0049
 8625,0.00180461,-0.00119302,0.00102839,-0.00025335,-0.00015680,-0.0000
 0062,0.00403285,-0.02292527,0.02896223,-0.02220541,-0.06837234,-0.0171
 3672,0.00892837,-0.01529471,-0.02679814,-0.00064757,-0.00166433,-0.003
 13357,-0.02235715,-0.02460453,0.00497171,-0.00004330,0.00072214,0.0010
 4644,-0.00014154,0.00057701,0.00008968,0.00345269,0.23892315,0.0038816
 8,-0.00068818,-0.00242582,-0.00014673,-0.00046910,-0.00051618,-0.00288
 406,-0.00075503,-0.00626102,0.00011469,0.00150290,0.00071056,0.0002737
 5,0.00012073,-0.00028956,-0.00483111,0.03629528,-0.02749675,-0.0042840
 0,-0.01198907,-0.00509119,0.01395488,-0.03093133,-0.05916634,-0.003394
 10,0.00216743,0.00414609,0.02536367,0.00283623,-0.01863466,-0.00114143
 ,0.00052345,-0.00097220,0.00049733,-0.00074554,0.00017236,-0.00451214,
 0.00064084,0.22683276,0.00071133,-0.00184771,-0.00024228,0.00016160,0.
 00036452,-0.00003416,-0.00014440,-0.00007108,0.00023317,0.00040279,0.0
 0020222,0.00045728,-0.00696759,-0.00404960,0.00175980,0.00019252,-0.00
 001656,0.00067483,-0.00008813,-0.00012971,-0.00020515,-0.00024954,0.00
 020237,-0.00026605,0.00235036,-0.00031101,-0.00054786,-0.00048541,0.00
 010798,-0.00026464,-0.00339348,0.00547451,-0.00433061,-0.15312235,-0.0
 6152534,-0.10617106,0.00051187,0.00010719,0.00003183,0.14501287,-0.000
 39542,-0.00005611,0.00047693,0.00005970,0.00054992,0.00032184,-0.00025
 423,-0.00007716,0.00018732,0.00065186,0.00017291,0.00072911,-0.0058982
 4,-0.00306999,-0.00091988,0.00048147,0.00057592,-0.00003240,-0.0000319
 8,-0.00016079,-0.00019925,-0.00018327,0.00019031,0.00008847,-0.0014598
 7,-0.00062283,0.00016259,-0.00001037,0.00001721,0.00001121,0.00450941,
 0.00469797,0.00229283,-0.06040635,-0.05057328,-0.05738842,0.00000654,-
 0.00026912,0.00010389,0.06795945,0.05521109,-0.00184625,-0.00015912,-0
 .00069198,-0.00033863,0.00029618,0.00023169,-0.00027502,0.00001658,0.0
 0009198,0.00090598,0.00035751,0.00119843,0.00174148,-0.00073153,0.0060
 2731,0.00043488,0.00050085,0.00103359,0.00001142,-0.00026830,-0.000363
 45,-0.00049491,0.00013711,-0.00014726,0.00196119,0.00059441,-0.0009004
 8,-0.00028661,0.00000015,-0.00013882,-0.00634424,0.00371440,-0.0058586
 8,-0.10618863,-0.05850487,-0.10598482,0.00011452,0.00003538,0.00007663
 ,0.11175577,0.06330046,0.11567126,0.00099540,-0.00140749,-0.00019366,0
 .00009232,0.00052302,0.00004772,0.00012936,0.00002720,0.00009005,-0.00
 199738,0.00040574,-0.00017780,-0.00364549,0.00145642,0.00470613,-0.000
 05025,0.00008188,0.00034924,-0.00009668,-0.00008604,-0.00017430,0.0000
 2811,0.00009140,-0.00023298,0.00136820,-0.00019549,0.00056983,-0.00017
 347,0.00012142,-0.00016476,-0.00147082,0.00426991,-0.00166213,-0.08255
 913,0.07753306,0.06574085,0.00026157,0.00005118,0.00000225,0.01529858,
 -0.00494605,-0.00100683,0.07193204,0.00125008,0.00006931,-0.00034584,-
 0.00044127,0.00090129,0.00025300,0.00033132,-0.00001783,0.00001765,0.0
 0047260,-0.00048903,0.00011699,0.00073942,0.00649402,0.00011117,0.0002
 8791,0.00026608,-0.00153165,0.00019047,0.00022803,0.00055297,-0.000019
 90,0.00023936,0.00019144,-0.00267253,-0.00036962,0.00100386,0.00050768
 ,-0.00005549,0.00046637,0.00596092,-0.00939522,0.00082186,0.07829330,-
 0.12420364,-0.09678759,-0.00061058,-0.00016648,-0.00003106,-0.00656648
 ,-0.00667928,-0.00939284,-0.07794979,0.13323781,-0.00025223,0.00232187
 ,-0.00002080,-0.00089973,-0.00002457,0.00052577,0.00020484,-0.00026777
 ,0.00024450,0.00004074,-0.00003758,-0.00027812,0.00571068,-0.00031972,
 -0.00535045,-0.00055789,-0.00088474,-0.00074718,0.00018562,0.00045154,
 0.00062341,0.00035684,0.00033242,0.00001124,0.00028677,-0.00074852,0.0
 0001350,0.00038317,0.00000961,0.00017222,-0.00214269,0.00051594,0.0070
 1836,0.06704791,-0.09652955,-0.10177765,-0.00008576,-0.00005254,-0.000
 06483,-0.00268174,-0.00907270,-0.01010228,-0.06775226,0.10434343,0.109
 56225,-0.00046421,0.00006339,-0.00033885,0.00007369,-0.00030226,-0.000
 28518,0.00051212,0.00000344,0.00026865,0.00029199,-0.00043292,-0.00006
 851,-0.00010250,-0.00000278,0.00009860,0.00019112,0.00215533,0.0014086
 9,0.00290134,0.00491574,-0.00284114,0.00070015,0.00421003,-0.00116729,
 -0.00029066,0.00055794,0.00159988,-0.00497460,0.00336052,-0.00157429,0
 .00005463,0.00012691,0.00002414,0.00017068,-0.00003495,0.00006698,-0.0
 3001634,0.02369695,-0.01267374,-0.00010401,-0.00007071,-0.00007722,-0.
 00003861,0.00008562,0.00004531,0.03884524,0.00033563,-0.00035575,0.000
 40626,-0.00021996,0.00037254,0.00026524,-0.00035527,-0.00018701,-0.000
 05386,-0.00012895,0.00052625,-0.00006943,0.00003481,-0.00000124,-0.000
 02217,-0.00074363,-0.00216639,0.00031523,-0.00132597,-0.00245329,0.003
 43808,0.00383457,-0.00333570,0.00265698,-0.00043465,-0.00056181,-0.001
 67513,0.00856380,0.00575452,0.00059582,0.00007704,-0.00030471,0.000040
 67,-0.00015444,0.00016853,-0.00024085,0.03279287,-0.07119913,0.0146771
 2,0.00016239,0.00011767,0.00017629,0.00006610,-0.00014422,-0.00010827,
 -0.03638758,0.13130435,-0.00051005,0.00012472,0.00003145,0.00013333,-0
 .00004868,-0.00007435,0.00073086,-0.00024601,0.00009006,0.00006783,0.0
 0000257,0.00000405,-0.00000356,-0.00005163,0.00010090,-0.00229521,0.00
 112116,0.00118476,0.00178296,0.00085883,-0.00007279,-0.00753099,0.0088
 4899,-0.00482316,-0.00016670,0.00069516,-0.00075238,-0.00236205,-0.001
 30963,0.00121559,-0.00001185,-0.00013661,0.00002173,-0.00001908,-0.000
 04813,-0.00004062,-0.00129756,0.00167723,-0.02832241,-0.00001331,0.000
 00914,-0.00000827,0.00000641,-0.00000538,0.00000789,0.03011222,0.08221
 112,0.26022169,0.00015672,-0.00002891,0.00007148,-0.00001409,0.0000240
 9,0.00000983,-0.00024992,0.00007541,-0.00028512,-0.00003497,-0.0000731
 5,0.00008120,0.00003367,0.00004880,-0.00006499,0.00080651,0.00067281,-
 0.00018923,-0.00016592,-0.00071517,-0.00085299,-0.00154875,0.00058487,
 -0.00140254,0.00033868,0.00018097,-0.00030678,0.00055936,-0.00001970,0
 .00079793,-0.00011447,-0.00005806,0.00006424,0.00003740,-0.00004350,0.
 00001856,-0.00267444,0.00478511,0.00607092,0.00000089,0.00000511,-0.00
 001216,-0.00000024,0.00000737,0.00000751,-0.00860766,-0.00621670,-0.02
 221720,0.01042236,-0.00009916,0.00007162,0.00008614,0.00006956,0.00000
 839,0.00003128,0.00011412,-0.00005153,0.00007213,-0.00000933,0.0000600
 5,-0.00001769,0.00002847,0.00001787,0.00000922,-0.00059942,0.00042926,
 -0.00101888,0.00022743,-0.00015722,-0.00014076,0.00049786,-0.00088260,
 0.00216989,0.00019304,0.00028701,-0.00019597,0.00032937,0.00035697,0.0
 0058427,-0.00016341,-0.00008847,-0.00003033,-0.00000137,-0.00007190,0.
 00006839,0.00031475,-0.00817285,-0.00977068,-0.00000251,0.00000370,-0.
 00000144,-0.00000079,0.00000666,-0.00000377,-0.00310058,-0.04972102,-0
 .08222735,0.00084800,0.05886231,-0.00014201,0.00006101,-0.00009558,-0.
 00004851,-0.00002735,-0.00000685,0.00004832,-0.00013031,0.00023614,0.0
 0003650,0.00002776,-0.00003244,-0.00000021,-0.00002820,0.00002825,0.00
 009184,0.00081789,-0.00029580,0.00017971,0.00036406,-0.00021967,-0.001
 02882,0.00255498,0.00067560,0.00027039,0.00000582,0.00003974,-0.000305
 16,-0.00022193,-0.00027179,-0.00002084,0.00004753,-0.00000627,-0.00002
 985,-0.00000550,0.00002033,-0.00044177,0.00000805,0.00041140,-0.000001
 07,-0.00000318,-0.00000320,-0.00000302,-0.00000108,-0.00000753,-0.0179
 7721,-0.09251580,-0.22102215,0.01878672,0.09069067,0.21945889,-0.00010
 612,0.00052145,-0.00106899,-0.00004908,0.00045397,-0.00040594,-0.00011
 371,0.00026683,0.00027400,0.00000593,0.00018633,0.00002002,-0.00021931
 ,0.00001270,0.00010386,-0.00076822,-0.00288326,-0.00373324,-0.00010911
 ,0.00202924,0.00069704,0.00097157,0.00301347,-0.00545376,0.00112481,-0
 .00142058,0.00338545,-0.00550716,-0.00133220,-0.01012996,-0.00023984,0
 .00022677,-0.00035153,-0.00008913,-0.00019190,-0.00013295,-0.01718080,
 -0.00604408,-0.01137596,-0.00009640,-0.00001150,-0.00005773,-0.0000716
 1,0.00015067,0.00011826,0.00014925,-0.00005590,0.00263550,0.00159474,0
 .00141361,0.00095062,0.02877335,-0.00009239,0.00052791,-0.00055730,0.0
 0009430,-0.00022373,-0.00013769,-0.00080794,-0.00012404,-0.00080957,-0
 .00007044,0.00007736,0.00001480,0.00009366,-0.00003704,-0.00000939,0.0
 0227694,0.00020382,0.00182345,0.00229933,-0.00186443,0.00926037,-0.001
 48742,0.00280687,0.00380837,0.00006286,0.00049957,-0.00029894,-0.00002
 826,0.00086411,-0.00113876,-0.00001125,-0.00013999,0.00020163,0.000237
 93,0.00005452,0.00000470,-0.00502680,-0.03112000,-0.00730964,-0.000069
 05,-0.00003690,-0.00008391,-0.00004340,0.00007461,0.00007379,0.0013042
 0,-0.00716589,-0.00989618,-0.00034569,-0.00075940,-0.00146068,0.016320
 00,0.27011217,0.00073363,-0.00004742,-0.00061356,-0.00003715,0.0006406
 0,-0.00029989,-0.00034645,-0.00015830,0.00077902,-0.00022212,-0.000253
 90,0.00017619,-0.00040532,0.00012046,0.00013897,0.00071398,-0.00202044
 ,-0.00233360,0.00149166,0.00824941,-0.00644053,-0.00140227,0.00043753,
 -0.00729618,0.00037283,-0.00144325,0.00199443,-0.00890844,-0.00034199,
 -0.00256009,-0.00038099,0.00030379,-0.00020299,0.00009099,-0.00033696,
 0.00003670,-0.01929320,-0.01292811,-0.07633533,-0.00016031,-0.00007174
 ,-0.00013604,-0.00014409,0.00020718,0.00016178,0.00220344,-0.00947746,
 -0.00566653,-0.00048558,0.00010060,0.00019826,0.02222823,-0.05664097,0
 .13456468,0.00030195,-0.00022106,0.00023255,-0.00001769,0.00010101,0.0
 0008532,-0.00004115,-0.00011344,-0.00003463,-0.00010240,-0.00007861,0.
 00001326,-0.00002793,0.00001175,0.00000673,0.00031157,0.00035868,0.001
 55107,0.00216212,-0.00079323,0.00012032,-0.00011938,-0.00217764,-0.000
 85731,-0.00007200,-0.00010052,-0.00069616,-0.00028281,0.00042374,0.001
 04959,0.00001299,-0.00000288,0.00011794,0.00001724,-0.00001859,0.00004
 285,-0.00151244,0.00555773,-0.00494769,0.00000850,-0.00000555,0.000003
 00,-0.00000190,-0.00001682,-0.00001535,0.00070836,0.00015584,0.0009584
 5,-0.00053987,-0.00005965,-0.00036563,-0.00806917,-0.01470658,0.003951
 15,0.00726402,0.00003353,0.00004519,-0.00001690,-0.00000373,0.00005451
 ,-0.00000659,0.00003868,0.00002339,0.00015447,-0.00000140,-0.00003318,
 -0.00002031,-0.00001613,0.00000084,0.00001362,-0.00035279,-0.00043289,
 -0.00088752,0.00005382,0.00060804,0.00086320,0.00019166,0.00037153,-0.
 00086788,-0.00003133,-0.00020486,0.00039485,-0.00026931,0.00008256,-0.
 00057887,-0.00002122,0.00005095,-0.00009271,-0.00006991,-0.00002789,-0
 .00002239,0.00128775,0.00272249,0.00382176,0.00000842,0.00000876,0.000
 01270,0.00000171,0.00000365,0.00000112,-0.00014829,-0.00064769,-0.0015
 7930,0.00026834,-0.00019885,-0.00018372,-0.01265563,-0.23374953,0.0736
 6097,0.01168581,0.23132298,-0.00004242,0.00005511,0.00014493,-0.000004
 27,-0.00000508,0.00006603,0.00022690,0.00011348,-0.00013335,0.00009043
 ,0.00002855,-0.00007837,-0.00002567,0.00000451,-0.00002187,-0.00122198
 ,-0.00110413,-0.00056185,-0.00126481,-0.00063977,-0.00073192,0.0006152
 1,-0.00029987,-0.00106907,0.00012961,-0.00020631,0.00005462,-0.0000093
 3,-0.00006341,-0.00001991,-0.00005822,0.00004983,-0.00008638,-0.000034
 28,-0.00001382,-0.00003120,-0.00057144,0.01460367,-0.00677350,0.000005
 56,0.00000380,0.00000437,-0.00000064,0.00000953,0.00000792,0.00117550,
 -0.00061984,-0.00209545,-0.00009179,-0.00040569,0.00089269,0.00229709,
 0.06315592,-0.03616529,-0.00121545,-0.07466650,0.04659761\\0.00002038,
 0.00001656,0.00000607,0.00000606,0.00000577,-0.00000875,0.00000157,0.0
 0000956,0.00000404,-0.00000426,0.00000079,-0.00000861,-0.00001027,0.00
 000124,0.00000378,-0.00001393,-0.00002733,-0.00002773,-0.00001161,0.00
 001334,-0.00000225,0.00001020,-0.00000167,0.00000214,0.00000056,-0.000
 00481,0.00003876,-0.00000427,0.00000212,-0.00000210,-0.00000316,-0.000
 00130,-0.00000013,-0.00001708,0.00000521,-0.00000036,0.00000656,-0.000
 00155,-0.00000096,0.00001444,0.00001679,0.00002067,0.00000946,-0.00002
 476,-0.00002209,-0.00000948,-0.00000676,0.00000045,0.00000039,-0.00000
 063,0.00000016,0.00000582,-0.00000193,-0.00000466,-0.00000141,-0.00000
 064,0.00000157\\\@
 The archive entry for this job was punched.


 IN NATURE THERE ARE NEITHER REWARDS OR
 PUNISHMENTS -- THERE ARE CONSEQUENCES.

                            -- ROBERT GREEN INGERSOLL
 Job cpu time:       0 days  1 hours 36 minutes 17.1 seconds.
 Elapsed time:       0 days  0 hours  2 minutes  6.9 seconds.
 File lengths (MBytes):  RWF=    397 Int=      0 D2E=      0 Chk=     11 Scr=      2
 Normal termination of Gaussian 16 at Fri Dec  9 12:14:23 2022.
