 Entering Gaussian System, Link 0=g16
 Initial command:
 /home/chesagar/softwares/G16_AVX2//g16/l1.exe "/home/chesagar/scratch/Gau-220164.inp" -scrdir="/home/chesagar/scratch/"
 Entering Link 1 = /home/chesagar/softwares/G16_AVX2//g16/l1.exe PID=    220165.
  
 Copyright (c) 1988-2019, Gaussian, Inc.  All Rights Reserved.
  
 This is part of the Gaussian(R) 16 program.  It is based on
 the Gaussian(R) 09 system (copyright 2009, Gaussian, Inc.),
 the Gaussian(R) 03 system (copyright 2003, Gaussian, Inc.),
 the Gaussian(R) 98 system (copyright 1998, Gaussian, Inc.),
 the Gaussian(R) 94 system (copyright 1995, Gaussian, Inc.),
 the Gaussian 92(TM) system (copyright 1992, Gaussian, Inc.),
 the Gaussian 90(TM) system (copyright 1990, Gaussian, Inc.),
 the Gaussian 88(TM) system (copyright 1988, Gaussian, Inc.),
 the Gaussian 86(TM) system (copyright 1986, Carnegie Mellon
 University), and the Gaussian 82(TM) system (copyright 1983,
 Carnegie Mellon University). Gaussian is a federally registered
 trademark of Gaussian, Inc.
  
 This software contains proprietary and confidential information,
 including trade secrets, belonging to Gaussian, Inc.
  
 This software is provided under written license and may be
 used, copied, transmitted, or stored only in accord with that
 written license.
  
 The following legend is applicable only to US Government
 contracts under FAR:
  
                    RESTRICTED RIGHTS LEGEND
  
 Use, reproduction and disclosure by the US Government is
 subject to restrictions as set forth in subparagraphs (a)
 and (c) of the Commercial Computer Software - Restricted
 Rights clause in FAR 52.227-19.
  
 Gaussian, Inc.
 340 Quinnipiac St., Bldg. 40, Wallingford CT 06492
  
  
 ---------------------------------------------------------------
 Warning -- This program may not be used in any manner that
 competes with the business of Gaussian, Inc. or will provide
 assistance to any competitor of Gaussian, Inc.  The licensee
 of this program is prohibited from giving any competitor of
 Gaussian, Inc. access to this program.  By using this program,
 the user acknowledges that Gaussian, Inc. is engaged in the
 business of creating and licensing software in the field of
 computational chemistry and represents and warrants to the
 licensee that it is not a competitor of Gaussian, Inc. and that
 it will not use this program in any manner prohibited above.
 ---------------------------------------------------------------
  

 Cite this work as:
 Gaussian 16, Revision C.01,
 M. J. Frisch, G. W. Trucks, H. B. Schlegel, G. E. Scuseria, 
 M. A. Robb, J. R. Cheeseman, G. Scalmani, V. Barone, 
 G. A. Petersson, H. Nakatsuji, X. Li, M. Caricato, A. V. Marenich, 
 J. Bloino, B. G. Janesko, R. Gomperts, B. Mennucci, H. P. Hratchian, 
 J. V. Ortiz, A. F. Izmaylov, J. L. Sonnenberg, D. Williams-Young, 
 F. Ding, F. Lipparini, F. Egidi, J. Goings, B. Peng, A. Petrone, 
 T. Henderson, D. Ranasinghe, V. G. Zakrzewski, J. Gao, N. Rega, 
 G. Zheng, W. Liang, M. Hada, M. Ehara, K. Toyota, R. Fukuda, 
 J. Hasegawa, M. Ishida, T. Nakajima, Y. Honda, O. Kitao, H. Nakai, 
 T. Vreven, K. Throssell, J. A. Montgomery, Jr., J. E. Peralta, 
 F. Ogliaro, M. J. Bearpark, J. J. Heyd, E. N. Brothers, K. N. Kudin, 
 V. N. Staroverov, T. A. Keith, R. Kobayashi, J. Normand, 
 K. Raghavachari, A. P. Rendell, J. C. Burant, S. S. Iyengar, 
 J. Tomasi, M. Cossi, J. M. Millam, M. Klene, C. Adamo, R. Cammi, 
 J. W. Ochterski, R. L. Martin, K. Morokuma, O. Farkas, 
 J. B. Foresman, and D. J. Fox, Gaussian, Inc., Wallingford CT, 2019.
 
 ******************************************
 Gaussian 16:  ES64L-G16RevC.01  3-Jul-2019
                 9-Dec-2022 
 ******************************************
 %nprocshared=46
 Will use up to   46 processors via shared memory.
 %mem=100GB
 -----------------------------------------------------------
 # opt=(calcfc,ts,noeigen) freq b3lyp/gen nosymm pseudo=read
 -----------------------------------------------------------
 1/5=1,10=4,11=1,18=20,26=3,38=1/1,3;
 2/9=110,12=2,15=1,17=6,18=5,40=1/2;
 3/5=7,11=2,16=1,17=8,25=1,30=1,71=2,74=-5,140=1/1,2,3;
 4//1;
 5/5=2,38=5/2;
 8/6=4,10=90,11=11/1;
 11/6=1,8=1,9=11,15=111,16=1,31=1/1,2,10;
 10/6=1,13=1,31=1/2;
 6/7=2,8=2,9=2,10=2,28=1/1;
 7/10=1,25=1,30=1/1,2,3,16;
 1/5=1,10=4,11=1,18=20,26=3/3(2);
 2/9=110,15=1/2;
 99//99;
 2/9=110,15=1/2;
 3/5=7,6=1,11=2,16=1,17=8,25=1,30=1,71=1,74=-5,82=7/1,2,3;
 4/5=5,16=3,69=1/1;
 5/5=2,38=5/2;
 7/30=1/1,2,3,16;
 1/5=1,11=1,18=20,26=3/3(-5);
 2/9=110,15=1/2;
 6/7=2,8=2,9=2,10=2,19=2,28=1/1;
 99/9=1/99;
 -------------------
 Title Card Required
 -------------------
 Symbolic Z-matrix:
 Charge =  0 Multiplicity = 1
 42                   -0.05941   1.93633   12.05493 
 16                    0.26785   4.12769   12.54664 
 16                   -2.37296   1.61189   12.1444 
 16                    0.2716    1.45718   9.6991 
 16                    1.80071   0.86406   12.82335 
 42                   -1.94277   2.21582   9.89583 
 16                   -2.73817   1.63791   7.87904 
 16                   -1.99188   4.54499   10.11963 
 42                    0.3574    3.76193   10.19628 
 16                    0.23529   4.22979   7.54908 
 16                    2.64327   4.02273   9.86505 
 42                    3.13946   2.18393   11.31052 
 42                   -1.94287   3.95437   7.71203 
 16                    4.60529   2.98489   12.60601 
 16                    4.0868    0.76723   10.05594 
 16                   -3.13191   6.01027   7.46886 
 1                    -3.52492   5.64098   5.93731 
 16                   -2.65744   3.6747    5.46942 
 1                    -3.41679   5.1448    5.53159 
 
 Add virtual bond connecting atoms H17        and S16        Dist= 3.07D+00.
 Add virtual bond connecting atoms H19        and S18        Dist= 3.13D+00.

 GradGradGradGradGradGradGradGradGradGradGradGradGradGradGradGradGradGrad
 Berny optimization.
 Initialization pass.
                           ----------------------------
                           !    Initial Parameters    !
                           ! (Angstroms and Degrees)  !
 --------------------------                            --------------------------
 ! Name  Definition              Value          Derivative Info.                !
 --------------------------------------------------------------------------------
 ! R1    R(1,2)                  2.2696         calculate D2E/DX2 analytically  !
 ! R2    R(1,3)                  2.3379         calculate D2E/DX2 analytically  !
 ! R3    R(1,4)                  2.4267         calculate D2E/DX2 analytically  !
 ! R4    R(1,5)                  2.2804         calculate D2E/DX2 analytically  !
 ! R5    R(1,6)                  2.8787         calculate D2E/DX2 analytically  !
 ! R6    R(1,9)                  2.6384         calculate D2E/DX2 analytically  !
 ! R7    R(2,9)                  2.3803         calculate D2E/DX2 analytically  !
 ! R8    R(3,6)                  2.3677         calculate D2E/DX2 analytically  !
 ! R9    R(4,6)                  2.349          calculate D2E/DX2 analytically  !
 ! R10   R(4,9)                  2.3593         calculate D2E/DX2 analytically  !
 ! R11   R(5,12)                 2.4131         calculate D2E/DX2 analytically  !
 ! R12   R(6,7)                  2.2437         calculate D2E/DX2 analytically  !
 ! R13   R(6,8)                  2.3404         calculate D2E/DX2 analytically  !
 ! R14   R(6,9)                  2.7877         calculate D2E/DX2 analytically  !
 ! R15   R(6,13)                 2.7913         calculate D2E/DX2 analytically  !
 ! R16   R(7,13)                 2.4549         calculate D2E/DX2 analytically  !
 ! R17   R(8,9)                  2.4775         calculate D2E/DX2 analytically  !
 ! R18   R(8,13)                 2.4795         calculate D2E/DX2 analytically  !
 ! R19   R(9,10)                 2.691          calculate D2E/DX2 analytically  !
 ! R20   R(9,11)                 2.3244         calculate D2E/DX2 analytically  !
 ! R21   R(10,13)                2.2015         calculate D2E/DX2 analytically  !
 ! R22   R(11,12)                2.391          calculate D2E/DX2 analytically  !
 ! R23   R(12,14)                2.1139         calculate D2E/DX2 analytically  !
 ! R24   R(12,15)                2.1162         calculate D2E/DX2 analytically  !
 ! R25   R(13,16)                2.3874         calculate D2E/DX2 analytically  !
 ! R26   R(13,18)                2.3703         calculate D2E/DX2 analytically  !
 ! R27   R(16,17)                1.6237         calculate D2E/DX2 analytically  !
 ! R28   R(17,19)                0.65           calculate D2E/DX2 analytically  !
 ! R29   R(18,19)                1.6558         calculate D2E/DX2 analytically  !
 ! A1    A(2,1,3)              105.5689         calculate D2E/DX2 analytically  !
 ! A2    A(2,1,4)              112.414          calculate D2E/DX2 analytically  !
 ! A3    A(2,1,5)              105.2709         calculate D2E/DX2 analytically  !
 ! A4    A(2,1,6)               99.3863         calculate D2E/DX2 analytically  !
 ! A5    A(3,1,4)               98.3217         calculate D2E/DX2 analytically  !
 ! A6    A(3,1,5)              136.8068         calculate D2E/DX2 analytically  !
 ! A7    A(3,1,9)              106.2194         calculate D2E/DX2 analytically  !
 ! A8    A(4,1,5)               97.0659         calculate D2E/DX2 analytically  !
 ! A9    A(5,1,6)              146.3094         calculate D2E/DX2 analytically  !
 ! A10   A(5,1,9)              115.7135         calculate D2E/DX2 analytically  !
 ! A11   A(1,5,12)              89.0888         calculate D2E/DX2 analytically  !
 ! A12   A(1,6,7)              151.7763         calculate D2E/DX2 analytically  !
 ! A13   A(1,6,8)               92.2139         calculate D2E/DX2 analytically  !
 ! A14   A(1,6,13)             130.3369         calculate D2E/DX2 analytically  !
 ! A15   A(3,6,4)               99.697          calculate D2E/DX2 analytically  !
 ! A16   A(3,6,7)              136.3482         calculate D2E/DX2 analytically  !
 ! A17   A(3,6,8)               99.162          calculate D2E/DX2 analytically  !
 ! A18   A(3,6,9)              100.8962         calculate D2E/DX2 analytically  !
 ! A19   A(3,6,13)             154.4038         calculate D2E/DX2 analytically  !
 ! A20   A(4,6,7)              100.1207         calculate D2E/DX2 analytically  !
 ! A21   A(4,6,8)              110.4387         calculate D2E/DX2 analytically  !
 ! A22   A(4,6,13)              97.7973         calculate D2E/DX2 analytically  !
 ! A23   A(7,6,8)              109.5636         calculate D2E/DX2 analytically  !
 ! A24   A(7,6,9)              122.1565         calculate D2E/DX2 analytically  !
 ! A25   A(9,6,13)              74.8656         calculate D2E/DX2 analytically  !
 ! A26   A(9,8,13)              86.3311         calculate D2E/DX2 analytically  !
 ! A27   A(1,9,8)               95.2034         calculate D2E/DX2 analytically  !
 ! A28   A(1,9,10)             143.7197         calculate D2E/DX2 analytically  !
 ! A29   A(1,9,11)             109.474          calculate D2E/DX2 analytically  !
 ! A30   A(2,9,4)              110.9044         calculate D2E/DX2 analytically  !
 ! A31   A(2,9,6)               99.2416         calculate D2E/DX2 analytically  !
 ! A32   A(2,9,8)               86.9223         calculate D2E/DX2 analytically  !
 ! A33   A(2,9,10)             160.5468         calculate D2E/DX2 analytically  !
 ! A34   A(2,9,11)              99.2336         calculate D2E/DX2 analytically  !
 ! A35   A(4,9,8)              105.5307         calculate D2E/DX2 analytically  !
 ! A36   A(4,9,10)              87.7588         calculate D2E/DX2 analytically  !
 ! A37   A(4,9,11)              96.623          calculate D2E/DX2 analytically  !
 ! A38   A(6,9,10)              87.3041         calculate D2E/DX2 analytically  !
 ! A39   A(6,9,11)             149.1248         calculate D2E/DX2 analytically  !
 ! A40   A(8,9,10)              82.6221         calculate D2E/DX2 analytically  !
 ! A41   A(8,9,11)             153.2062         calculate D2E/DX2 analytically  !
 ! A42   A(10,9,11)             83.3927         calculate D2E/DX2 analytically  !
 ! A43   A(9,10,13)             87.1532         calculate D2E/DX2 analytically  !
 ! A44   A(9,11,12)             91.8138         calculate D2E/DX2 analytically  !
 ! A45   A(5,12,11)            133.198          calculate D2E/DX2 analytically  !
 ! A46   A(5,12,14)            101.9902         calculate D2E/DX2 analytically  !
 ! A47   A(5,12,15)            104.7056         calculate D2E/DX2 analytically  !
 ! A48   A(11,12,14)           102.8857         calculate D2E/DX2 analytically  !
 ! A49   A(11,12,15)           104.4387         calculate D2E/DX2 analytically  !
 ! A50   A(14,12,15)           107.8521         calculate D2E/DX2 analytically  !
 ! A51   A(6,13,10)             97.8042         calculate D2E/DX2 analytically  !
 ! A52   A(6,13,16)            128.0287         calculate D2E/DX2 analytically  !
 ! A53   A(6,13,18)            131.8158         calculate D2E/DX2 analytically  !
 ! A54   A(7,13,8)              98.7609         calculate D2E/DX2 analytically  !
 ! A55   A(7,13,10)            116.3346         calculate D2E/DX2 analytically  !
 ! A56   A(7,13,16)            131.1607         calculate D2E/DX2 analytically  !
 ! A57   A(7,13,18)             81.6836         calculate D2E/DX2 analytically  !
 ! A58   A(8,13,10)             93.5329         calculate D2E/DX2 analytically  !
 ! A59   A(8,13,16)             83.3344         calculate D2E/DX2 analytically  !
 ! A60   A(8,13,18)            160.1977         calculate D2E/DX2 analytically  !
 ! A61   A(10,13,16)           112.1781         calculate D2E/DX2 analytically  !
 ! A62   A(10,13,18)           104.0642         calculate D2E/DX2 analytically  !
 ! A63   A(16,13,18)            81.6681         calculate D2E/DX2 analytically  !
 ! A64   A(13,16,17)            91.1899         calculate D2E/DX2 analytically  !
 ! A65   A(16,17,19)           136.2287         calculate D2E/DX2 analytically  !
 ! A66   A(13,18,19)            89.884          calculate D2E/DX2 analytically  !
 ! A67   A(17,19,18)           141.0292         calculate D2E/DX2 analytically  !
 ! D1    D(2,1,5,12)           -60.9682         calculate D2E/DX2 analytically  !
 ! D2    D(3,1,5,12)           164.8217         calculate D2E/DX2 analytically  !
 ! D3    D(4,1,5,12)            54.6339         calculate D2E/DX2 analytically  !
 ! D4    D(6,1,5,12)            74.6177         calculate D2E/DX2 analytically  !
 ! D5    D(9,1,5,12)            -0.1638         calculate D2E/DX2 analytically  !
 ! D6    D(2,1,6,7)            138.7622         calculate D2E/DX2 analytically  !
 ! D7    D(2,1,6,8)             -2.555          calculate D2E/DX2 analytically  !
 ! D8    D(2,1,6,13)            44.387          calculate D2E/DX2 analytically  !
 ! D9    D(5,1,6,7)              1.9421         calculate D2E/DX2 analytically  !
 ! D10   D(5,1,6,8)           -139.3752         calculate D2E/DX2 analytically  !
 ! D11   D(5,1,6,13)           -92.4332         calculate D2E/DX2 analytically  !
 ! D12   D(3,1,9,8)             16.121          calculate D2E/DX2 analytically  !
 ! D13   D(3,1,9,10)           -68.4941         calculate D2E/DX2 analytically  !
 ! D14   D(3,1,9,11)          -174.4844         calculate D2E/DX2 analytically  !
 ! D15   D(5,1,9,8)           -174.5208         calculate D2E/DX2 analytically  !
 ! D16   D(5,1,9,10)           100.8642         calculate D2E/DX2 analytically  !
 ! D17   D(5,1,9,11)            -5.1261         calculate D2E/DX2 analytically  !
 ! D18   D(1,4,6,9)             70.2143         calculate D2E/DX2 analytically  !
 ! D19   D(1,5,12,11)            6.8306         calculate D2E/DX2 analytically  !
 ! D20   D(1,5,12,14)          127.6382         calculate D2E/DX2 analytically  !
 ! D21   D(1,5,12,15)         -120.0437         calculate D2E/DX2 analytically  !
 ! D22   D(3,6,9,2)            -15.1055         calculate D2E/DX2 analytically  !
 ! D23   D(3,6,9,10)          -176.6756         calculate D2E/DX2 analytically  !
 ! D24   D(3,6,9,11)           110.9757         calculate D2E/DX2 analytically  !
 ! D25   D(7,6,9,2)            172.4294         calculate D2E/DX2 analytically  !
 ! D26   D(7,6,9,10)            10.8593         calculate D2E/DX2 analytically  !
 ! D27   D(7,6,9,11)           -61.4894         calculate D2E/DX2 analytically  !
 ! D28   D(13,6,9,2)           138.9677         calculate D2E/DX2 analytically  !
 ! D29   D(13,6,9,10)          -22.6024         calculate D2E/DX2 analytically  !
 ! D30   D(13,6,9,11)          -94.9511         calculate D2E/DX2 analytically  !
 ! D31   D(1,6,13,10)           27.8815         calculate D2E/DX2 analytically  !
 ! D32   D(1,6,13,16)          -98.3392         calculate D2E/DX2 analytically  !
 ! D33   D(1,6,13,18)          144.7355         calculate D2E/DX2 analytically  !
 ! D34   D(3,6,13,10)          111.879          calculate D2E/DX2 analytically  !
 ! D35   D(3,6,13,16)          -14.3418         calculate D2E/DX2 analytically  !
 ! D36   D(3,6,13,18)         -131.2671         calculate D2E/DX2 analytically  !
 ! D37   D(4,6,13,10)          -20.9153         calculate D2E/DX2 analytically  !
 ! D38   D(4,6,13,16)         -147.136          calculate D2E/DX2 analytically  !
 ! D39   D(4,6,13,18)           95.9387         calculate D2E/DX2 analytically  !
 ! D40   D(9,6,13,10)           28.2713         calculate D2E/DX2 analytically  !
 ! D41   D(9,6,13,16)          -97.9494         calculate D2E/DX2 analytically  !
 ! D42   D(9,6,13,18)          145.1253         calculate D2E/DX2 analytically  !
 ! D43   D(13,8,9,1)          -122.1016         calculate D2E/DX2 analytically  !
 ! D44   D(13,8,9,2)          -174.9851         calculate D2E/DX2 analytically  !
 ! D45   D(13,8,9,4)           -64.135          calculate D2E/DX2 analytically  !
 ! D46   D(13,8,9,10)           21.454          calculate D2E/DX2 analytically  !
 ! D47   D(13,8,9,11)           80.5371         calculate D2E/DX2 analytically  !
 ! D48   D(9,8,13,7)            90.9639         calculate D2E/DX2 analytically  !
 ! D49   D(9,8,13,10)          -26.3729         calculate D2E/DX2 analytically  !
 ! D50   D(9,8,13,16)         -138.3084         calculate D2E/DX2 analytically  !
 ! D51   D(9,8,13,18)         -179.2645         calculate D2E/DX2 analytically  !
 ! D52   D(1,9,10,13)           64.4428         calculate D2E/DX2 analytically  !
 ! D53   D(2,9,10,13)          -82.3555         calculate D2E/DX2 analytically  !
 ! D54   D(4,9,10,13)           81.673          calculate D2E/DX2 analytically  !
 ! D55   D(6,9,10,13)           28.0977         calculate D2E/DX2 analytically  !
 ! D56   D(8,9,10,13)          -24.3048         calculate D2E/DX2 analytically  !
 ! D57   D(11,9,10,13)         178.6072         calculate D2E/DX2 analytically  !
 ! D58   D(1,9,11,12)            6.7501         calculate D2E/DX2 analytically  !
 ! D59   D(2,9,11,12)           61.1492         calculate D2E/DX2 analytically  !
 ! D60   D(4,9,11,12)          -51.3579         calculate D2E/DX2 analytically  !
 ! D61   D(6,9,11,12)          -64.9338         calculate D2E/DX2 analytically  !
 ! D62   D(8,9,11,12)          162.7591         calculate D2E/DX2 analytically  !
 ! D63   D(10,9,11,12)        -138.3151         calculate D2E/DX2 analytically  !
 ! D64   D(9,10,13,6)          -28.31           calculate D2E/DX2 analytically  !
 ! D65   D(9,10,13,7)          -77.4662         calculate D2E/DX2 analytically  !
 ! D66   D(9,10,13,8)           24.1194         calculate D2E/DX2 analytically  !
 ! D67   D(9,10,13,16)         108.3562         calculate D2E/DX2 analytically  !
 ! D68   D(9,10,13,18)        -165.0376         calculate D2E/DX2 analytically  !
 ! D69   D(9,11,12,5)           -9.8158         calculate D2E/DX2 analytically  !
 ! D70   D(9,11,12,14)        -130.2899         calculate D2E/DX2 analytically  !
 ! D71   D(9,11,12,15)         117.1509         calculate D2E/DX2 analytically  !
 ! D72   D(6,13,16,17)        -137.8102         calculate D2E/DX2 analytically  !
 ! D73   D(7,13,16,17)         -71.204          calculate D2E/DX2 analytically  !
 ! D74   D(8,13,16,17)        -167.0307         calculate D2E/DX2 analytically  !
 ! D75   D(10,13,16,17)        101.8601         calculate D2E/DX2 analytically  !
 ! D76   D(18,13,16,17)          0.0            calculate D2E/DX2 analytically  !
 ! D77   D(6,13,18,19)         134.7809         calculate D2E/DX2 analytically  !
 ! D78   D(7,13,18,19)         133.9214         calculate D2E/DX2 analytically  !
 ! D79   D(8,13,18,19)          41.1471         calculate D2E/DX2 analytically  !
 ! D80   D(10,13,18,19)       -110.8924         calculate D2E/DX2 analytically  !
 ! D81   D(16,13,18,19)          0.0            calculate D2E/DX2 analytically  !
 ! D82   D(13,16,17,19)          0.0            calculate D2E/DX2 analytically  !
 ! D83   D(16,17,19,18)          0.0            calculate D2E/DX2 analytically  !
 ! D84   D(13,18,19,17)          0.0            calculate D2E/DX2 analytically  !
 --------------------------------------------------------------------------------
 Trust Radius=3.00D-01 FncErr=1.00D-07 GrdErr=1.00D-06 EigMax=2.50D+02 EigMin=1.00D-04
 Number of steps in this run=    114 maximum allowed number of steps=    114.
 Search for a saddle point of order  1.
 GradGradGradGradGradGradGradGradGradGradGradGradGradGradGradGradGradGrad

                          Input orientation:                          
 ---------------------------------------------------------------------
 Center     Atomic      Atomic             Coordinates (Angstroms)
 Number     Number       Type             X           Y           Z
 ---------------------------------------------------------------------
      1         42           0       -0.059414    1.936332   12.054931
      2         16           0        0.267847    4.127686   12.546638
      3         16           0       -2.372960    1.611886   12.144396
      4         16           0        0.271604    1.457179    9.699102
      5         16           0        1.800709    0.864057   12.823349
      6         42           0       -1.942770    2.215823    9.895828
      7         16           0       -2.738166    1.637908    7.879037
      8         16           0       -1.991877    4.544992   10.119626
      9         42           0        0.357396    3.761928   10.196276
     10         16           0        0.235291    4.229791    7.549083
     11         16           0        2.643265    4.022728    9.865048
     12         42           0        3.139464    2.183931   11.310517
     13         42           0       -1.942869    3.954368    7.712025
     14         16           0        4.605294    2.984892   12.606007
     15         16           0        4.086797    0.767226   10.055940
     16         16           0       -3.131909    6.010271    7.468862
     17          1           0       -3.524921    5.640983    5.937312
     18         16           0       -2.657442    3.674696    5.469423
     19          1           0       -3.416790    5.144804    5.531585
 ---------------------------------------------------------------------
                    Distance matrix (angstroms):
                    1          2          3          4          5
     1  Mo   0.000000
     2  S    2.269561   0.000000
     3  S    2.337897   3.669456   0.000000
     4  S    2.426745   3.903855   3.605151   0.000000
     5  S    2.280416   3.616284   4.294152   3.528580   0.000000
     6  Mo   2.878693   3.945737   2.367670   2.348977   4.940778
     7  S    4.970197   6.084538   4.281044   3.521933   6.756216
     8  S    3.779540   3.342287   3.584415   3.851594   5.936591
     9  Mo   2.638395   2.380336   3.984055   2.359324   4.169211
    10  S    5.064531   4.998704   5.896889   3.508743   6.449541
    11  S    4.056243   3.583930   6.014158   3.497764   4.408928
    12  Mo   3.293672   3.681353   5.604410   3.368894   2.413088
    13  Mo   5.145941   5.318908   5.031711   3.884368   7.049116
    14  S    4.812760   4.485861   7.127009   5.437359   3.522907
    15  S    4.749088   5.663978   6.841313   3.893465   3.590839
    16  S    6.860702   6.394238   6.463932   6.106433   8.915423
    17  H    7.947292   7.769064   7.489228   6.787406   9.929696
    18  S    7.289758   7.671342   6.992237   5.602399   9.047377
    19  H    8.007515   7.988870   7.569700   6.676153   9.935638
                    6          7          8          9         10
     6  Mo   0.000000
     7  S    2.243677   0.000000
     8  S    2.340411   3.745440   0.000000
     9  Mo   2.787736   4.411753   2.477529   0.000000
    10  S    3.782490   3.958304   3.415746   2.690992   0.000000
    11  S    4.929257   6.212198   4.671414   2.324419   3.347373
    12  Mo   5.275553   6.827864   5.772650   3.386962   5.173795
    13  Mo   2.791332   2.454868   2.479472   3.391129   2.201542
    14  S    7.128371   8.836573   7.220711   4.945223   6.798469
    15  S    6.203205   7.216447   7.157224   4.785015   5.753937
    16  S    4.658546   4.409176   3.236242   4.966798   3.809801
    17  H    5.468526   4.518173   4.587284   6.061519   4.327640
    18  S    4.715096   3.156147   4.777529   5.607138   3.605693
    19  H    5.458780   4.274269   4.841515   6.157610   4.271445
                   11         12         13         14         15
    11  S    0.000000
    12  Mo   2.390976   0.000000
    13  Mo   5.066834   6.474079   0.000000
    14  S    3.526970   2.113880   8.232216   0.000000
    15  S    3.566303   2.116236   7.211705   3.419024   0.000000
    16  S    6.560844   8.290314   2.387401   9.767676   9.289360
    17  H    7.489485   9.232366   2.914990  10.845585   9.932515
    18  S    6.894936   8.363305   2.370252  10.205586   8.658769
    19  H    7.534071   9.227529   2.888581  10.911759   9.794733
                   16         17         18         19
    16  S    0.000000
    17  H    1.623724   0.000000
    18  S    3.110914   2.199483   0.000000
    19  H    2.140849   0.650000   1.655805   0.000000
 Symmetry turned off by external request.
 Stoichiometry    H2Mo5S12
 Framework group  C1[X(H2Mo5S12)]
 Deg. of freedom    51
 Full point group                 C1      NOp   1
 Rotational constants (GHZ):           0.1910905           0.0705325           0.0628949
 General basis read from cards:  (5D, 7F)
 ======================================================================================================
                                       Pseudopotential Parameters
 ======================================================================================================
  Center     Atomic      Valence      Angular      Power
  Number     Number     Electrons     Momentum     of R      Exponent        Coefficient   SO-Coeffient
 ======================================================================================================
    1         42           14
                                      F and up 
                                                     0      537.9667807       -0.04694920    0.00000000
                                                     1      147.8982938      -20.20800840    0.00000000
                                                     2       45.7358898     -106.21163020    0.00000000
                                                     2       13.2911467      -41.81073680    0.00000000
                                                     2        4.7059961       -4.20541030    0.00000000
                                      S - F
                                                     0      110.2991760        2.80637170    0.00000000
                                                     1       23.2014645       44.51620120    0.00000000
                                                     2        5.3530131       82.77852270    0.00000000
                                      P - F
                                                     0       63.2901397        4.94208760    0.00000000
                                                     1       23.3315302       25.86049760    0.00000000
                                                     2       24.6759423      132.47087420    0.00000000
                                                     2        4.6493040       57.31497940    0.00000000
                                      D - F
                                                     0      104.4839977        3.00545910    0.00000000
                                                     1       66.2307245       26.36378510    0.00000000
                                                     2       39.1283176      183.38491990    0.00000000
                                                     2       13.1164437       98.44530680    0.00000000
                                                     2        3.6280263       22.49013770    0.00000000
    2         16
                                   No pseudopotential on this center.
    3         16
                                   No pseudopotential on this center.
    4         16
                                   No pseudopotential on this center.
    5         16
                                   No pseudopotential on this center.
    6         42           14
                                      F and up 
                                                     0      537.9667807       -0.04694920    0.00000000
                                                     1      147.8982938      -20.20800840    0.00000000
                                                     2       45.7358898     -106.21163020    0.00000000
                                                     2       13.2911467      -41.81073680    0.00000000
                                                     2        4.7059961       -4.20541030    0.00000000
                                      S - F
                                                     0      110.2991760        2.80637170    0.00000000
                                                     1       23.2014645       44.51620120    0.00000000
                                                     2        5.3530131       82.77852270    0.00000000
                                      P - F
                                                     0       63.2901397        4.94208760    0.00000000
                                                     1       23.3315302       25.86049760    0.00000000
                                                     2       24.6759423      132.47087420    0.00000000
                                                     2        4.6493040       57.31497940    0.00000000
                                      D - F
                                                     0      104.4839977        3.00545910    0.00000000
                                                     1       66.2307245       26.36378510    0.00000000
                                                     2       39.1283176      183.38491990    0.00000000
                                                     2       13.1164437       98.44530680    0.00000000
                                                     2        3.6280263       22.49013770    0.00000000
    7         16
                                   No pseudopotential on this center.
    8         16
                                   No pseudopotential on this center.
    9         42           14
                                      F and up 
                                                     0      537.9667807       -0.04694920    0.00000000
                                                     1      147.8982938      -20.20800840    0.00000000
                                                     2       45.7358898     -106.21163020    0.00000000
                                                     2       13.2911467      -41.81073680    0.00000000
                                                     2        4.7059961       -4.20541030    0.00000000
                                      S - F
                                                     0      110.2991760        2.80637170    0.00000000
                                                     1       23.2014645       44.51620120    0.00000000
                                                     2        5.3530131       82.77852270    0.00000000
                                      P - F
                                                     0       63.2901397        4.94208760    0.00000000
                                                     1       23.3315302       25.86049760    0.00000000
                                                     2       24.6759423      132.47087420    0.00000000
                                                     2        4.6493040       57.31497940    0.00000000
                                      D - F
                                                     0      104.4839977        3.00545910    0.00000000
                                                     1       66.2307245       26.36378510    0.00000000
                                                     2       39.1283176      183.38491990    0.00000000
                                                     2       13.1164437       98.44530680    0.00000000
                                                     2        3.6280263       22.49013770    0.00000000
   10         16
                                   No pseudopotential on this center.
   11         16
                                   No pseudopotential on this center.
   12         42           14
                                      F and up 
                                                     0      537.9667807       -0.04694920    0.00000000
                                                     1      147.8982938      -20.20800840    0.00000000
                                                     2       45.7358898     -106.21163020    0.00000000
                                                     2       13.2911467      -41.81073680    0.00000000
                                                     2        4.7059961       -4.20541030    0.00000000
                                      S - F
                                                     0      110.2991760        2.80637170    0.00000000
                                                     1       23.2014645       44.51620120    0.00000000
                                                     2        5.3530131       82.77852270    0.00000000
                                      P - F
                                                     0       63.2901397        4.94208760    0.00000000
                                                     1       23.3315302       25.86049760    0.00000000
                                                     2       24.6759423      132.47087420    0.00000000
                                                     2        4.6493040       57.31497940    0.00000000
                                      D - F
                                                     0      104.4839977        3.00545910    0.00000000
                                                     1       66.2307245       26.36378510    0.00000000
                                                     2       39.1283176      183.38491990    0.00000000
                                                     2       13.1164437       98.44530680    0.00000000
                                                     2        3.6280263       22.49013770    0.00000000
   13         42           14
                                      F and up 
                                                     0      537.9667807       -0.04694920    0.00000000
                                                     1      147.8982938      -20.20800840    0.00000000
                                                     2       45.7358898     -106.21163020    0.00000000
                                                     2       13.2911467      -41.81073680    0.00000000
                                                     2        4.7059961       -4.20541030    0.00000000
                                      S - F
                                                     0      110.2991760        2.80637170    0.00000000
                                                     1       23.2014645       44.51620120    0.00000000
                                                     2        5.3530131       82.77852270    0.00000000
                                      P - F
                                                     0       63.2901397        4.94208760    0.00000000
                                                     1       23.3315302       25.86049760    0.00000000
                                                     2       24.6759423      132.47087420    0.00000000
                                                     2        4.6493040       57.31497940    0.00000000
                                      D - F
                                                     0      104.4839977        3.00545910    0.00000000
                                                     1       66.2307245       26.36378510    0.00000000
                                                     2       39.1283176      183.38491990    0.00000000
                                                     2       13.1164437       98.44530680    0.00000000
                                                     2        3.6280263       22.49013770    0.00000000
   14         16
                                   No pseudopotential on this center.
   15         16
                                   No pseudopotential on this center.
   16         16
                                   No pseudopotential on this center.
   17          1
                                   No pseudopotential on this center.
   18         16
                                   No pseudopotential on this center.
   19          1
                                   No pseudopotential on this center.
 ======================================================================================================
   336 basis functions,   883 primitive gaussians,   358 cartesian basis functions
   132 alpha electrons      132 beta electrons
       nuclear repulsion energy      4238.3685154156 Hartrees.
 NAtoms=   19 NActive=   19 NUniq=   19 SFac= 1.00D+00 NAtFMM=   60 NAOKFM=F Big=F
 Integral buffers will be    131072 words long.
 Raffenetti 2 integral format.
 Two-electron integral symmetry is turned off.
 One-electron integrals computed using PRISM.
   1 Symmetry operations used in ECPInt.
 ECPInt:  NShTT=    5671 NPrTT=   45317 LenC2=    5059 LenP2D=   25827.
 LDataN:  DoStor=T MaxTD1= 5 Len=  102
 NBasis=   336 RedAO= T EigKep=  1.00D-03  NBF=   336
 NBsUse=   336 1.00D-06 EigRej= -1.00D+00 NBFU=   336
 Defaulting to unpruned grid for atomic number  42.
 Defaulting to unpruned grid for atomic number  42.
 Defaulting to unpruned grid for atomic number  42.
 Defaulting to unpruned grid for atomic number  42.
 Defaulting to unpruned grid for atomic number  42.
 ExpMin= 2.47D-02 ExpMax= 2.19D+04 ExpMxC= 3.30D+03 IAcc=3 IRadAn=         5 AccDes= 0.00D+00
 Harris functional with IExCor=  402 and IRadAn=       5 diagonalized for initial guess.
 HarFok:  IExCor=  402 AccDes= 0.00D+00 IRadAn=         5 IDoV= 1 UseB2=F ITyADJ=14
 ICtDFT=  3500011 ScaDFX=  1.000000  1.000000  1.000000  1.000000
 Defaulting to unpruned grid for atomic number  42.
 FoFCou: FMM=F IPFlag=           0 FMFlag=      100000 FMFlg1=           0
         NFxFlg=           0 DoJE=T BraDBF=F KetDBF=T FulRan=T
         wScrn=  0.000000 ICntrl=       500 IOpCl=  0 I1Cent=   200000004 NGrid=           0
         NMat0=    1 NMatS0=      1 NMatT0=    0 NMatD0=    1 NMtDS0=    0 NMtDT0=    0
 Symmetry not used in FoFCou.
 Requested convergence on RMS density matrix=1.00D-08 within 128 cycles.
 Requested convergence on MAX density matrix=1.00D-06.
 Requested convergence on             energy=1.00D-06.
 No special actions if energy rises.
 Defaulting to unpruned grid for atomic number  42.
 Defaulting to unpruned grid for atomic number  42.
 Defaulting to unpruned grid for atomic number  42.
 Defaulting to unpruned grid for atomic number  42.
 Defaulting to unpruned grid for atomic number  42.
 Defaulting to unpruned grid for atomic number  42.
 Defaulting to unpruned grid for atomic number  42.
 Defaulting to unpruned grid for atomic number  42.
 Defaulting to unpruned grid for atomic number  42.
 Defaulting to unpruned grid for atomic number  42.
 Defaulting to unpruned grid for atomic number  42.
 Defaulting to unpruned grid for atomic number  42.
 Defaulting to unpruned grid for atomic number  42.
 Defaulting to unpruned grid for atomic number  42.
 Defaulting to unpruned grid for atomic number  42.
 Defaulting to unpruned grid for atomic number  42.
 Defaulting to unpruned grid for atomic number  42.
 Defaulting to unpruned grid for atomic number  42.
 Defaulting to unpruned grid for atomic number  42.
 Defaulting to unpruned grid for atomic number  42.
 Defaulting to unpruned grid for atomic number  42.
 Defaulting to unpruned grid for atomic number  42.
 Defaulting to unpruned grid for atomic number  42.
 Defaulting to unpruned grid for atomic number  42.
 Defaulting to unpruned grid for atomic number  42.
 Defaulting to unpruned grid for atomic number  42.
 Defaulting to unpruned grid for atomic number  42.
 Defaulting to unpruned grid for atomic number  42.
 Defaulting to unpruned grid for atomic number  42.
 Defaulting to unpruned grid for atomic number  42.
 Defaulting to unpruned grid for atomic number  42.
 Defaulting to unpruned grid for atomic number  42.
 Defaulting to unpruned grid for atomic number  42.
 Defaulting to unpruned grid for atomic number  42.
 Defaulting to unpruned grid for atomic number  42.
 Defaulting to unpruned grid for atomic number  42.
 Defaulting to unpruned grid for atomic number  42.
 Defaulting to unpruned grid for atomic number  42.
 Defaulting to unpruned grid for atomic number  42.
 Defaulting to unpruned grid for atomic number  42.
 Defaulting to unpruned grid for atomic number  42.
 Defaulting to unpruned grid for atomic number  42.
 Defaulting to unpruned grid for atomic number  42.
 Defaulting to unpruned grid for atomic number  42.
 Defaulting to unpruned grid for atomic number  42.
 Defaulting to unpruned grid for atomic number  42.
 EnCoef did     9 forward-backward iterations
 EnCoef did   100 forward-backward iterations
 EnCoef did   100 forward-backward iterations
 EnCoef did     1 forward-backward iterations
 EnCoef did     5 forward-backward iterations
 EnCoef did     3 forward-backward iterations
 EnCoef did     4 forward-backward iterations
 EnCoef did     2 forward-backward iterations
 EnCoef did     5 forward-backward iterations
 EnCoef did     4 forward-backward iterations
 EnCoef did     2 forward-backward iterations
 Restarting incremental Fock formation.
 SCF Done:  E(RB3LYP) =  -5117.61498171     A.U. after   29 cycles
            NFock= 29  Conv=0.51D-08     -V/T= 2.0484
 DoSCS=F DFT=T ScalE2(SS,OS)=  1.000000  1.000000
 Range of M.O.s used for correlation:     1   336
 NBasis=   336 NAE=   132 NBE=   132 NFC=     0 NFV=     0
 NROrb=    336 NOA=   132 NOB=   132 NVA=   204 NVB=   204

 **** Warning!!: The smallest alpha delta epsilon is  0.66219844D-01

   1 Symmetry operations used in ECPInt.
 ECPInt:  NShTT=    5671 NPrTT=   45317 LenC2=    5059 LenP2D=   25827.
 LDataN:  DoStor=T MaxTD1= 6 Len=  172
 Symmetrizing basis deriv contribution to polar:
 IMax=3 JMax=2 DiffMx= 0.00D+00
 G2DrvN: will do    20 centers at a time, making    1 passes.
 Calling FoFCou, ICntrl=  3107 FMM=F I1Cent=   0 AccDes= 0.00D+00.
 Defaulting to unpruned grid for atomic number  42.
 Defaulting to unpruned grid for atomic number  42.
 Defaulting to unpruned grid for atomic number  42.
 Defaulting to unpruned grid for atomic number  42.
 Defaulting to unpruned grid for atomic number  42.
 Defaulting to unpruned grid for atomic number  42.
 Defaulting to unpruned grid for atomic number  42.
 Defaulting to unpruned grid for atomic number  42.
 Defaulting to unpruned grid for atomic number  42.
 Defaulting to unpruned grid for atomic number  42.
 Defaulting to unpruned grid for atomic number  42.
 Defaulting to unpruned grid for atomic number  42.
 Defaulting to unpruned grid for atomic number  42.
 Defaulting to unpruned grid for atomic number  42.
 Defaulting to unpruned grid for atomic number  42.
 Defaulting to unpruned grid for atomic number  42.
 Defaulting to unpruned grid for atomic number  42.
 Defaulting to unpruned grid for atomic number  42.
 Defaulting to unpruned grid for atomic number  42.
 Defaulting to unpruned grid for atomic number  42.
 Defaulting to unpruned grid for atomic number  42.
 Defaulting to unpruned grid for atomic number  42.
 Defaulting to unpruned grid for atomic number  42.
 Defaulting to unpruned grid for atomic number  42.
 Defaulting to unpruned grid for atomic number  42.
 Defaulting to unpruned grid for atomic number  42.
 Defaulting to unpruned grid for atomic number  42.
 Defaulting to unpruned grid for atomic number  42.
 Defaulting to unpruned grid for atomic number  42.
 Defaulting to unpruned grid for atomic number  42.
 Defaulting to unpruned grid for atomic number  42.
 Defaulting to unpruned grid for atomic number  42.
 Defaulting to unpruned grid for atomic number  42.
 Defaulting to unpruned grid for atomic number  42.
 Defaulting to unpruned grid for atomic number  42.
 Defaulting to unpruned grid for atomic number  42.
 Defaulting to unpruned grid for atomic number  42.
 Defaulting to unpruned grid for atomic number  42.
 Defaulting to unpruned grid for atomic number  42.
 Defaulting to unpruned grid for atomic number  42.
 Defaulting to unpruned grid for atomic number  42.
 Defaulting to unpruned grid for atomic number  42.
 Defaulting to unpruned grid for atomic number  42.
 Defaulting to unpruned grid for atomic number  42.
 Defaulting to unpruned grid for atomic number  42.
 Defaulting to unpruned grid for atomic number  42.
 End of G2Drv F.D. properties file   721 does not exist.
 End of G2Drv F.D. properties file   722 does not exist.
 End of G2Drv F.D. properties file   788 does not exist.
          IDoAtm=1111111111111111111
          Differentiating once with respect to nuclear coordinates.
 Defaulting to unpruned grid for atomic number  42.
 Defaulting to unpruned grid for atomic number  42.
 Defaulting to unpruned grid for atomic number  42.
 Defaulting to unpruned grid for atomic number  42.
 Defaulting to unpruned grid for atomic number  42.
 Keep R1 ints in memory in canonical form, NReq=1655793354.
 Defaulting to unpruned grid for atomic number  42.
 Defaulting to unpruned grid for atomic number  42.
 Defaulting to unpruned grid for atomic number  42.
 Defaulting to unpruned grid for atomic number  42.
 Defaulting to unpruned grid for atomic number  42.
 Defaulting to unpruned grid for atomic number  42.
 Defaulting to unpruned grid for atomic number  42.
 Defaulting to unpruned grid for atomic number  42.
 Defaulting to unpruned grid for atomic number  42.
 Defaulting to unpruned grid for atomic number  42.
 Defaulting to unpruned grid for atomic number  42.
 Defaulting to unpruned grid for atomic number  42.
 Defaulting to unpruned grid for atomic number  42.
 Defaulting to unpruned grid for atomic number  42.
 Defaulting to unpruned grid for atomic number  42.
 Defaulting to unpruned grid for atomic number  42.
 Defaulting to unpruned grid for atomic number  42.
 Defaulting to unpruned grid for atomic number  42.
 Defaulting to unpruned grid for atomic number  42.
 Defaulting to unpruned grid for atomic number  42.
 Defaulting to unpruned grid for atomic number  42.
 Defaulting to unpruned grid for atomic number  42.
 Defaulting to unpruned grid for atomic number  42.
 Defaulting to unpruned grid for atomic number  42.
 Defaulting to unpruned grid for atomic number  42.
 Defaulting to unpruned grid for atomic number  42.
 Defaulting to unpruned grid for atomic number  42.
 Defaulting to unpruned grid for atomic number  42.
 Defaulting to unpruned grid for atomic number  42.
 Defaulting to unpruned grid for atomic number  42.
 Defaulting to unpruned grid for atomic number  42.
 Defaulting to unpruned grid for atomic number  42.
 Defaulting to unpruned grid for atomic number  42.
 Defaulting to unpruned grid for atomic number  42.
 Defaulting to unpruned grid for atomic number  42.
 Defaulting to unpruned grid for atomic number  42.
 Defaulting to unpruned grid for atomic number  42.
 Defaulting to unpruned grid for atomic number  42.
 Defaulting to unpruned grid for atomic number  42.
 Defaulting to unpruned grid for atomic number  42.
 Defaulting to unpruned grid for atomic number  42.
 Defaulting to unpruned grid for atomic number  42.
 Defaulting to unpruned grid for atomic number  42.
 Defaulting to unpruned grid for atomic number  42.
 Defaulting to unpruned grid for atomic number  42.
 Defaulting to unpruned grid for atomic number  42.
          There are    60 degrees of freedom in the 1st order CPHF.  IDoFFX=6 NUNeed=     0.
     54 vectors produced by pass  0 Test12= 4.49D-14 1.67D-09 XBig12= 2.81D-01 1.38D-01.
 AX will form    54 AO Fock derivatives at one time.
     54 vectors produced by pass  1 Test12= 4.49D-14 1.67D-09 XBig12= 1.60D-01 8.16D-02.
     54 vectors produced by pass  2 Test12= 4.49D-14 1.67D-09 XBig12= 2.51D-02 2.29D-02.
     54 vectors produced by pass  3 Test12= 4.49D-14 1.67D-09 XBig12= 1.69D-03 6.27D-03.
     54 vectors produced by pass  4 Test12= 4.49D-14 1.67D-09 XBig12= 3.05D-05 6.44D-04.
     54 vectors produced by pass  5 Test12= 4.49D-14 1.67D-09 XBig12= 3.02D-07 6.36D-05.
     54 vectors produced by pass  6 Test12= 4.49D-14 1.67D-09 XBig12= 2.57D-09 5.29D-06.
     53 vectors produced by pass  7 Test12= 4.49D-14 1.67D-09 XBig12= 1.71D-11 3.78D-07.
     23 vectors produced by pass  8 Test12= 4.49D-14 1.67D-09 XBig12= 9.09D-14 2.76D-08.
      1 vectors produced by pass  9 Test12= 4.49D-14 1.67D-09 XBig12= 3.79D-16 1.77D-09.
 InvSVY:  IOpt=1 It=  1 EMax= 5.55D-16
 Solved reduced A of dimension   455 with    60 vectors.
 End of Minotr F.D. properties file   721 does not exist.
 End of Minotr F.D. properties file   722 does not exist.
 End of Minotr F.D. properties file   788 does not exist.

 **********************************************************************

            Population analysis using the SCF Density.

 **********************************************************************

 Alpha  occ. eigenvalues --  -88.93917 -88.92333 -88.91088 -88.90268 -88.90180
 Alpha  occ. eigenvalues --  -88.90123 -88.90091 -88.89547 -88.89534 -88.89182
 Alpha  occ. eigenvalues --  -88.87866 -88.87671  -8.01501  -7.99889  -7.98869
 Alpha  occ. eigenvalues --   -7.98138  -7.98005  -7.97905  -7.97857  -7.97463
 Alpha  occ. eigenvalues --   -7.97325  -7.96989  -7.95406  -7.95245  -5.97532
 Alpha  occ. eigenvalues --   -5.97441  -5.97395  -5.95902  -5.95855  -5.95785
 Alpha  occ. eigenvalues --   -5.94876  -5.94833  -5.94730  -5.94190  -5.94110
 Alpha  occ. eigenvalues --   -5.94073  -5.93982  -5.93936  -5.93916  -5.93886
 Alpha  occ. eigenvalues --   -5.93863  -5.93795  -5.93780  -5.93755  -5.93741
 Alpha  occ. eigenvalues --   -5.93494  -5.93459  -5.93441  -5.93296  -5.93233
 Alpha  occ. eigenvalues --   -5.93075  -5.93028  -5.92958  -5.92808  -5.91751
 Alpha  occ. eigenvalues --   -5.91538  -5.91326  -5.91187  -5.91025  -5.90885
 Alpha  occ. eigenvalues --   -2.58608  -2.57806  -2.57371  -2.56715  -2.56191
 Alpha  occ. eigenvalues --   -1.61463  -1.61185  -1.60993  -1.60589  -1.60456
 Alpha  occ. eigenvalues --   -1.60228  -1.59843  -1.59636  -1.59488  -1.59223
 Alpha  occ. eigenvalues --   -1.59023  -1.58294  -1.58134  -1.57590  -1.57328
 Alpha  occ. eigenvalues --   -0.77455  -0.75881  -0.74504  -0.73956  -0.73342
 Alpha  occ. eigenvalues --   -0.72971  -0.72327  -0.71678  -0.71444  -0.71060
 Alpha  occ. eigenvalues --   -0.70581  -0.68084  -0.53219  -0.44227  -0.43808
 Alpha  occ. eigenvalues --   -0.43377  -0.42799  -0.41842  -0.41173  -0.40800
 Alpha  occ. eigenvalues --   -0.39955  -0.39389  -0.38977  -0.38711  -0.38435
 Alpha  occ. eigenvalues --   -0.37989  -0.37647  -0.37160  -0.36973  -0.36545
 Alpha  occ. eigenvalues --   -0.35712  -0.35670  -0.35283  -0.35040  -0.34606
 Alpha  occ. eigenvalues --   -0.34403  -0.34252  -0.33298  -0.32397  -0.31788
 Alpha  occ. eigenvalues --   -0.31522  -0.30988  -0.30851  -0.30411  -0.29359
 Alpha  occ. eigenvalues --   -0.29170  -0.28641  -0.27502  -0.26543  -0.25859
 Alpha  occ. eigenvalues --   -0.25477  -0.24762
 Alpha virt. eigenvalues --   -0.18140  -0.17424  -0.16650  -0.15604  -0.15377
 Alpha virt. eigenvalues --   -0.14954  -0.14685  -0.14383  -0.13774  -0.13197
 Alpha virt. eigenvalues --   -0.12446  -0.11948  -0.11739  -0.11175  -0.10192
 Alpha virt. eigenvalues --   -0.10027  -0.09463  -0.08642  -0.08178  -0.07694
 Alpha virt. eigenvalues --   -0.07072  -0.04455  -0.01354   0.00191   0.00846
 Alpha virt. eigenvalues --    0.01503   0.02539   0.02665   0.03605   0.03706
 Alpha virt. eigenvalues --    0.03990   0.04780   0.05239   0.05918   0.06079
 Alpha virt. eigenvalues --    0.06168   0.06747   0.07840   0.09079   0.09702
 Alpha virt. eigenvalues --    0.10081   0.11348   0.12386   0.13892   0.15422
 Alpha virt. eigenvalues --    0.15556   0.16462   0.17443   0.18382   0.18871
 Alpha virt. eigenvalues --    0.19002   0.19965   0.20903   0.22506   0.22985
 Alpha virt. eigenvalues --    0.24741   0.25914   0.26392   0.26823   0.27871
 Alpha virt. eigenvalues --    0.28020   0.28914   0.29323   0.29384   0.30025
 Alpha virt. eigenvalues --    0.31041   0.31555   0.31980   0.32399   0.33281
 Alpha virt. eigenvalues --    0.33736   0.33942   0.34534   0.34731   0.35113
 Alpha virt. eigenvalues --    0.35697   0.36250   0.36551   0.36709   0.37091
 Alpha virt. eigenvalues --    0.37504   0.38341   0.38581   0.39150   0.39457
 Alpha virt. eigenvalues --    0.39897   0.40511   0.40635   0.41301   0.41525
 Alpha virt. eigenvalues --    0.41922   0.42517   0.42887   0.43186   0.44235
 Alpha virt. eigenvalues --    0.44289   0.44911   0.45596   0.46241   0.46577
 Alpha virt. eigenvalues --    0.47093   0.47774   0.48956   0.49331   0.50677
 Alpha virt. eigenvalues --    0.51195   0.52507   0.53131   0.53433   0.54591
 Alpha virt. eigenvalues --    0.54970   0.55990   0.56584   0.57453   0.58262
 Alpha virt. eigenvalues --    0.59183   0.59798   0.60575   0.61314   0.61959
 Alpha virt. eigenvalues --    0.62589   0.63873   0.65369   0.66180   0.67311
 Alpha virt. eigenvalues --    0.68146   0.69054   0.70327   0.71192   0.71905
 Alpha virt. eigenvalues --    0.73158   0.73628   0.73880   0.74161   0.74367
 Alpha virt. eigenvalues --    0.74926   0.75566   0.76030   0.76401   0.76852
 Alpha virt. eigenvalues --    0.77216   0.77882   0.78699   0.78986   0.79966
 Alpha virt. eigenvalues --    0.80213   0.80579   0.81703   0.81875   0.82644
 Alpha virt. eigenvalues --    0.83602   0.84100   0.84371   0.84736   0.85680
 Alpha virt. eigenvalues --    0.87052   0.87874   0.88566   0.89486   0.89850
 Alpha virt. eigenvalues --    0.90820   0.91254   0.92995   0.93117   0.94307
 Alpha virt. eigenvalues --    0.95235   0.96053   0.96904   0.97626   0.98544
 Alpha virt. eigenvalues --    0.99851   1.00248   1.00447   1.00943   1.01893
 Alpha virt. eigenvalues --    1.02394   1.02906   1.03514   1.04580   1.04961
 Alpha virt. eigenvalues --    1.05202   1.06653   1.07539   1.08354   1.09027
 Alpha virt. eigenvalues --    1.09576   1.10691   1.13105   1.14779   1.15934
 Alpha virt. eigenvalues --    1.18878   1.24307   1.25222   1.64303   1.87725
 Alpha virt. eigenvalues --    2.61698   2.66293   2.91993   4.67631   7.18083
 Alpha virt. eigenvalues --    8.56814   9.97837  10.58890  14.62500
          Condensed to atoms (all electrons):
               1          2          3          4          5          6
     1  Mo  13.773299   0.271970   0.214960   0.104028   0.247178  -0.384866
     2  S    0.271970  15.541591   0.005782   0.008142  -0.021568  -0.040060
     3  S    0.214960   0.005782  15.689765  -0.035457  -0.004211   0.218256
     4  S    0.104028   0.008142  -0.035457  15.429167  -0.023685   0.181917
     5  S    0.247178  -0.021568  -0.004211  -0.023685  15.659361  -0.012656
     6  Mo  -0.384866  -0.040060   0.218256   0.181917  -0.012656  14.151705
     7  S   -0.014719  -0.000065   0.003993   0.005184   0.000064   0.239547
     8  S   -0.021452  -0.029071   0.008166   0.001278  -0.000210   0.226542
     9  Mo  -0.023617   0.222874  -0.027206   0.080269  -0.013124  -0.278422
    10  S    0.001559  -0.003123  -0.000197  -0.005808  -0.000005  -0.102424
    11  S   -0.017930  -0.035324  -0.000138  -0.020238  -0.000089  -0.016433
    12  Mo  -0.077807  -0.050597  -0.000267  -0.012191   0.230521   0.021112
    13  Mo   0.012529   0.000118  -0.017485  -0.015635   0.000083  -0.257466
    14  S   -0.009573   0.000881  -0.000001  -0.000272   0.000067   0.000361
    15  S   -0.011826  -0.000526  -0.000004  -0.004746  -0.003753  -0.000629
    16  S   -0.001199   0.000002   0.000023  -0.000013  -0.000000  -0.004076
    17  H    0.000012   0.000000   0.000000  -0.000000  -0.000000   0.001196
    18  S   -0.000746  -0.000001   0.000003   0.000164   0.000000  -0.014318
    19  H    0.000029   0.000000   0.000000  -0.000001  -0.000000   0.002835
               7          8          9         10         11         12
     1  Mo  -0.014719  -0.021452  -0.023617   0.001559  -0.017930  -0.077807
     2  S   -0.000065  -0.029071   0.222874  -0.003123  -0.035324  -0.050597
     3  S    0.003993   0.008166  -0.027206  -0.000197  -0.000138  -0.000267
     4  S    0.005184   0.001278   0.080269  -0.005808  -0.020238  -0.012191
     5  S    0.000064  -0.000210  -0.013124  -0.000005  -0.000089   0.230521
     6  Mo   0.239547   0.226542  -0.278422  -0.102424  -0.016433   0.021112
     7  S   15.653082  -0.025662  -0.013954   0.003489   0.000039   0.000335
     8  S   -0.025662  15.568082   0.099364  -0.052997  -0.007245   0.001004
     9  Mo  -0.013954   0.099364  14.111791   0.174445   0.248493  -0.088650
    10  S    0.003489  -0.052997   0.174445  15.710222  -0.021860   0.003192
    11  S    0.000039  -0.007245   0.248493  -0.021860  15.604419   0.257843
    12  Mo   0.000335   0.001004  -0.088650   0.003192   0.257843  12.761781
    13  Mo   0.178634   0.074041  -0.069008   0.307192   0.003502  -0.007262
    14  S   -0.000000  -0.000004  -0.007372  -0.000003  -0.001663   0.356308
    15  S    0.000001  -0.000002  -0.010438   0.000213  -0.005690   0.377088
    16  S    0.002813  -0.018589  -0.006876   0.012948   0.000008  -0.000021
    17  H    0.000181   0.000403  -0.000055  -0.000250   0.000000   0.000006
    18  S   -0.036982  -0.006932  -0.011220   0.001215   0.000001  -0.000119
    19  H    0.001317   0.000546  -0.000167  -0.000440  -0.000000   0.000002
              13         14         15         16         17         18
     1  Mo   0.012529  -0.009573  -0.011826  -0.001199   0.000012  -0.000746
     2  S    0.000118   0.000881  -0.000526   0.000002   0.000000  -0.000001
     3  S   -0.017485  -0.000001  -0.000004   0.000023   0.000000   0.000003
     4  S   -0.015635  -0.000272  -0.004746  -0.000013  -0.000000   0.000164
     5  S    0.000083   0.000067  -0.003753  -0.000000  -0.000000   0.000000
     6  Mo  -0.257466   0.000361  -0.000629  -0.004076   0.001196  -0.014318
     7  S    0.178634  -0.000000   0.000001   0.002813   0.000181  -0.036982
     8  S    0.074041  -0.000004  -0.000002  -0.018589   0.000403  -0.006932
     9  Mo  -0.069008  -0.007372  -0.010438  -0.006876  -0.000055  -0.011220
    10  S    0.307192  -0.000003   0.000213   0.012948  -0.000250   0.001215
    11  S    0.003502  -0.001663  -0.005690   0.000008   0.000000   0.000001
    12  Mo  -0.007262   0.356308   0.377088  -0.000021   0.000006  -0.000119
    13  Mo  13.437311  -0.000003  -0.000174   0.339843  -0.049361   0.349230
    14  S   -0.000003  15.744415   0.013585   0.000000  -0.000000   0.000000
    15  S   -0.000174   0.013585  15.749161  -0.000000   0.000000   0.000000
    16  S    0.339843   0.000000  -0.000000  15.689519   0.227309  -0.110493
    17  H   -0.049361  -0.000000   0.000000   0.227309   0.747471  -0.137253
    18  S    0.349230   0.000000   0.000000  -0.110493  -0.137253  15.710878
    19  H   -0.046385  -0.000000   0.000000  -0.144570   0.176640   0.227747
              19
     1  Mo   0.000029
     2  S    0.000000
     3  S    0.000000
     4  S   -0.000001
     5  S   -0.000000
     6  Mo   0.002835
     7  S    0.001317
     8  S    0.000546
     9  Mo  -0.000167
    10  S   -0.000440
    11  S   -0.000000
    12  Mo   0.000002
    13  Mo  -0.046385
    14  S   -0.000000
    15  S    0.000000
    16  S   -0.144570
    17  H    0.176640
    18  S    0.227747
    19  H    0.759593
 Mulliken charges:
               1
     1  Mo  -0.061830
     2  S    0.128975
     3  S   -0.055981
     4  S    0.307897
     5  S   -0.057971
     6  Mo   0.067880
     7  S    0.002702
     8  S    0.182738
     9  Mo  -0.387129
    10  S   -0.027368
    11  S    0.012304
    12  Mo   0.227721
    13  Mo  -0.239704
    14  S   -0.096727
    15  S   -0.102259
    16  S    0.013371
    17  H    0.033701
    18  S    0.028826
    19  H    0.022854
 Sum of Mulliken charges =  -0.00000
 Mulliken charges with hydrogens summed into heavy atoms:
               1
     1  Mo  -0.061830
     2  S    0.128975
     3  S   -0.055981
     4  S    0.307897
     5  S   -0.057971
     6  Mo   0.067880
     7  S    0.002702
     8  S    0.182738
     9  Mo  -0.387129
    10  S   -0.027368
    11  S    0.012304
    12  Mo   0.227721
    13  Mo  -0.239704
    14  S   -0.096727
    15  S   -0.102259
    16  S    0.047071
    18  S    0.051680
 APT charges:
               1
     1  Mo  -1.961558
     2  S    0.019539
     3  S    0.327759
     4  S    0.343082
     5  S    0.170255
     6  Mo   1.612307
     7  S   -1.381025
     8  S   -0.073994
     9  Mo   0.184250
    10  S   -0.174414
    11  S   -0.470161
    12  Mo  -0.950423
    13  Mo   1.572278
    14  S    2.061250
    15  S   -1.203781
    16  S   -0.019059
    17  H   -0.122974
    18  S   -0.221309
    19  H    0.287977
 Sum of APT charges =  -0.00000
 APT charges with hydrogens summed into heavy atoms:
               1
     1  Mo  -1.961558
     2  S    0.019539
     3  S    0.327759
     4  S    0.343082
     5  S    0.170255
     6  Mo   1.612307
     7  S   -1.381025
     8  S   -0.073994
     9  Mo   0.184250
    10  S   -0.174414
    11  S   -0.470161
    12  Mo  -0.950423
    13  Mo   1.572278
    14  S    2.061250
    15  S   -1.203781
    16  S   -0.142032
    18  S    0.066668
 Electronic spatial extent (au):  <R**2>=         113688.7543
 Charge=             -0.0000 electrons
 Dipole moment (field-independent basis, Debye):
    X=              0.2693    Y=             -1.1526    Z=              2.5113  Tot=              2.7763
 Quadrupole moment (field-independent basis, Debye-Ang):
   XX=           -278.9934   YY=           -280.6175   ZZ=           -228.0215
   XY=              2.9686   XZ=              0.7242   YZ=             -4.8821
 Traceless Quadrupole moment (field-independent basis, Debye-Ang):
   XX=            -16.4493   YY=            -18.0734   ZZ=             34.5226
   XY=              2.9686   XZ=              0.7242   YZ=             -4.8821
 Octapole moment (field-independent basis, Debye-Ang**2):
  XXX=             15.1079  YYY=          -2458.2666  ZZZ=          -7543.1130  XYY=             26.3518
  XXY=           -816.2874  XXZ=          -2785.2171  XZZ=              2.6429  YZZ=           -787.2948
  YYZ=          -2781.1811  XYZ=             36.1970
 Hexadecapole moment (field-independent basis, Debye-Ang**3):
 XXXX=          -9417.0580 YYYY=         -17954.5407 ZZZZ=        -162024.4323 XXXY=            972.0042
 XXXZ=          -1981.5094 YYYX=           1110.6752 YYYZ=         -23376.5519 ZZZX=          -2024.1365
 ZZZY=         -22195.4186 XXYY=          -4554.2252 XXZZ=         -30548.3466 YYZZ=         -31609.5787
 XXYZ=          -7820.6042 YYXZ=           -388.2330 ZZXY=            693.2200
 N-N= 4.238368515416D+03 E-N=-2.052165586621D+04  KE= 4.881365424953D+03
  Exact polarizability:       0.000       0.000       0.000       0.000       0.000       0.000
 Approx polarizability:    1689.398     -23.357    1253.143     334.219     -19.961    1555.845
   1 Symmetry operations used in ECPInt.
 ECPInt:  NShTT=    5671 NPrTT=   45317 LenC2=    5059 LenP2D=   25827.
 LDataN:  DoStor=T MaxTD1= 7 Len=  274
 Calling FoFJK, ICntrl=    100127 FMM=F ISym2X=0 I1Cent= 0 IOpClX= 0 NMat=1 NMatS=1 NMatT=0.
 Defaulting to unpruned grid for atomic number  42.
 Defaulting to unpruned grid for atomic number  42.
 Defaulting to unpruned grid for atomic number  42.
 Defaulting to unpruned grid for atomic number  42.
 Defaulting to unpruned grid for atomic number  42.
 Defaulting to unpruned grid for atomic number  42.
 Defaulting to unpruned grid for atomic number  42.
 Defaulting to unpruned grid for atomic number  42.
 Defaulting to unpruned grid for atomic number  42.
 Defaulting to unpruned grid for atomic number  42.
 Defaulting to unpruned grid for atomic number  42.
 Defaulting to unpruned grid for atomic number  42.
 Defaulting to unpruned grid for atomic number  42.
 Defaulting to unpruned grid for atomic number  42.
 Defaulting to unpruned grid for atomic number  42.
 Defaulting to unpruned grid for atomic number  42.
 Defaulting to unpruned grid for atomic number  42.
 Defaulting to unpruned grid for atomic number  42.
 Defaulting to unpruned grid for atomic number  42.
 Defaulting to unpruned grid for atomic number  42.
 Defaulting to unpruned grid for atomic number  42.
 Defaulting to unpruned grid for atomic number  42.
 Defaulting to unpruned grid for atomic number  42.
 Defaulting to unpruned grid for atomic number  42.
 Defaulting to unpruned grid for atomic number  42.
 Defaulting to unpruned grid for atomic number  42.
 Defaulting to unpruned grid for atomic number  42.
 Defaulting to unpruned grid for atomic number  42.
 Defaulting to unpruned grid for atomic number  42.
 Defaulting to unpruned grid for atomic number  42.
 Defaulting to unpruned grid for atomic number  42.
 Defaulting to unpruned grid for atomic number  42.
 Defaulting to unpruned grid for atomic number  42.
 Defaulting to unpruned grid for atomic number  42.
 Defaulting to unpruned grid for atomic number  42.
 Defaulting to unpruned grid for atomic number  42.
 Defaulting to unpruned grid for atomic number  42.
 Defaulting to unpruned grid for atomic number  42.
 Defaulting to unpruned grid for atomic number  42.
 Defaulting to unpruned grid for atomic number  42.
 Defaulting to unpruned grid for atomic number  42.
 Defaulting to unpruned grid for atomic number  42.
 Defaulting to unpruned grid for atomic number  42.
 Defaulting to unpruned grid for atomic number  42.
 Defaulting to unpruned grid for atomic number  42.
 Defaulting to unpruned grid for atomic number  42.
 -------------------------------------------------------------------
 Center     Atomic                   Forces (Hartrees/Bohr)
 Number     Number              X              Y              Z
 -------------------------------------------------------------------
      1       42           0.000720072   -0.000204714    0.000541803
      2       16          -0.000150315    0.000013034    0.000111254
      3       16           0.000099528   -0.000623451   -0.001750581
      4       16           0.000009391    0.000040244    0.000093917
      5       16          -0.000296670    0.000117179   -0.000086616
      6       42          -0.001532848    0.000522851    0.008806539
      7       16           0.002255939   -0.001938974    0.003679051
      8       16          -0.002893803   -0.002759885    0.003892260
      9       42           0.000710805    0.000497163   -0.002645589
     10       16           0.000672065    0.000995849    0.001928266
     11       16          -0.000088497   -0.000136591    0.000590037
     12       42           0.000362859    0.000171354   -0.000106856
     13       42          -0.015135113    0.020026781   -0.041395815
     14       16          -0.000089956   -0.000100571   -0.000092837
     15       16          -0.000053188    0.000059171    0.000051999
     16       16           0.004902843   -0.007575610    0.015733893
     17        1          -0.026666334    0.144148515    0.120192158
     18       16          -0.001899718   -0.007216739    0.009784152
     19        1           0.039072940   -0.146035604   -0.119327036
 -------------------------------------------------------------------
 Cartesian Forces:  Max     0.146035604 RMS     0.036515776
 FormGI is forming the generalized inverse of G from B-inverse, IUseBI=4.

 GradGradGradGradGradGradGradGradGradGradGradGradGradGradGradGradGradGrad
 Berny optimization.
 Internal  Forces:  Max     0.174824693 RMS     0.013879147
 Search for a saddle point.
 Step number   1 out of a maximum of  114
 All quantities printed in internal units (Hartrees-Bohrs-Radians)
 Swapping is turned off.
 Second derivative matrix not updated -- analytic derivatives used.
 ITU=  0
     Eigenvalues ---   -0.01209  -0.00363   0.00437   0.00487   0.00665
     Eigenvalues ---    0.00795   0.00933   0.00947   0.01126   0.01179
     Eigenvalues ---    0.01530   0.01738   0.01942   0.01993   0.02304
     Eigenvalues ---    0.02665   0.02954   0.03245   0.03801   0.04003
     Eigenvalues ---    0.04085   0.04768   0.04821   0.05400   0.05864
     Eigenvalues ---    0.06229   0.06493   0.06743   0.07582   0.07696
     Eigenvalues ---    0.08063   0.08409   0.08596   0.09588   0.10323
     Eigenvalues ---    0.11021   0.11618   0.11828   0.11885   0.12012
     Eigenvalues ---    0.12545   0.13029   0.13309   0.14613   0.14931
     Eigenvalues ---    0.15344   0.15634   0.16493   0.26057   0.30070
     Eigenvalues ---    0.59931
 Eigenvectors required to have negative eigenvalues:
                          R29       R27       R26       R25       D73
   1                    0.48164   0.42234  -0.27524  -0.24794  -0.19627
                          R15       A65       R18       D33       A67
   1                    0.16825  -0.15986   0.15620  -0.15384  -0.13191
 RFO step:  Lambda0=2.161550646D-03 Lambda=-6.12283857D-02.
 Linear search not attempted -- option 19 set.
 Maximum step size (   0.300) exceeded in Quadratic search.
    -- Step size scaled by   0.569
 Iteration  1 RMS(Cart)=  0.03323237 RMS(Int)=  0.00465118
 Iteration  2 RMS(Cart)=  0.00308139 RMS(Int)=  0.00263741
 Iteration  3 RMS(Cart)=  0.00001991 RMS(Int)=  0.00263722
 Iteration  4 RMS(Cart)=  0.00000010 RMS(Int)=  0.00263722
 Variable       Old X    -DE/DX   Delta X   Delta X   Delta X     New X
                                 (Linear)    (Quad)   (Total)
    R1        4.28885   0.00023   0.00000  -0.00282  -0.00347   4.28538
    R2        4.41799   0.00048   0.00000   0.00761   0.00748   4.42546
    R3        4.58588  -0.00009   0.00000  -0.00009   0.00023   4.58612
    R4        4.30936  -0.00024   0.00000  -0.00043  -0.00052   4.30884
    R5        5.43994  -0.00047   0.00000   0.00002  -0.00042   5.43952
    R6        4.98584   0.00146   0.00000   0.00921   0.00901   4.99485
    R7        4.49818   0.00016   0.00000   0.00528   0.00546   4.50364
    R8        4.47425  -0.00141   0.00000  -0.01628  -0.01634   4.45791
    R9        4.43892   0.00025   0.00000   0.00357   0.00372   4.44264
   R10        4.45848   0.00063   0.00000  -0.00195  -0.00241   4.45607
   R11        4.56008   0.00023   0.00000  -0.00028  -0.00012   4.55995
   R12        4.23994  -0.00033   0.00000   0.01024   0.00743   4.24737
   R13        4.42274   0.00120   0.00000  -0.02055  -0.02547   4.39727
   R14        5.26806   0.00194   0.00000   0.00999   0.00836   5.27642
   R15        5.27485   0.00121   0.00000   0.04075   0.04443   5.31928
   R16        4.63903   0.00212   0.00000  -0.00688  -0.00575   4.63328
   R17        4.68185  -0.00046   0.00000  -0.01057  -0.01007   4.67178
   R18        4.68552   0.00140   0.00000   0.06906   0.07100   4.75652
   R19        5.08524   0.00084   0.00000  -0.06628  -0.06384   5.02140
   R20        4.39252  -0.00015   0.00000   0.00021   0.00016   4.39267
   R21        4.16031   0.00003   0.00000   0.03092   0.03064   4.19095
   R22        4.51829  -0.00006   0.00000  -0.00208  -0.00191   4.51638
   R23        3.99466  -0.00016   0.00000  -0.00005  -0.00005   3.99460
   R24        3.99911  -0.00009   0.00000   0.00009   0.00009   3.99920
   R25        4.51153  -0.00301   0.00000  -0.07444  -0.07625   4.43528
   R26        4.47913  -0.00043   0.00000  -0.08149  -0.08348   4.39565
   R27        3.06839  -0.01281   0.00000  -0.03598  -0.03381   3.03458
   R28        1.22832   0.17482   0.00000   0.15334   0.15610   1.38442
   R29        3.12902  -0.01672   0.00000  -0.03535  -0.03331   3.09571
    A1        1.84253  -0.00007   0.00000   0.00063   0.00050   1.84303
    A2        1.96199  -0.00014   0.00000  -0.00099  -0.00098   1.96101
    A3        1.83732   0.00033   0.00000   0.00201   0.00205   1.83938
    A4        1.73462  -0.00042   0.00000  -0.00206  -0.00230   1.73232
    A5        1.71604  -0.00027   0.00000  -0.00399  -0.00395   1.71209
    A6        2.38773   0.00007   0.00000   0.00086   0.00082   2.38854
    A7        1.85388   0.00031   0.00000  -0.00022  -0.00036   1.85352
    A8        1.69412  -0.00005   0.00000   0.00016   0.00026   1.69438
    A9        2.55358   0.00009   0.00000   0.00073   0.00096   2.55454
   A10        2.01958  -0.00046   0.00000  -0.00180  -0.00162   2.01796
   A11        1.55489   0.00036   0.00000   0.00293   0.00272   1.55761
   A12        2.64900  -0.00220   0.00000   0.00113   0.00176   2.65076
   A13        1.60944  -0.00026   0.00000   0.00079   0.00122   1.61065
   A14        2.27481  -0.00087   0.00000   0.01584   0.01534   2.29015
   A15        1.74004   0.00013   0.00000   0.00126   0.00132   1.74136
   A16        2.37973   0.00070   0.00000  -0.01526  -0.01547   2.36425
   A17        1.73070   0.00059   0.00000   0.00784   0.00772   1.73842
   A18        1.76097   0.00062   0.00000   0.00539   0.00563   1.76660
   A19        2.69485   0.00089   0.00000   0.01357   0.01365   2.70850
   A20        1.74744  -0.00243   0.00000   0.00580   0.00639   1.75382
   A21        1.92752  -0.00062   0.00000  -0.00475  -0.00390   1.92362
   A22        1.70688  -0.00118   0.00000   0.00253   0.00190   1.70878
   A23        1.91225   0.00109   0.00000   0.00420   0.00350   1.91575
   A24        2.13203  -0.00174   0.00000   0.00946   0.00956   2.14159
   A25        1.30665  -0.00104   0.00000   0.01488   0.01427   1.32092
   A26        1.50676  -0.00090   0.00000   0.01554   0.01461   1.52138
   A27        1.66161  -0.00039   0.00000  -0.00308  -0.00379   1.65782
   A28        2.50838   0.00058   0.00000   0.01108   0.01103   2.51942
   A29        1.91068   0.00014   0.00000  -0.00235  -0.00235   1.90833
   A30        1.93565  -0.00034   0.00000  -0.00298  -0.00298   1.93266
   A31        1.73209  -0.00102   0.00000  -0.00642  -0.00651   1.72558
   A32        1.51708  -0.00095   0.00000  -0.00122  -0.00133   1.51575
   A33        2.80207  -0.00049   0.00000  -0.01495  -0.01493   2.78714
   A34        1.73195   0.00063   0.00000  -0.00099  -0.00116   1.73080
   A35        1.84186  -0.00018   0.00000  -0.00574  -0.00638   1.83548
   A36        1.53168   0.00075   0.00000   0.01511   0.01501   1.54669
   A37        1.68639   0.00035   0.00000   0.00298   0.00309   1.68948
   A38        1.52374   0.00111   0.00000   0.00449   0.00449   1.52823
   A39        2.60272   0.00020   0.00000   0.00409   0.00447   2.60719
   A40        1.44203   0.00062   0.00000  -0.01171  -0.01126   1.43077
   A41        2.67395   0.00012   0.00000   0.00497   0.00567   2.67962
   A42        1.45548  -0.00047   0.00000   0.01059   0.01066   1.46613
   A43        1.52111  -0.00094   0.00000   0.03783   0.03724   1.55835
   A44        1.60245   0.00003   0.00000   0.00323   0.00311   1.60556
   A45        2.32474  -0.00006   0.00000  -0.00261  -0.00250   2.32224
   A46        1.78006  -0.00001   0.00000   0.00055   0.00048   1.78054
   A47        1.82746  -0.00001   0.00000   0.00053   0.00054   1.82799
   A48        1.79569   0.00009   0.00000   0.00106   0.00104   1.79674
   A49        1.82280   0.00001   0.00000   0.00092   0.00088   1.82368
   A50        1.88237  -0.00002   0.00000  -0.00023  -0.00022   1.88215
   A51        1.70701   0.00167   0.00000  -0.02480  -0.02515   1.68185
   A52        2.23452  -0.01697   0.00000  -0.06052  -0.06043   2.17409
   A53        2.30062  -0.00465   0.00000   0.06560   0.05551   2.35613
   A54        1.72370   0.00025   0.00000  -0.01503  -0.01829   1.70541
   A55        2.03042  -0.00007   0.00000   0.02172   0.02054   2.05096
   A56        2.28919   0.00213   0.00000  -0.04133  -0.04584   2.24335
   A57        1.42565  -0.00424   0.00000   0.06901   0.06316   1.48881
   A58        1.63246   0.00049   0.00000  -0.05629  -0.05406   1.57840
   A59        1.45446  -0.01867   0.00000  -0.02890  -0.02647   1.42799
   A60        2.79598   0.00446   0.00000   0.08287   0.07421   2.87019
   A61        1.95788   0.00012   0.00000   0.03073   0.03099   1.98887
   A62        1.81626  -0.00266   0.00000  -0.04660  -0.04049   1.77577
   A63        1.42538   0.02410   0.00000   0.04184   0.04748   1.47286
   A64        1.59156   0.00680   0.00000  -0.00198  -0.00594   1.58563
   A65        2.37764  -0.01723   0.00000  -0.03465  -0.03291   2.34473
   A66        1.56877   0.00470   0.00000  -0.01118  -0.01597   1.55280
   A67        2.46142  -0.01837   0.00000   0.00597   0.00722   2.46865
    D1       -1.06410   0.00008   0.00000   0.00088   0.00088  -1.06322
    D2        2.87668  -0.00045   0.00000  -0.00513  -0.00492   2.87176
    D3        0.95354   0.00000   0.00000   0.00042   0.00048   0.95402
    D4        1.30232  -0.00004   0.00000   0.00172   0.00163   1.30395
    D5       -0.00286  -0.00003   0.00000   0.00183   0.00199  -0.00087
    D6        2.42186  -0.00187   0.00000   0.02529   0.02563   2.44748
    D7       -0.04459   0.00072   0.00000   0.00679   0.00625  -0.03834
    D8        0.77470   0.00116   0.00000   0.01434   0.01511   0.78980
    D9        0.03390  -0.00190   0.00000   0.02365   0.02403   0.05792
   D10       -2.43256   0.00069   0.00000   0.00516   0.00466  -2.42790
   D11       -1.61326   0.00113   0.00000   0.01270   0.01351  -1.59976
   D12        0.28136   0.00062   0.00000   0.00056   0.00013   0.28150
   D13       -1.19545   0.00011   0.00000   0.02496   0.02517  -1.17028
   D14       -3.04533   0.00034   0.00000   0.00052   0.00021  -3.04511
   D15       -3.04596   0.00032   0.00000  -0.00413  -0.00452  -3.05048
   D16        1.76041  -0.00018   0.00000   0.02027   0.02052   1.78094
   D17       -0.08947   0.00004   0.00000  -0.00417  -0.00443  -0.09390
   D18        1.22547   0.00029   0.00000   0.00256   0.00264   1.22811
   D19        0.11922  -0.00000   0.00000   0.00088   0.00084   0.12006
   D20        2.22771   0.00008   0.00000   0.00112   0.00107   2.22878
   D21       -2.09516   0.00005   0.00000   0.00126   0.00118  -2.09397
   D22       -0.26364  -0.00063   0.00000  -0.00359  -0.00373  -0.26737
   D23       -3.08357  -0.00018   0.00000   0.01289   0.01267  -3.07090
   D24        1.93689  -0.00107   0.00000  -0.01421  -0.01445   1.92244
   D25        3.00946   0.00183   0.00000   0.00045  -0.00045   3.00901
[...]
 505,-0.00287442,-0.00325689,-0.00133381,0.00355113,0.13068569,0.002079
 00,0.00072539,-0.00127706,-0.00143230,0.00055250,0.00146431,-0.0010542
 4,-0.00004382,0.00198586,-0.01892887,0.13139816,0.01240741,-0.00502116
 ,-0.09459970,-0.00094959,-0.00303989,0.00073105,0.00363280,-0.00074575
 ,-0.00406366,-0.02167854,0.03321040,0.11959624,-0.07416510,0.04079069,
 -0.02544532,0.00280731,0.00916377,0.00162322,-0.00376881,-0.00171759,-
 0.00116506,-0.00299671,0.00007707,-0.00203830,0.11457654,0.04133431,-0
 .04737551,0.01855061,0.00707201,-0.00682555,0.00330629,0.00544577,0.00
 321757,0.00105036,0.00118822,0.00086082,0.00288482,-0.03244186,0.08648
 524,-0.03230740,0.02009631,-0.03329325,0.00290178,0.00129246,0.0038105
 8,-0.00246285,-0.00307892,0.00010744,-0.00529921,0.00284309,-0.0012019
 8,0.01050426,-0.05008844,0.06970088,-0.00307090,-0.00083861,-0.0292561
 8,-0.00531556,0.00246880,-0.00026067,-0.02049485,-0.00904409,0.0277420
 8,-0.10918793,0.02744391,0.02135916,-0.00319524,0.00258727,0.00055351,
 0.23064505,0.02169105,0.00071485,0.01696701,-0.00118217,-0.00611185,-0
 .00456855,-0.01469023,-0.02356944,0.02500748,0.03123009,-0.00509995,-0
 .00769576,0.00137567,0.00179230,0.00008594,0.00229600,0.24479450,-0.03
 044441,0.00613183,-0.02460447,-0.00137700,0.00061898,-0.00420695,0.033
 85635,0.03047111,-0.10170712,0.02056612,-0.00621524,-0.01285555,-0.005
 09845,-0.00275258,0.00467767,0.03505965,-0.00557371,0.26839304,-0.0009
 4007,0.00002608,-0.00054504,0.00039003,-0.00071086,-0.00002064,0.00155
 938,0.00523176,-0.00465978,-0.00143833,-0.00092373,-0.00365690,-0.0007
 4673,0.00007604,0.00000197,-0.05029960,-0.02431911,-0.05764401,0.07213
 078,-0.00425142,0.00094129,-0.00434374,0.00026555,0.00048207,-0.000378
 67,0.00131798,0.00124335,-0.00056593,-0.00079392,-0.00094793,0.0013298
 0,-0.00047912,-0.00026840,0.00016758,-0.02193366,-0.02984836,-0.027887
 14,0.04931233,0.06951124,-0.00602813,-0.00102051,-0.00107472,0.0000244
 2,0.00010530,0.00041155,0.00143131,0.00205315,-0.00134044,-0.00203747,
 0.00113859,0.00031899,-0.00019701,0.00002311,-0.00042927,-0.05390074,-
 0.02285982,-0.09920160,0.06368350,0.02474549,0.11780025,-0.00382587,0.
 00324068,-0.00397355,-0.00338101,0.00272148,-0.00541100,0.00208306,-0.
 00267520,0.00088646,0.00006002,0.00075796,-0.00234750,0.00008463,-0.00
 066932,0.00058511,-0.01283423,0.00483777,-0.00361581,-0.00062191,-0.00
 433345,0.00034984,0.08200330,-0.00250005,-0.00724621,-0.00322741,-0.00
 068203,0.00323679,0.00005572,0.00053152,-0.00362350,0.00879551,0.00377
 084,-0.00219273,0.00339045,0.00006710,-0.00025792,0.00064082,0.0092406
 1,-0.15060293,-0.01438156,-0.00405930,-0.00113230,-0.00787109,-0.03314
 549,0.18060172,-0.00462844,-0.00108340,-0.00293831,-0.00402974,0.00341
 811,-0.00371817,-0.00384993,0.00499492,0.00218201,0.00023257,-0.000961
 19,0.00314215,0.00044988,0.00074213,0.00023115,0.00170477,-0.01908430,
 -0.01936307,-0.00002431,-0.00684618,-0.00103234,0.00163321,0.01844473,
 0.04668244,0.00352041,-0.00712421,0.00902714,-0.00647819,-0.00508526,0
 .00383690,-0.00146228,0.00176683,-0.00059984,-0.00416776,-0.00402072,0
 .00104291,-0.00601955,0.00146204,-0.00058677,-0.01873515,-0.02633497,0
 .00278997,-0.00089668,-0.00021802,-0.00336268,-0.05025493,0.03102142,0
 .00359592,0.15067623,0.00363125,-0.05036763,0.02803535,0.00152514,-0.0
 0747138,-0.02091146,-0.00412880,0.00050562,-0.00006341,-0.01347319,-0.
 12369908,-0.02497608,-0.00244731,-0.00130629,0.00172576,-0.02806329,-0
 .03345511,-0.01437623,0.00198529,0.00464889,0.00145266,0.03396209,-0.0
 1615831,0.00495220,0.01195020,0.26648857,0.00373176,0.05135548,-0.0239
 7782,-0.00156187,-0.02674885,-0.07989130,0.00266920,-0.00093792,-0.004
 73081,-0.00039460,-0.03154516,-0.01098511,0.00561921,-0.00162217,-0.00
 107085,-0.00680999,-0.00377611,0.01086920,-0.00285395,0.00315339,-0.00
 748497,0.00331873,0.00009799,-0.00618043,-0.01072838,0.00873619,0.1631
 8296,0.00154382,0.00285563,-0.00446057,-0.00080267,0.00100496,-0.00291
 503,0.00006439,-0.00223701,0.00178770,-0.00085321,-0.00206007,-0.00028
 157,0.00038830,-0.00082315,0.00049669,-0.00554547,0.00384040,-0.006515
 86,0.00089373,-0.00642791,0.00653505,-0.00811320,-0.00489593,0.0116210
 5,-0.00144819,-0.00038306,0.01262223,0.12560618,-0.00086108,0.00615966
 ,-0.00005792,-0.00068075,-0.00023122,0.00545026,0.00056833,-0.00053357
 ,0.00014601,0.00047997,-0.00110366,0.00283849,0.00076153,-0.00039640,-
 0.00014850,0.00026783,0.00025354,-0.00151430,-0.00127619,0.00064781,0.
 00004718,-0.00214789,0.00199659,0.00160465,0.00277011,-0.01931211,0.01
 376060,0.03012703,0.03301319,0.00332934,-0.00021107,-0.00683143,0.0004
 5945,0.00057533,-0.00551262,-0.00031986,0.00026753,0.00185926,-0.00132
 818,0.00133223,0.00139838,-0.00051463,-0.00000332,0.00036513,0.0004303
 0,0.00055088,-0.00947270,0.00178824,-0.00829495,0.00885089,0.00713913,
 0.00318672,-0.00599641,-0.00383303,0.01300227,-0.03133243,0.00917595,-
 0.01714692,0.07197791,-0.00490132,0.00288895,0.00306177,-0.00584719,-0
 .00226394,0.00665594,0.00091270,-0.00079138,0.00024949,-0.00279128,-0.
 00301134,-0.00190011,0.01419344,0.00135684,-0.00367053,-0.00848291,-0.
 00105848,0.00122786,0.00069226,0.00046625,-0.00033752,-0.00607762,0.00
 072624,-0.00177412,-0.07163913,-0.01515246,0.01662834,-0.00806977,0.00
 190077,-0.00849191,0.12105050,-0.00088067,-0.00113269,-0.00011862,0.00
 177119,0.00222413,0.00005836,0.00039914,-0.00055065,-0.00007819,-0.004
 49595,-0.00071372,0.00115032,-0.00673048,-0.00143522,0.00246957,0.0044
 2760,0.00760353,0.00364319,-0.00051988,-0.00071587,-0.00095432,-0.0039
 6689,0.00200489,-0.00157123,-0.03013268,-0.02619367,0.00402174,0.00451
 006,0.00076909,0.00236728,0.01193254,0.08409092,0.00681812,-0.00034242
 ,-0.00078748,0.00792989,0.00290819,-0.00365016,-0.00104457,0.00088626,
 0.00019939,-0.00257668,0.00253732,0.00113619,0.00033852,0.00114827,-0.
 00082080,-0.00037316,-0.00475283,-0.00200516,0.00061770,0.00118203,0.0
 0140810,0.00165886,0.00106747,-0.00079420,0.02296203,-0.00025434,-0.01
 278051,-0.00774844,0.00080254,-0.00451468,-0.01400286,-0.04046148,0.05
 495720,-0.01147391,-0.00022099,0.01052770,0.00020314,-0.00055866,0.001
 77961,-0.00089384,0.00118508,-0.00141377,-0.00222548,-0.00272348,-0.00
 428325,-0.03171247,-0.02395906,0.02263010,-0.00245438,-0.00186842,-0.0
 0438920,0.00070765,0.00088076,0.00166523,-0.00069727,-0.00095091,0.001
 44488,0.00275859,0.00792247,-0.00474364,-0.00074239,-0.00050813,0.0006
 9725,-0.02335675,0.01371632,-0.00998839,0.31053047,-0.01431388,0.00945
 463,0.00057923,-0.00293270,-0.00639068,-0.00140376,-0.00009288,0.00044
 532,-0.00165218,-0.00019585,0.00059685,-0.00419648,-0.00362551,-0.0386
 4707,0.02459987,-0.00201895,-0.00491328,0.00572602,0.00029801,0.001070
 89,0.00006867,-0.00005283,0.00078451,-0.00088305,0.02967584,0.00682592
 ,-0.00595381,-0.00274184,-0.00054379,-0.00146187,-0.00995699,-0.060191
 67,0.03171104,-0.00314473,0.24124139,0.01591365,-0.00884095,0.00341532
 ,0.00127921,0.00174704,-0.00503420,-0.00124072,-0.00020416,0.00073810,
 -0.00241093,-0.00472292,-0.00293170,0.00741888,0.02725541,-0.04173199,
 0.00455464,0.00473905,-0.00090583,-0.00112241,-0.00203628,-0.00048432,
 0.00048982,-0.00151800,-0.00028489,-0.01785535,0.00187463,0.00779024,0
 .00083918,0.00061995,0.00072304,0.00848372,0.02710747,-0.03486334,0.02
 511956,0.10315156,0.29947006,-0.00524831,-0.00124657,0.00430698,-0.000
 31289,0.00070690,0.00289492,0.00031130,-0.00014304,-0.00261134,0.00040
 791,0.00385731,-0.00197897,0.00067083,0.00021690,-0.00060604,0.0065300
 7,0.00326488,0.01624430,-0.02580164,-0.01497784,-0.00550344,0.00253538
 ,0.00048577,-0.00233460,-0.00032918,0.00370588,-0.02136354,-0.09130633
 ,-0.03154832,0.00623801,0.00061779,-0.00107448,0.00010711,-0.00002786,
 0.00100283,-0.00115316,0.22335420,-0.00229079,-0.00086570,0.00141327,0
 .00010302,-0.00068162,0.00103983,0.00043876,0.00152378,0.00234073,0.00
 108274,-0.00051376,0.00011786,0.00008404,-0.00012744,-0.00020997,0.016
 89919,-0.00054864,0.02917844,-0.02431283,-0.04246129,-0.00681169,0.001
 34441,-0.00901405,-0.00702680,-0.00201512,0.00073472,-0.00892505,-0.02
 957153,-0.03002864,0.00289535,0.00081671,-0.00042745,0.00109655,0.0002
 3402,0.00050149,0.00063106,-0.06482435,0.24652935,0.00205036,-0.000147
 90,0.00253103,0.00028019,-0.00064055,0.00038795,0.00032138,-0.00039030
 ,-0.00197508,-0.00021797,-0.00059601,-0.00053519,0.00095182,-0.0000718
 2,-0.00070752,0.00251153,0.02374107,-0.00717793,0.00103672,0.01643308,
 -0.01435500,0.00212081,-0.01460607,-0.00107387,-0.01175798,0.00266544,
 -0.00402268,-0.00723870,-0.00575935,-0.01900645,0.00121449,-0.00019423
 ,-0.00004825,-0.00053854,0.00033163,0.00043463,0.02246248,-0.02078072,
 0.28620901,0.00080743,-0.00203042,-0.00041794,0.00019384,0.00044293,0.
 00008925,0.00001662,-0.00012391,0.00031067,0.00039868,0.00017519,0.000
 40798,-0.00719064,-0.00425524,0.00262489,0.00014011,-0.00006542,0.0003
 3714,-0.00012765,-0.00012085,-0.00014120,-0.00012939,0.00036971,-0.000
 23292,0.00234271,-0.00007622,-0.00052092,-0.00067772,-0.00005792,-0.00
 055421,-0.00407920,0.00642877,-0.00399331,-0.17232684,-0.05427625,-0.1
 0688609,0.00060700,0.00014592,0.00029578,0.16575253,-0.00028845,-0.000
 13902,0.00043290,0.00012398,0.00044530,0.00024924,-0.00011219,-0.00012
 009,0.00019779,0.00047655,0.00015418,0.00061045,-0.00599255,-0.0026786
 9,-0.00106643,0.00021763,0.00019935,0.00008705,-0.00001316,-0.00001638
 ,-0.00016060,-0.00012834,0.00011074,0.00021152,-0.00147415,-0.00059837
 ,-0.00016974,0.00001428,-0.00001959,-0.00005582,0.00568566,0.00452331,
 0.00305766,-0.05322126,-0.03984304,-0.04543631,0.00018024,-0.00022686,
 0.00005462,0.06066120,0.04304954,-0.00183745,0.00004496,-0.00040616,-0
 .00035402,0.00014191,0.00035775,-0.00006683,-0.00003185,0.00025097,0.0
 0091617,0.00040498,0.00098299,0.00217428,-0.00102594,0.00603708,0.0003
 2868,0.00044693,0.00055484,-0.00007468,-0.00027731,-0.00030202,-0.0004
 9353,0.00018857,0.00005235,0.00154166,0.00039765,-0.00064668,-0.000469
 90,-0.00007510,-0.00050208,-0.00601022,0.00427935,-0.00463320,-0.10672
 702,-0.04655629,-0.09739123,0.00051631,0.00001400,0.00019385,0.1145216
 6,0.05023639,0.10681416,0.00084328,-0.00123012,-0.00033136,-0.00005284
 ,0.00053467,0.00007312,0.00020602,0.00000018,0.00013891,-0.00167460,0.
 00039256,-0.00004921,-0.00274856,0.00145821,0.00451614,-0.00016076,0.0
 0000266,0.00013328,-0.00007544,-0.00008261,-0.00016910,0.00022230,0.00
 016158,-0.00029738,0.00126433,-0.00006358,0.00098804,-0.00028059,0.000
 00558,-0.00040592,-0.00173085,0.00420283,-0.00075153,-0.06838051,0.062
 77427,0.06616312,0.00023582,0.00013329,0.00032660,0.01447639,-0.006062
 21,-0.00376532,0.05794109,0.00039710,0.00011825,-0.00055345,-0.0002211
 7,0.00080669,0.00015587,0.00029194,0.00001130,0.00004680,0.00057839,-0
 .00044119,0.00006186,0.00133562,0.00674619,0.00061465,0.00010891,0.000
 68740,-0.00122454,0.00022898,-0.00006941,0.00033137,-0.00014693,-0.000
 11050,0.00026220,-0.00296977,-0.00062981,0.00099163,0.00063316,0.00009
 963,0.00049739,0.00637730,-0.00934924,-0.00093085,0.06326014,-0.110651
 65,-0.10366902,-0.00037483,-0.00014102,-0.00026836,-0.00737191,-0.0049
 5805,-0.00837351,-0.06224314,0.11793362,-0.00065413,0.00240207,0.00002
 070,-0.00075236,-0.00022087,0.00043500,0.00010569,-0.00019491,0.000107
 23,0.00032398,-0.00005307,-0.00029554,0.00588795,0.00058923,-0.0059019
 0,-0.00052322,-0.00074843,-0.00045950,0.00037978,0.00039355,0.00057020
 ,0.00026568,0.00013617,0.00007007,-0.00084958,-0.00037201,-0.00056670,
 0.00074526,-0.00000143,0.00046899,-0.00044860,-0.00182548,0.00770691,0
 .06758310,-0.10338020,-0.12897040,-0.00030496,-0.00004725,-0.00034236,
 -0.00555156,-0.00819753,-0.01116153,-0.06630195,0.11158376,0.13789808,
 -0.00016083,0.00030476,-0.00032153,0.00006812,-0.00044749,-0.00063958,
 -0.00039090,0.00013771,0.00048938,0.00002458,-0.00058333,0.00012177,0.
 00004657,-0.00002241,0.00005103,0.00352677,0.00117414,-0.00269693,0.00
 411389,0.00204568,-0.00500463,-0.00163606,0.00209704,-0.00369133,0.001
 32293,0.00060815,0.00359162,-0.00883940,0.00094984,-0.00223273,-0.0005
 7666,0.00043083,-0.00050035,0.00013674,-0.00046559,0.00058621,-0.08351
 358,0.07686456,0.00712009,-0.00019752,-0.00004871,-0.00015442,-0.00006
 136,0.00011178,0.00004637,0.09619793,-0.00018581,-0.00101157,0.0008538
 4,0.00016770,0.00048353,0.00016056,0.00046023,0.00018241,-0.00080666,0
 .00014272,0.00034034,0.00002454,0.00004620,0.00013788,-0.00013891,-0.0
 0269045,-0.00274697,0.00265064,-0.00051429,-0.00263987,0.00425590,0.00
 171249,-0.00223648,0.00329697,-0.00131684,0.00083530,-0.00314416,0.009
 83493,0.00956622,0.00641425,0.00030143,-0.00048870,0.00008633,0.000009
 44,0.00015054,-0.00040480,0.07379336,-0.12421773,-0.01127798,0.0001960
 6,0.00011123,0.00021714,0.00005208,-0.00003695,-0.00007584,-0.09130797
 ,0.14077871,-0.00025891,0.00017574,-0.00039051,0.00006464,-0.00007529,
 -0.00004593,-0.00013810,-0.00005014,0.00049414,-0.00011378,0.00014846,
 0.00009370,0.00012652,-0.00013276,0.00010574,-0.00095162,0.00035975,-0
 .00181663,0.00021441,-0.00025560,-0.00083391,-0.00265297,0.00377959,-0
 .00594794,0.00032616,0.00035026,0.00011298,-0.00186289,0.00046619,-0.0
 0112044,-0.00012566,0.00004341,-0.00026717,-0.00014610,-0.00014395,0.0
 0019034,-0.01180598,0.01488529,-0.01380530,0.00003760,0.00003582,0.000
 05231,0.00000590,-0.00001031,-0.00005329,-0.00802053,0.01663305,0.0582
 2864,0.00001453,-0.00002597,-0.00010005,-0.00011981,0.00005031,0.00003
 339,0.00000434,-0.00005578,0.00025116,0.00001513,-0.00000698,-0.000044
 43,-0.00003107,-0.00003529,0.00003590,0.00004229,0.00004547,-0.0002167
 6,0.00050366,0.00048934,-0.00002533,-0.00031018,0.00052008,-0.00066649
 ,0.00024814,-0.00004232,-0.00031333,0.00026875,-0.00005968,-0.00084450
 ,-0.00000801,0.00000223,0.00003384,-0.00001916,0.00003124,0.00000508,-
 0.00124419,0.00529955,0.00171407,-0.00001329,-0.00000245,-0.00001343,-
 0.00000847,-0.00000932,0.00000201,-0.01231267,-0.00118699,-0.00881778,
 0.04688796,0.00003634,-0.00004433,0.00010238,-0.00006426,-0.00000482,0
 .00003485,0.00029907,-0.00004569,-0.00029159,0.00005474,0.00003259,-0.
 00003406,-0.00006980,-0.00000038,-0.00000596,-0.00095274,-0.00043204,0
 .00140123,0.00028584,0.00072934,0.00128000,0.00080739,-0.00087494,0.00
 096754,-0.00024929,-0.00008310,-0.00023470,0.00026361,0.00039736,0.000
 07302,0.00008855,-0.00006544,0.00003034,0.00006911,0.00008915,-0.00010
 459,0.00260937,0.00089662,-0.00792303,-0.00001447,-0.00000599,-0.00000
 751,-0.00001449,0.00002201,0.00002580,0.00143057,-0.01303337,0.0145483
 0,-0.02968173,0.06156205,0.00005150,-0.00078475,0.00034374,0.00014563,
 0.00016829,-0.00026345,0.00074941,0.00030773,-0.00085036,0.00021065,-0
 .00004678,0.00013091,-0.00022232,0.00011733,-0.00010849,-0.00190857,-0
 .00207595,0.00504946,0.00027693,0.00091850,0.00263060,0.00082534,-0.00
 248595,0.00230616,-0.00109770,-0.00016040,-0.00048137,0.00195980,0.000
 98448,0.00126820,0.00011389,0.00000584,0.00007715,0.00027582,0.0000866
 3,-0.00022323,-0.02556527,0.03004296,-0.04102416,-0.00007363,-0.000050
 30,-0.00005398,-0.00005473,0.00012859,0.00013212,0.01495883,-0.0163232
 7,0.02059469,-0.00589859,0.00653420,0.00915760,0.00060841,0.00053890,-
 0.00147355,-0.00009763,0.00045914,0.00007258,-0.00044757,0.00000389,0.
 00070211,-0.00029528,-0.00000494,0.00021413,-0.00009212,-0.00005740,0.
 00012095,-0.00024812,0.00182346,-0.00187572,-0.00076813,-0.00281386,0.
 00068803,0.00037346,-0.00108842,-0.00035056,-0.00001309,-0.00170321,0.
 00077851,-0.00367650,-0.00139541,-0.01157219,0.00007303,0.00001453,0.0
 0055390,-0.00022386,-0.00000208,-0.00013002,-0.01627246,0.00563320,0.0
 1122801,0.00005796,0.00002229,0.00000916,0.00002959,-0.00008608,-0.000
 04297,-0.00543755,0.01544648,-0.00409037,-0.01339853,0.02241427,0.0330
 7292,0.03678786,0.00088739,-0.00003254,-0.00066025,-0.00015134,0.00019
 243,-0.00017968,-0.00037558,0.00008535,-0.00064252,-0.00004481,-0.0000
 1881,0.00021034,-0.00038925,0.00019426,0.00013233,-0.00170284,0.000006
 43,-0.00263632,-0.00075123,-0.00114129,0.00551202,-0.00198103,0.003287
 81,0.00063202,0.00123430,-0.00063361,0.00079885,-0.00214300,-0.0008158
 9,-0.00385455,-0.00029769,0.00020858,0.00033123,0.00000460,0.00006089,
 -0.00033859,0.00918277,-0.02677353,-0.01783417,-0.00007002,-0.00003168
 ,-0.00005274,-0.00007116,0.00005017,0.00007740,0.01625708,-0.01283637,
 0.00035106,0.01674204,-0.02581167,-0.03888214,-0.02209136,0.05639995,-
 0.00023379,0.00102451,-0.00153876,-0.00041634,0.00029990,0.00003451,-0
 .00077438,-0.00031966,0.00052940,-0.00015639,0.00027231,-0.00013161,-0
 .00038271,0.00002595,0.00021194,0.00013560,-0.00040008,-0.00591257,0.0
 0262561,0.00301941,-0.00548477,-0.00138866,0.00460705,-0.00722686,0.00
 554332,-0.00199571,0.00175958,-0.01409796,-0.00222370,-0.00257764,-0.0
 0079324,0.00003354,-0.00020220,0.00045538,-0.00052829,0.00002214,0.021
 83426,-0.04081147,-0.17320622,-0.00021480,-0.00003635,-0.00017407,-0.0
 0019595,0.00032078,0.00032165,0.00158692,-0.00533192,-0.02450065,-0.01
 012817,0.01559434,0.02409425,-0.02226850,0.04982231,0.20295396,0.00003
 709,-0.00045973,0.00060434,0.00010675,-0.00005294,-0.00007188,0.000581
 75,0.00018620,-0.00054627,0.00015596,-0.00003301,0.00002221,-0.0001006
 2,0.00006612,-0.00008951,-0.00085919,-0.00206279,0.00365949,0.00072480
 ,0.00165475,0.00232988,0.00051951,-0.00166979,0.00119753,-0.00068920,0
 .00024297,-0.00065741,0.00159028,0.00070437,0.00083950,0.00002098,-0.0
 0003499,-0.00004068,0.00019814,0.00003789,-0.00005440,-0.01121387,0.01
 393520,-0.03388113,-0.00005101,-0.00003835,-0.00004112,-0.00004484,0.0
 0009984,0.00008949,0.00768898,-0.00496078,0.03820947,-0.02051941,0.002
 68792,-0.01781991,0.00304053,-0.01423887,0.01886981,0.01881337,-0.0002
 4834,0.00079346,-0.00026545,-0.00013420,-0.00007165,0.00027895,-0.0004
 0756,-0.00033655,0.00063909,-0.00011999,0.00011384,-0.00012015,0.00019
 175,-0.00011539,0.00006878,0.00128689,0.00127667,-0.00334685,-0.000043
 75,-0.00003379,-0.00133543,-0.00013692,0.00142683,-0.00207084,0.001060
 29,-0.00013056,0.00014179,-0.00180055,0.00008179,-0.00013375,-0.000008
 98,-0.00016011,-0.00010333,-0.00012630,-0.00004041,0.00014946,0.015183
 23,-0.01415823,0.03726466,0.00004284,0.00004412,0.00002836,0.00004940,
 -0.00008743,-0.00009098,-0.00953664,0.00666187,-0.05110888,0.00792625,
 -0.02332736,0.02151502,-0.01711341,0.00760952,-0.02337293,0.00393598,0
 .02045338,0.00005921,-0.00003238,-0.00009316,0.00000572,0.00004979,-0.
 00007536,0.00003692,-0.00002136,0.00002083,-0.00005538,0.00007988,0.00
 006944,-0.00003074,0.00000352,0.00001845,-0.00039578,-0.00036256,0.000
 14487,-0.00002311,-0.00045703,0.00003279,0.00061000,-0.00030069,-0.000
 10983,0.00000530,-0.00008276,0.00043669,-0.00019199,0.00020688,-0.0000
 4491,-0.00008073,0.00002346,-0.00011779,0.00005126,-0.00009477,0.00003
 726,-0.00137707,0.00095762,-0.01247646,-0.00003840,-0.00000037,-0.0000
 2534,-0.00002265,0.00003513,0.00002027,-0.00529018,0.00291032,-0.03109
 077,0.02499342,-0.03199058,-0.02277985,-0.00563642,0.00721341,-0.00897
 208,-0.01261938,0.02186248,0.07500494\\-0.00000066,0.00000084,-0.00000
 463,0.00000022,0.00000102,0.00000024,-0.00001045,-0.00000526,0.0000007
 3,0.00000048,0.00000118,0.00000110,0.00000119,0.00000095,0.00000134,0.
 00001126,0.00001374,-0.00000578,0.00000314,0.00000114,-0.00000940,-0.0
 0000643,0.00001402,0.00000609,0.00000676,-0.00000171,-0.00000146,-0.00
 000455,-0.00000171,0.00000272,-0.00000098,0.00000008,-0.00000096,-0.00
 000238,0.00000014,0.00000070,0.00001048,-0.00003375,0.00001093,0.,0.00
 000035,0.00000013,0.00000030,-0.00000020,-0.00000031,0.00000546,0.0000
 0725,0.00000951,-0.00003487,0.00002483,0.00002716,-0.00000727,0.000000
 49,-0.00000741,0.00002833,-0.00002340,-0.00003071\\\@
 The archive entry for this job was punched.


 QED = W**5 (WHICH WAS WHAT WE WANTED)
 Job cpu time:       0 days  1 hours 34 minutes 32.7 seconds.
 Elapsed time:       0 days  0 hours  2 minutes  4.5 seconds.
 File lengths (MBytes):  RWF=    396 Int=      0 D2E=      0 Chk=     11 Scr=      2
 Normal termination of Gaussian 16 at Fri Dec  9 12:38:04 2022.
