 Entering Gaussian System, Link 0=g16
 Initial command:
 /home/chesagar/softwares/G16_AVX2//g16/l1.exe "/home/chesagar/scratch/Gau-194205.inp" -scrdir="/home/chesagar/scratch/"
 Entering Link 1 = /home/chesagar/softwares/G16_AVX2//g16/l1.exe PID=    194206.
  
 Copyright (c) 1988-2019, Gaussian, Inc.  All Rights Reserved.
  
 This is part of the Gaussian(R) 16 program.  It is based on
 the Gaussian(R) 09 system (copyright 2009, Gaussian, Inc.),
 the Gaussian(R) 03 system (copyright 2003, Gaussian, Inc.),
 the Gaussian(R) 98 system (copyright 1998, Gaussian, Inc.),
 the Gaussian(R) 94 system (copyright 1995, Gaussian, Inc.),
 the Gaussian 92(TM) system (copyright 1992, Gaussian, Inc.),
 the Gaussian 90(TM) system (copyright 1990, Gaussian, Inc.),
 the Gaussian 88(TM) system (copyright 1988, Gaussian, Inc.),
 the Gaussian 86(TM) system (copyright 1986, Carnegie Mellon
 University), and the Gaussian 82(TM) system (copyright 1983,
 Carnegie Mellon University). Gaussian is a federally registered
 trademark of Gaussian, Inc.
  
 This software contains proprietary and confidential information,
 including trade secrets, belonging to Gaussian, Inc.
  
 This software is provided under written license and may be
 used, copied, transmitted, or stored only in accord with that
 written license.
  
 The following legend is applicable only to US Government
 contracts under FAR:
  
                    RESTRICTED RIGHTS LEGEND
  
 Use, reproduction and disclosure by the US Government is
 subject to restrictions as set forth in subparagraphs (a)
 and (c) of the Commercial Computer Software - Restricted
 Rights clause in FAR 52.227-19.
  
 Gaussian, Inc.
 340 Quinnipiac St., Bldg. 40, Wallingford CT 06492
  
  
 ---------------------------------------------------------------
 Warning -- This program may not be used in any manner that
 competes with the business of Gaussian, Inc. or will provide
 assistance to any competitor of Gaussian, Inc.  The licensee
 of this program is prohibited from giving any competitor of
 Gaussian, Inc. access to this program.  By using this program,
 the user acknowledges that Gaussian, Inc. is engaged in the
 business of creating and licensing software in the field of
 computational chemistry and represents and warrants to the
 licensee that it is not a competitor of Gaussian, Inc. and that
 it will not use this program in any manner prohibited above.
 ---------------------------------------------------------------
  

 Cite this work as:
 Gaussian 16, Revision C.01,
 M. J. Frisch, G. W. Trucks, H. B. Schlegel, G. E. Scuseria, 
 M. A. Robb, J. R. Cheeseman, G. Scalmani, V. Barone, 
 G. A. Petersson, H. Nakatsuji, X. Li, M. Caricato, A. V. Marenich, 
 J. Bloino, B. G. Janesko, R. Gomperts, B. Mennucci, H. P. Hratchian, 
 J. V. Ortiz, A. F. Izmaylov, J. L. Sonnenberg, D. Williams-Young, 
 F. Ding, F. Lipparini, F. Egidi, J. Goings, B. Peng, A. Petrone, 
 T. Henderson, D. Ranasinghe, V. G. Zakrzewski, J. Gao, N. Rega, 
 G. Zheng, W. Liang, M. Hada, M. Ehara, K. Toyota, R. Fukuda, 
 J. Hasegawa, M. Ishida, T. Nakajima, Y. Honda, O. Kitao, H. Nakai, 
 T. Vreven, K. Throssell, J. A. Montgomery, Jr., J. E. Peralta, 
 F. Ogliaro, M. J. Bearpark, J. J. Heyd, E. N. Brothers, K. N. Kudin, 
 V. N. Staroverov, T. A. Keith, R. Kobayashi, J. Normand, 
 K. Raghavachari, A. P. Rendell, J. C. Burant, S. S. Iyengar, 
 J. Tomasi, M. Cossi, J. M. Millam, M. Klene, C. Adamo, R. Cammi, 
 J. W. Ochterski, R. L. Martin, K. Morokuma, O. Farkas, 
 J. B. Foresman, and D. J. Fox, Gaussian, Inc., Wallingford CT, 2019.
 
 ******************************************
 Gaussian 16:  ES64L-G16RevC.01  3-Jul-2019
                 9-Dec-2022 
 ******************************************
 %nprocshared=46
 Will use up to   46 processors via shared memory.
 %mem=100GB
 ---------------------------------------
 # opt freq b3lyp/gen nosymm pseudo=read
 ---------------------------------------
 1/18=20,19=15,26=3,38=1/1,3;
 2/9=110,12=2,15=1,17=6,18=5,40=1/2;
 3/5=7,11=2,16=1,17=8,25=1,30=1,71=1,74=-5/1,2,3;
 4//1;
 5/5=2,38=5/2;
 6/7=2,8=2,9=2,10=2,28=1/1;
 7/30=1/1,2,3,16;
 1/18=20,19=15,26=3/3(2);
 2/9=110,15=1/2;
 99//99;
 2/9=110,15=1/2;
 3/5=7,6=1,11=2,16=1,17=8,25=1,30=1,71=1,74=-5,82=7/1,2,3;
 4/5=5,16=3,69=1/1;
 5/5=2,38=5/2;
 7/30=1/1,2,3,16;
 1/18=20,19=15,26=3/3(-5);
 2/9=110,15=1/2;
 6/7=2,8=2,9=2,10=2,19=2,28=1/1;
 99/9=1/99;
 -------------------
 Title Card Required
 -------------------
 Symbolic Z-matrix:
 Charge =  0 Multiplicity = 1
 42                    0.26709   1.00283   11.29067 
 16                    0.389     3.39811   12.21139 
 16                   -1.92759   0.93046   12.22524 
 16                   -0.13015   0.98682   8.95844 
 16                    2.14279  -0.29537   11.26002 
 42                   -2.07717   1.82673   10.08682 
 16                   -3.38241   1.66322   8.07739 
 16                   -2.1063    4.19081   10.39789 
 42                    0.0723    3.21903   9.71327 
 16                   -0.18046   4.22335   7.54634 
 16                    2.57642   3.02987   9.14216 
 42                    3.23383   1.79752   10.94845 
 42                   -2.45039   3.85265   7.84269 
 16                    4.11567   3.21742   12.64785 
 16                    4.99616   0.41815   10.22149 
 16                   -4.17738   5.56374   8.29728 
 16                   -3.14803   3.92809   5.62298 
 42                   -4.54455   3.36588   9.64488 
 6                    -5.48581   4.51116   11.05267 
 6                    -6.21752   3.02774   8.5937 
 6                    -5.06892   1.79094   10.81844 
 8                    -6.02312   5.1311    11.85872 
 8                    -7.15378   2.85444   7.94515 
 8                    -5.48872   0.94392   11.4788 
 

 GradGradGradGradGradGradGradGradGradGradGradGradGradGradGradGradGradGrad
 Berny optimization.
 Initialization pass.
                           ----------------------------
                           !    Initial Parameters    !
                           ! (Angstroms and Degrees)  !
 --------------------------                            --------------------------
 ! Name  Definition              Value          Derivative Info.                !
 --------------------------------------------------------------------------------
 ! R1    R(1,2)                  2.569          estimate D2E/DX2                !
 ! R2    R(1,3)                  2.3865         estimate D2E/DX2                !
 ! R3    R(1,4)                  2.3659         estimate D2E/DX2                !
 ! R4    R(1,5)                  2.2813         estimate D2E/DX2                !
 ! R5    R(1,6)                  2.7611         estimate D2E/DX2                !
 ! R6    R(1,9)                  2.7272         estimate D2E/DX2                !
 ! R7    R(1,12)                 3.0903         estimate D2E/DX2                !
 ! R8    R(2,9)                  2.5245         estimate D2E/DX2                !
 ! R9    R(3,6)                  2.3235         estimate D2E/DX2                !
 ! R10   R(4,6)                  2.402          estimate D2E/DX2                !
 ! R11   R(4,9)                  2.3651         estimate D2E/DX2                !
 ! R12   R(5,12)                 2.3807         estimate D2E/DX2                !
 ! R13   R(6,7)                  2.4017         estimate D2E/DX2                !
 ! R14   R(6,8)                  2.3846         estimate D2E/DX2                !
 ! R15   R(6,9)                  2.5881         estimate D2E/DX2                !
 ! R16   R(6,13)                 3.0463         estimate D2E/DX2                !
 ! R17   R(6,18)                 2.9415         estimate D2E/DX2                !
 ! R18   R(7,13)                 2.3911         estimate D2E/DX2                !
 ! R19   R(7,18)                 2.5897         estimate D2E/DX2                !
 ! R20   R(8,9)                  2.4818         estimate D2E/DX2                !
 ! R21   R(8,13)                 2.6003         estimate D2E/DX2                !
 ! R22   R(8,18)                 2.6819         estimate D2E/DX2                !
 ! R23   R(9,10)                 2.4017         estimate D2E/DX2                !
 ! R24   R(9,11)                 2.5754         estimate D2E/DX2                !
 ! R25   R(10,13)                2.319          estimate D2E/DX2                !
 ! R26   R(11,12)                2.2833         estimate D2E/DX2                !
 ! R27   R(12,14)                2.3836         estimate D2E/DX2                !
 ! R28   R(12,15)                2.3531         estimate D2E/DX2                !
 ! R29   R(13,16)                2.4733         estimate D2E/DX2                !
 ! R30   R(13,17)                2.328          estimate D2E/DX2                !
 ! R31   R(13,18)                2.8054         estimate D2E/DX2                !
 ! R32   R(16,18)                2.6041         estimate D2E/DX2                !
 ! R33   R(18,19)                2.0444         estimate D2E/DX2                !
 ! R34   R(18,20)                2.0045         estimate D2E/DX2                !
 ! R35   R(18,21)                2.0329         estimate D2E/DX2                !
 ! R36   R(19,22)                1.1501         estimate D2E/DX2                !
 ! R37   R(20,23)                1.1521         estimate D2E/DX2                !
 ! R38   R(21,24)                1.1532         estimate D2E/DX2                !
 ! A1    A(2,1,3)               86.0757         estimate D2E/DX2                !
 ! A2    A(2,1,4)              111.5659         estimate D2E/DX2                !
 ! A3    A(2,1,5)              119.7598         estimate D2E/DX2                !
 ! A4    A(2,1,6)               85.3157         estimate D2E/DX2                !
 ! A5    A(2,1,12)              75.7811         estimate D2E/DX2                !
 ! A6    A(3,1,4)              103.3811         estimate D2E/DX2                !
 ! A7    A(3,1,5)              138.0837         estimate D2E/DX2                !
 ! A8    A(3,1,9)              100.688          estimate D2E/DX2                !
 ! A9    A(3,1,12)             159.0696         estimate D2E/DX2                !
 ! A10   A(4,1,5)               96.947          estimate D2E/DX2                !
 ! A11   A(4,1,12)              93.0819         estimate D2E/DX2                !
 ! A12   A(5,1,6)              149.5433         estimate D2E/DX2                !
 ! A13   A(5,1,9)              120.8891         estimate D2E/DX2                !
 ! A14   A(6,1,12)             133.6349         estimate D2E/DX2                !
 ! A15   A(9,1,12)              78.2027         estimate D2E/DX2                !
 ! A16   A(1,6,7)              143.6971         estimate D2E/DX2                !
 ! A17   A(1,6,8)              104.4371         estimate D2E/DX2                !
 ! A18   A(1,6,13)             128.5845         estimate D2E/DX2                !
 ! A19   A(1,6,18)             159.0409         estimate D2E/DX2                !
 ! A20   A(3,6,4)              104.1987         estimate D2E/DX2                !
 ! A21   A(3,6,7)              141.147          estimate D2E/DX2                !
 ! A22   A(3,6,8)              105.2568         estimate D2E/DX2                !
 ! A23   A(3,6,9)              106.6718         estimate D2E/DX2                !
 ! A24   A(3,6,13)             160.4646         estimate D2E/DX2                !
 ! A25   A(3,6,18)             113.2113         estimate D2E/DX2                !
 ! A26   A(4,6,7)               91.3571         estimate D2E/DX2                !
 ! A27   A(4,6,8)              114.6982         estimate D2E/DX2                !
 ! A28   A(4,6,13)              89.186          estimate D2E/DX2                !
 ! A29   A(4,6,18)             142.4037         estimate D2E/DX2                !
 ! A30   A(7,6,8)               99.7875         estimate D2E/DX2                !
 ! A31   A(7,6,9)              111.5445         estimate D2E/DX2                !
 ! A32   A(9,6,13)              68.7556         estimate D2E/DX2                !
 ! A33   A(9,6,18)             113.1713         estimate D2E/DX2                !
 ! A34   A(9,8,13)              78.1221         estimate D2E/DX2                !
 ! A35   A(9,8,18)             126.8832         estimate D2E/DX2                !
 ! A36   A(1,9,8)              102.7876         estimate D2E/DX2                !
 ! A37   A(1,9,10)             150.3646         estimate D2E/DX2                !
 ! A38   A(1,9,11)              89.95           estimate D2E/DX2                !
 ! A39   A(2,9,4)              113.1735         estimate D2E/DX2                !
 ! A40   A(2,9,6)               89.9728         estimate D2E/DX2                !
 ! A41   A(2,9,8)               79.0105         estimate D2E/DX2                !
 ! A42   A(2,9,10)             151.2076         estimate D2E/DX2                !
 ! A43   A(2,9,11)              95.8932         estimate D2E/DX2                !
 ! A44   A(4,9,8)              112.4866         estimate D2E/DX2                !
 ! A45   A(4,9,10)              95.6075         estimate D2E/DX2                !
 ! A46   A(4,9,11)              86.7399         estimate D2E/DX2                !
 ! A47   A(6,9,10)             105.5323         estimate D2E/DX2                !
 ! A48   A(6,9,11)             143.1334         estimate D2E/DX2                !
 ! A49   A(8,9,10)              89.5857         estimate D2E/DX2                !
 ! A50   A(8,9,11)             160.6434         estimate D2E/DX2                !
 ! A51   A(10,9,11)             86.1561         estimate D2E/DX2                !
 ! A52   A(9,10,13)             85.4611         estimate D2E/DX2                !
 ! A53   A(9,11,12)             98.289          estimate D2E/DX2                !
 ! A54   A(1,12,11)             87.1334         estimate D2E/DX2                !
 ! A55   A(1,12,14)            115.429          estimate D2E/DX2                !
 ! A56   A(1,12,15)            127.0466         estimate D2E/DX2                !
 ! A57   A(5,12,11)            116.4909         estimate D2E/DX2                !
 ! A58   A(5,12,14)            126.8643         estimate D2E/DX2                !
 ! A59   A(5,12,15)             82.434          estimate D2E/DX2                !
 ! A60   A(11,12,14)           110.4267         estimate D2E/DX2                !
 ! A61   A(11,12,15)           106.7155         estimate D2E/DX2                !
 ! A62   A(14,12,15)           107.0            estimate D2E/DX2                !
 ! A63   A(6,13,10)             94.619          estimate D2E/DX2                !
 ! A64   A(6,13,16)            114.2209         estimate D2E/DX2                !
 ! A65   A(6,13,17)            139.5247         estimate D2E/DX2                !
 ! A66   A(7,13,8)              94.2555         estimate D2E/DX2                !
 ! A67   A(7,13,10)            122.7145         estimate D2E/DX2                !
 ! A68   A(7,13,16)            110.0761         estimate D2E/DX2                !
 ! A69   A(7,13,17)             90.3698         estimate D2E/DX2                !
 ! A70   A(8,13,10)             88.5824         estimate D2E/DX2                !
 ! A71   A(8,13,16)             79.7363         estimate D2E/DX2                !
 ! A72   A(10,13,16)           126.6114         estimate D2E/DX2                !
 ! A73   A(10,13,17)            99.5728         estimate D2E/DX2                !
 ! A74   A(10,13,18)           147.1933         estimate D2E/DX2                !
 ! A75   A(16,13,17)            86.7655         estimate D2E/DX2                !
 ! A76   A(17,13,18)           113.2312         estimate D2E/DX2                !
 ! A77   A(6,18,16)            113.6473         estimate D2E/DX2                !
 ! A78   A(6,18,19)            125.1612         estimate D2E/DX2                !
 ! A79   A(6,18,20)            133.6774         estimate D2E/DX2                !
 ! A80   A(6,18,21)             73.9932         estimate D2E/DX2                !
 ! A81   A(7,18,8)              87.9479         estimate D2E/DX2                !
 ! A82   A(7,18,16)            100.2768         estimate D2E/DX2                !
 ! A83   A(7,18,20)             86.9165         estimate D2E/DX2                !
 ! A84   A(7,18,21)             87.467          estimate D2E/DX2                !
 ! A85   A(8,18,16)             75.9663         estimate D2E/DX2                !
 ! A86   A(8,18,19)             93.0338         estimate D2E/DX2                !
 ! A87   A(8,18,20)            163.3146         estimate D2E/DX2                !
 ! A88   A(8,18,21)            108.1025         estimate D2E/DX2                !
 ! A89   A(13,18,19)           133.5388         estimate D2E/DX2                !
 ! A90   A(13,18,20)           108.3846         estimate D2E/DX2                !
 ! A91   A(13,18,21)           134.252          estimate D2E/DX2                !
 ! A92   A(16,18,19)            87.0454         estimate D2E/DX2                !
 ! A93   A(16,18,20)            89.3509         estimate D2E/DX2                !
 ! A94   A(19,18,20)            94.0919         estimate D2E/DX2                !
 ! A95   A(19,18,21)            85.2807         estimate D2E/DX2                !
 ! A96   A(20,18,21)            87.5223         estimate D2E/DX2                !
 ! A97   L(8,13,17,7,-1)       184.6253         estimate D2E/DX2                !
 ! A98   L(7,18,19,8,-1)       180.9817         estimate D2E/DX2                !
 ! A99   L(16,18,21,6,-1)      187.6405         estimate D2E/DX2                !
 ! A100  L(18,19,22,14,-1)     180.1158         estimate D2E/DX2                !
 ! A101  L(18,20,23,17,-1)     177.319          estimate D2E/DX2                !
 ! A102  L(18,21,24,1,-1)      186.4227         estimate D2E/DX2                !
 ! A103  L(8,13,17,7,-2)       167.3082         estimate D2E/DX2                !
 ! A104  L(7,18,19,8,-2)       187.3157         estimate D2E/DX2                !
 ! A105  L(16,18,21,6,-2)      175.9988         estimate D2E/DX2                !
 ! A106  L(18,19,22,14,-2)     181.5921         estimate D2E/DX2                !
 ! A107  L(18,20,23,17,-2)     180.6183         estimate D2E/DX2                !
 ! A108  L(18,21,24,1,-2)      178.9238         estimate D2E/DX2                !
 ! D1    D(2,1,6,7)            140.4408         estimate D2E/DX2                !
 ! D2    D(2,1,6,8)             10.1306         estimate D2E/DX2                !
 ! D3    D(2,1,6,13)            67.4072         estimate D2E/DX2                !
 ! D4    D(2,1,6,18)           -26.8912         estimate D2E/DX2                !
 ! D5    D(5,1,6,7)             -7.0364         estimate D2E/DX2                !
 ! D6    D(5,1,6,8)           -137.3466         estimate D2E/DX2                !
 ! D7    D(5,1,6,13)           -80.0699         estimate D2E/DX2                !
 ! D8    D(5,1,6,18)          -174.3684         estimate D2E/DX2                !
 ! D9    D(12,1,6,7)            75.1896         estimate D2E/DX2                !
 ! D10   D(12,1,6,8)           -55.1206         estimate D2E/DX2                !
 ! D11   D(12,1,6,13)            2.1561         estimate D2E/DX2                !
 ! D12   D(12,1,6,18)          -92.1424         estimate D2E/DX2                !
 ! D13   D(3,1,9,8)              9.734          estimate D2E/DX2                !
 ! D14   D(3,1,9,10)          -102.8455         estimate D2E/DX2                !
 ! D15   D(3,1,9,11)           175.035          estimate D2E/DX2                !
 ! D16   D(5,1,9,8)           -175.8083         estimate D2E/DX2                !
 ! D17   D(5,1,9,10)            71.6122         estimate D2E/DX2                !
 ! D18   D(5,1,9,11)           -10.5074         estimate D2E/DX2                !
 ! D19   D(12,1,9,8)          -148.951          estimate D2E/DX2                !
 ! D20   D(12,1,9,10)           98.4695         estimate D2E/DX2                !
 ! D21   D(12,1,9,11)           16.35           estimate D2E/DX2                !
 ! D22   D(2,1,12,11)          -76.9675         estimate D2E/DX2                !
 ! D23   D(2,1,12,14)           34.3247         estimate D2E/DX2                !
 ! D24   D(2,1,12,15)          174.1872         estimate D2E/DX2                !
 ! D25   D(3,1,12,11)         -107.6353         estimate D2E/DX2                !
 ! D26   D(3,1,12,14)            3.657          estimate D2E/DX2                !
 ! D27   D(3,1,12,15)          143.5194         estimate D2E/DX2                !
 ! D28   D(4,1,12,11)           34.5074         estimate D2E/DX2                !
 ! D29   D(4,1,12,14)          145.7996         estimate D2E/DX2                !
 ! D30   D(4,1,12,15)          -74.3379         estimate D2E/DX2                !
 ! D31   D(6,1,12,11)           -7.9446         estimate D2E/DX2                !
 ! D32   D(6,1,12,14)          103.3476         estimate D2E/DX2                !
 ! D33   D(6,1,12,15)         -116.79           estimate D2E/DX2                !
 ! D34   D(9,1,12,11)          -18.5364         estimate D2E/DX2                !
 ! D35   D(9,1,12,14)           92.7559         estimate D2E/DX2                !
 ! D36   D(9,1,12,15)         -127.3817         estimate D2E/DX2                !
 ! D37   D(1,4,6,9)             76.5569         estimate D2E/DX2                !
 ! D38   D(3,6,9,2)            -21.497          estimate D2E/DX2                !
 ! D39   D(3,6,9,10)          -176.9274         estimate D2E/DX2                !
 ! D40   D(3,6,9,11)            78.3201         estimate D2E/DX2                !
 ! D41   D(7,6,9,2)            165.6504         estimate D2E/DX2                !
 ! D42   D(7,6,9,10)            10.22           estimate D2E/DX2                !
 ! D43   D(7,6,9,11)           -94.5326         estimate D2E/DX2                !
 ! D44   D(13,6,9,2)           138.4028         estimate D2E/DX2                !
 ! D45   D(13,6,9,10)          -17.0277         estimate D2E/DX2                !
 ! D46   D(13,6,9,11)         -121.7802         estimate D2E/DX2                !
 ! D47   D(18,6,9,2)           103.6513         estimate D2E/DX2                !
 ! D48   D(18,6,9,10)          -51.7791         estimate D2E/DX2                !
 ! D49   D(18,6,9,11)         -156.5316         estimate D2E/DX2                !
 ! D50   D(1,6,13,10)            3.2891         estimate D2E/DX2                !
 ! D51   D(1,6,13,16)         -130.5334         estimate D2E/DX2                !
 ! D52   D(1,6,13,17)          113.8808         estimate D2E/DX2                !
 ! D53   D(3,6,13,10)           96.9569         estimate D2E/DX2                !
 ! D54   D(3,6,13,16)          -36.8657         estimate D2E/DX2                !
 ! D55   D(3,6,13,17)         -152.4514         estimate D2E/DX2                !
 ! D56   D(4,6,13,10)          -36.9559         estimate D2E/DX2                !
 ! D57   D(4,6,13,16)         -170.7785         estimate D2E/DX2                !
 ! D58   D(4,6,13,17)           73.6358         estimate D2E/DX2                !
 ! D59   D(9,6,13,10)           17.0466         estimate D2E/DX2                !
 ! D60   D(9,6,13,16)         -116.7759         estimate D2E/DX2                !
 ! D61   D(9,6,13,17)          127.6383         estimate D2E/DX2                !
 ! D62   D(1,6,18,16)           87.0604         estimate D2E/DX2                !
 ! D63   D(1,6,18,19)          -16.8032         estimate D2E/DX2                !
 ! D64   D(1,6,18,20)         -159.2981         estimate D2E/DX2                !
 ! D65   D(1,6,18,21)          -88.9383         estimate D2E/DX2                !
 ! D66   D(3,6,18,16)          138.9274         estimate D2E/DX2                !
 ! D67   D(3,6,18,19)           35.0637         estimate D2E/DX2                !
 ! D68   D(3,6,18,20)         -107.4312         estimate D2E/DX2                !
 ! D69   D(3,6,18,21)          -37.0714         estimate D2E/DX2                !
 ! D70   D(4,6,18,16)          -47.1497         estimate D2E/DX2                !
 ! D71   D(4,6,18,19)         -151.0134         estimate D2E/DX2                !
 ! D72   D(4,6,18,20)           66.4917         estimate D2E/DX2                !
 ! D73   D(4,6,18,21)          136.8515         estimate D2E/DX2                !
 ! D74   D(9,6,18,16)           17.3878         estimate D2E/DX2                !
 ! D75   D(9,6,18,19)          -86.4759         estimate D2E/DX2                !
 ! D76   D(9,6,18,20)          131.0292         estimate D2E/DX2                !
 ! D77   D(9,6,18,21)         -158.611          estimate D2E/DX2                !
 ! D78   D(6,7,13,18)          -74.9696         estimate D2E/DX2                !
 ! D79   D(13,8,9,1)          -122.8516         estimate D2E/DX2                !
 ! D80   D(13,8,9,2)          -176.6169         estimate D2E/DX2                !
 ! D81   D(13,8,9,4)           -65.9172         estimate D2E/DX2                !
 ! D82   D(13,8,9,10)           29.9812         estimate D2E/DX2                !
 ! D83   D(13,8,9,11)          107.1049         estimate D2E/DX2                !
 ! D84   D(18,8,9,1)           -78.5036         estimate D2E/DX2                !
 ! D85   D(18,8,9,2)          -132.2688         estimate D2E/DX2                !
 ! D86   D(18,8,9,4)           -21.5691         estimate D2E/DX2                !
 ! D87   D(18,8,9,10)           74.3292         estimate D2E/DX2                !
 ! D88   D(18,8,9,11)          151.4529         estimate D2E/DX2                !
 ! D89   D(9,8,13,7)            91.5257         estimate D2E/DX2                !
 ! D90   D(9,8,13,10)          -31.1765         estimate D2E/DX2                !
 ! D91   D(9,8,13,16)         -158.8203         estimate D2E/DX2                !
 ! D92   D(9,8,18,7)            -4.5364         estimate D2E/DX2                !
 ! D93   D(9,8,18,16)         -105.6623         estimate D2E/DX2                !
 ! D94   D(9,8,18,19)          168.148          estimate D2E/DX2                !
 ! D95   D(9,8,18,20)          -76.6573         estimate D2E/DX2                !
 ! D96   D(9,8,18,21)           82.1249         estimate D2E/DX2                !
 ! D97   D(1,9,10,13)           82.4086         estimate D2E/DX2                !
 ! D98   D(2,9,10,13)          -99.2318         estimate D2E/DX2                !
 ! D99   D(4,9,10,13)           79.1858         estimate D2E/DX2                !
 ! D100  D(6,9,10,13)           21.0789         estimate D2E/DX2                !
 ! D101  D(8,9,10,13)          -33.3715         estimate D2E/DX2                !
 ! D102  D(11,9,10,13)         165.5239         estimate D2E/DX2                !
 ! D103  D(1,9,11,12)          -22.1409         estimate D2E/DX2                !
 ! D104  D(2,9,11,12)           36.0869         estimate D2E/DX2                !
 ! D105  D(4,9,11,12)          -76.8905         estimate D2E/DX2                !
 ! D106  D(6,9,11,12)          -61.7785         estimate D2E/DX2                !
 ! D107  D(8,9,11,12)          109.5651         estimate D2E/DX2                !
 ! D108  D(10,9,11,12)        -172.7403         estimate D2E/DX2                !
 ! D109  D(9,10,13,6)          -17.1792         estimate D2E/DX2                !
 ! D110  D(9,10,13,7)          -62.4702         estimate D2E/DX2                !
 ! D111  D(9,10,13,8)           31.6774         estimate D2E/DX2                !
 ! D112  D(9,10,13,16)         107.7656         estimate D2E/DX2                !
 ! D113  D(9,10,13,17)        -159.1379         estimate D2E/DX2                !
 ! D114  D(9,10,13,18)          20.1385         estimate D2E/DX2                !
 ! D115  D(9,11,12,1)           19.452          estimate D2E/DX2                !
 ! D116  D(9,11,12,5)           57.6147         estimate D2E/DX2                !
 ! D117  D(9,11,12,14)         -96.6602         estimate D2E/DX2                !
 ! D118  D(9,11,12,15)         147.3891         estimate D2E/DX2                !
 ! D119  D(10,13,18,19)         70.6925         estimate D2E/DX2                !
 ! D120  D(10,13,18,20)       -174.5011         estimate D2E/DX2                !
 ! D121  D(10,13,18,21)        -69.4198         estimate D2E/DX2                !
 ! D122  D(17,13,18,19)       -110.084          estimate D2E/DX2                !
 ! D123  D(17,13,18,20)          4.7224         estimate D2E/DX2                !
 ! D124  D(17,13,18,21)        109.8037         estimate D2E/DX2                !
 --------------------------------------------------------------------------------
 Trust Radius=3.00D-01 FncErr=1.00D-07 GrdErr=1.00D-06 EigMax=2.50D+02 EigMin=1.00D-04
 Number of steps in this run=    144 maximum allowed number of steps=    144.
 GradGradGradGradGradGradGradGradGradGradGradGradGradGradGradGradGradGrad

                          Input orientation:                          
 ---------------------------------------------------------------------
 Center     Atomic      Atomic             Coordinates (Angstroms)
 Number     Number       Type             X           Y           Z
 ---------------------------------------------------------------------
      1         42           0        0.267090    1.002828   11.290674
      2         16           0        0.388996    3.398113   12.211391
      3         16           0       -1.927592    0.930463   12.225241
      4         16           0       -0.130147    0.986817    8.958444
      5         16           0        2.142791   -0.295371   11.260018
      6         42           0       -2.077170    1.826727   10.086818
      7         16           0       -3.382415    1.663223    8.077393
      8         16           0       -2.106295    4.190807   10.397889
      9         42           0        0.072298    3.219031    9.713268
     10         16           0       -0.180459    4.223349    7.546336
     11         16           0        2.576415    3.029871    9.142157
     12         42           0        3.233829    1.797516   10.948453
     13         42           0       -2.450391    3.852647    7.842694
     14         16           0        4.115674    3.217422   12.647851
     15         16           0        4.996157    0.418151   10.221486
     16         16           0       -4.177383    5.563735    8.297276
     17         16           0       -3.148031    3.928090    5.622976
     18         42           0       -4.544554    3.365882    9.644880
     19          6           0       -5.485809    4.511162   11.052667
     20          6           0       -6.217519    3.027742    8.593697
     21          6           0       -5.068917    1.790942   10.818439
     22          8           0       -6.023117    5.131097   11.858723
     23          8           0       -7.153780    2.854436    7.945151
     24          8           0       -5.488722    0.943915   11.478799
 ---------------------------------------------------------------------
                    Distance matrix (angstroms):
                    1          2          3          4          5
     1  Mo   0.000000
     2  S    2.569041   0.000000
     3  S    2.386479   3.384682   0.000000
     4  S    2.365872   4.082343   3.729068   0.000000
     5  S    2.281341   4.197944   4.359168   3.479583   0.000000
     6  Mo   2.761093   3.614560   2.323471   2.401994   4.867008
     7  S    4.907156   5.858611   4.456242   3.436717   6.670314
     8  S    4.073479   3.184907   3.741790   4.030225   6.238893
     9  Mo   2.727216   2.524478   3.942983   2.365063   4.362384
    10  S    4.959045   4.771586   5.982284   3.531532   6.293469
    11  S    3.749401   3.786899   5.847991   3.396071   3.966182
    12  Mo   3.090337   3.500000   5.387229   3.991704   2.380675
    13  Mo   5.233998   5.230128   5.293316   3.852455   7.069758
    14  S    4.643054   3.756497   6.475326   6.050976   4.261227
    15  S    4.883553   5.836594   7.226050   5.310146   3.119192
    16  S    7.036735   6.392342   6.477475   6.145359   9.113263
    17  S    7.234847   7.496576   7.352900   5.374389   8.809464
    18  Mo   5.607547   5.561289   4.408857   5.061436   7.793204
    19  C    6.742470   6.090555   5.182397   6.744620   9.018941
    20  C    7.309180   7.541282   5.999180   6.430747   9.383343
    21  C    5.414527   5.857656   3.547878   5.338319   7.520401
    22  O    7.545329   6.651526   5.878179   7.766194   9.822783
    23  O    8.348071   8.682734   7.023808   7.337996  10.360302
    24  O    5.759187   6.411501   3.638544   5.921854   7.734577
                    6          7          8          9         10
     6  Mo   0.000000
     7  S    2.401705   0.000000
     8  S    2.384636   3.660856   0.000000
     9  Mo   2.588100   4.126944   2.481798   0.000000
    10  S    3.974337   4.133859   3.441113   2.401694   0.000000
    11  S    4.898550   6.205570   4.985219   2.575374   3.401674
    12  Mo   5.380518   7.213578   5.877745   3.679900   5.395964
    13  Mo   3.046266   2.391094   2.600341   3.203822   2.319017
    14  S    6.844285   8.917733   6.687504   4.996065   6.744931
    15  S    7.213472   8.737724   8.044183   5.687496   6.959405
    16  S    4.645275   3.986768   3.253753   5.055933   4.282049
    17  S    5.048599   3.347943   4.894285   5.253929   3.548658
    18  Mo   2.941478   2.589716   2.681908   4.619693   4.917770
    19  C    4.444983   4.624638   3.457235   5.861412   6.365841
    20  C    4.562273   3.188463   4.637887   6.391544   6.242799
    21  C    3.080114   3.220859   3.835798   5.449122   6.365554
    22  O    5.443253   5.770434   4.284819   6.738921   7.318288
    23  O    5.604899   3.957230   5.768788   7.448179   7.117597
    24  O    3.788886   4.064910   4.811599   6.262443   7.375406
                   11         12         13         14         15
    11  S    0.000000
    12  Mo   2.283330   0.000000
    13  Mo   5.256838   6.795562   0.000000
    14  S    3.833325   2.383639   8.161265   0.000000
    15  S    3.720374   2.353068   8.538472   3.807678   0.000000
    16  S    7.262787   8.725778   2.473251   9.654402  10.692683
    17  S    6.779433   8.580687   2.327991  10.129922   9.989683
    18  Mo   7.146596   8.041288   2.805411   9.167302  10.002338
    19  C    8.416872   9.132734   4.466691   9.818699  11.283405
    20  C    8.811021   9.817653   3.928833  11.101667  11.627820
    21  C    7.924391   8.303766   4.467926   9.473030  10.175786
    22  O    9.259959   9.880911   5.525151  10.347945  12.096149
    23  O    9.805116  10.864590   4.809240  12.216699  12.599133
    24  O    8.652025   8.780250   5.559985   9.938810  10.573077
                   16         17         18         19         20
    16  S    0.000000
    17  S    3.299512   0.000000
    18  Mo   2.604114   4.294423   0.000000
    19  C    3.226774   5.940263   2.044380   0.000000
    20  C    3.268223   4.365497   2.004529   2.963523   0.000000
    21  C    4.624399   5.937174   2.032888   2.761930   2.792568
    22  O    4.034577   6.971218   3.194250   1.150107   3.888739
    23  O    4.040202   4.753026   3.155743   3.896604   1.152055
    24  O    5.760593   6.976733   3.181295   3.592610   3.632808
                   21         22         23         24
    21  C    0.000000
    22  O    3.626200   0.000000
    23  O    3.705868   4.666651   0.000000
    24  O    1.153155   4.238209   4.348468   0.000000
 Symmetry turned off by external request.
 Stoichiometry    C3Mo6O3S12
 Framework group  C1[X(C3Mo6O3S12)]
 Deg. of freedom    66
 Full point group                 C1      NOp   1
 Rotational constants (GHZ):           0.1437164           0.0442351           0.0400674
 General basis read from cards:  (5D, 7F)
 ======================================================================================================
                                       Pseudopotential Parameters
 ======================================================================================================
  Center     Atomic      Valence      Angular      Power
  Number     Number     Electrons     Momentum     of R      Exponent        Coefficient   SO-Coeffient
 ======================================================================================================
    1         42           14
                                      F and up 
                                                     0      537.9667807       -0.04694920    0.00000000
                                                     1      147.8982938      -20.20800840    0.00000000
                                                     2       45.7358898     -106.21163020    0.00000000
                                                     2       13.2911467      -41.81073680    0.00000000
                                                     2        4.7059961       -4.20541030    0.00000000
                                      S - F
                                                     0      110.2991760        2.80637170    0.00000000
                                                     1       23.2014645       44.51620120    0.00000000
                                                     2        5.3530131       82.77852270    0.00000000
                                      P - F
                                                     0       63.2901397        4.94208760    0.00000000
                                                     1       23.3315302       25.86049760    0.00000000
                                                     2       24.6759423      132.47087420    0.00000000
                                                     2        4.6493040       57.31497940    0.00000000
                                      D - F
                                                     0      104.4839977        3.00545910    0.00000000
                                                     1       66.2307245       26.36378510    0.00000000
                                                     2       39.1283176      183.38491990    0.00000000
                                                     2       13.1164437       98.44530680    0.00000000
                                                     2        3.6280263       22.49013770    0.00000000
    2         16
                                   No pseudopotential on this center.
    3         16
                                   No pseudopotential on this center.
    4         16
                                   No pseudopotential on this center.
    5         16
                                   No pseudopotential on this center.
    6         42           14
                                      F and up 
                                                     0      537.9667807       -0.04694920    0.00000000
                                                     1      147.8982938      -20.20800840    0.00000000
                                                     2       45.7358898     -106.21163020    0.00000000
                                                     2       13.2911467      -41.81073680    0.00000000
                                                     2        4.7059961       -4.20541030    0.00000000
                                      S - F
                                                     0      110.2991760        2.80637170    0.00000000
                                                     1       23.2014645       44.51620120    0.00000000
                                                     2        5.3530131       82.77852270    0.00000000
                                      P - F
                                                     0       63.2901397        4.94208760    0.00000000
                                                     1       23.3315302       25.86049760    0.00000000
                                                     2       24.6759423      132.47087420    0.00000000
                                                     2        4.6493040       57.31497940    0.00000000
                                      D - F
                                                     0      104.4839977        3.00545910    0.00000000
                                                     1       66.2307245       26.36378510    0.00000000
                                                     2       39.1283176      183.38491990    0.00000000
                                                     2       13.1164437       98.44530680    0.00000000
                                                     2        3.6280263       22.49013770    0.00000000
    7         16
                                   No pseudopotential on this center.
    8         16
                                   No pseudopotential on this center.
    9         42           14
                                      F and up 
                                                     0      537.9667807       -0.04694920    0.00000000
                                                     1      147.8982938      -20.20800840    0.00000000
                                                     2       45.7358898     -106.21163020    0.00000000
                                                     2       13.2911467      -41.81073680    0.00000000
                                                     2        4.7059961       -4.20541030    0.00000000
                                      S - F
                                                     0      110.2991760        2.80637170    0.00000000
                                                     1       23.2014645       44.51620120    0.00000000
                                                     2        5.3530131       82.77852270    0.00000000
                                      P - F
                                                     0       63.2901397        4.94208760    0.00000000
                                                     1       23.3315302       25.86049760    0.00000000
                                                     2       24.6759423      132.47087420    0.00000000
                                                     2        4.6493040       57.31497940    0.00000000
                                      D - F
                                                     0      104.4839977        3.00545910    0.00000000
                                                     1       66.2307245       26.36378510    0.00000000
                                                     2       39.1283176      183.38491990    0.00000000
                                                     2       13.1164437       98.44530680    0.00000000
                                                     2        3.6280263       22.49013770    0.00000000
   10         16
                                   No pseudopotential on this center.
   11         16
                                   No pseudopotential on this center.
   12         42           14
                                      F and up 
                                                     0      537.9667807       -0.04694920    0.00000000
                                                     1      147.8982938      -20.20800840    0.00000000
                                                     2       45.7358898     -106.21163020    0.00000000
                                                     2       13.2911467      -41.81073680    0.00000000
                                                     2        4.7059961       -4.20541030    0.00000000
                                      S - F
                                                     0      110.2991760        2.80637170    0.00000000
                                                     1       23.2014645       44.51620120    0.00000000
                                                     2        5.3530131       82.77852270    0.00000000
                                      P - F
                                                     0       63.2901397        4.94208760    0.00000000
                                                     1       23.3315302       25.86049760    0.00000000
                                                     2       24.6759423      132.47087420    0.00000000
                                                     2        4.6493040       57.31497940    0.00000000
                                      D - F
                                                     0      104.4839977        3.00545910    0.00000000
                                                     1       66.2307245       26.36378510    0.00000000
                                                     2       39.1283176      183.38491990    0.00000000
                                                     2       13.1164437       98.44530680    0.00000000
                                                     2        3.6280263       22.49013770    0.00000000
   13         42           14
                                      F and up 
                                                     0      537.9667807       -0.04694920    0.00000000
                                                     1      147.8982938      -20.20800840    0.00000000
                                                     2       45.7358898     -106.21163020    0.00000000
                                                     2       13.2911467      -41.81073680    0.00000000
                                                     2        4.7059961       -4.20541030    0.00000000
                                      S - F
                                                     0      110.2991760        2.80637170    0.00000000
                                                     1       23.2014645       44.51620120    0.00000000
                                                     2        5.3530131       82.77852270    0.00000000
                                      P - F
                                                     0       63.2901397        4.94208760    0.00000000
                                                     1       23.3315302       25.86049760    0.00000000
                                                     2       24.6759423      132.47087420    0.00000000
                                                     2        4.6493040       57.31497940    0.00000000
                                      D - F
                                                     0      104.4839977        3.00545910    0.00000000
                                                     1       66.2307245       26.36378510    0.00000000
                                                     2       39.1283176      183.38491990    0.00000000
                                                     2       13.1164437       98.44530680    0.00000000
                                                     2        3.6280263       22.49013770    0.00000000
   14         16
                                   No pseudopotential on this center.
   15         16
                                   No pseudopotential on this center.
   16         16
                                   No pseudopotential on this center.
   17         16
                                   No pseudopotential on this center.
   18         42           14
                                      F and up 
                                                     0      537.9667807       -0.04694920    0.00000000
                                                     1      147.8982938      -20.20800840    0.00000000
                                                     2       45.7358898     -106.21163020    0.00000000
                                                     2       13.2911467      -41.81073680    0.00000000
                                                     2        4.7059961       -4.20541030    0.00000000
                                      S - F
                                                     0      110.2991760        2.80637170    0.00000000
                                                     1       23.2014645       44.51620120    0.00000000
                                                     2        5.3530131       82.77852270    0.00000000
                                      P - F
                                                     0       63.2901397        4.94208760    0.00000000
                                                     1       23.3315302       25.86049760    0.00000000
                                                     2       24.6759423      132.47087420    0.00000000
                                                     2        4.6493040       57.31497940    0.00000000
                                      D - F
                                                     0      104.4839977        3.00545910    0.00000000
                                                     1       66.2307245       26.36378510    0.00000000
                                                     2       39.1283176      183.38491990    0.00000000
                                                     2       13.1164437       98.44530680    0.00000000
                                                     2        3.6280263       22.49013770    0.00000000
   19          6
                                   No pseudopotential on this center.
   20          6
                                   No pseudopotential on this center.
   21          6
                                   No pseudopotential on this center.
   22          8
                                   No pseudopotential on this center.
   23          8
                                   No pseudopotential on this center.
   24          8
                                   No pseudopotential on this center.
 ======================================================================================================
   432 basis functions,  1086 primitive gaussians,   462 cartesian basis functions
   159 alpha electrons      159 beta electrons
       nuclear repulsion energy      5773.7598686761 Hartrees.
 NAtoms=   24 NActive=   24 NUniq=   24 SFac= 1.00D+00 NAtFMM=   60 NAOKFM=F Big=F
 Integral buffers will be    131072 words long.
 Raffenetti 2 integral format.
 Two-electron integral symmetry is turned off.
 One-electron integrals computed using PRISM.
   1 Symmetry operations used in ECPInt.
 ECPInt:  NShTT=    8778 NPrTT=   69960 LenC2=    7531 LenP2D=   36177.
 LDataN:  DoStor=T MaxTD1= 5 Len=  102
 NBasis=   432 RedAO= T EigKep=  6.22D-04  NBF=   432
 NBsUse=   432 1.00D-06 EigRej= -1.00D+00 NBFU=   432
 Defaulting to unpruned grid for atomic number  42.
 Defaulting to unpruned grid for atomic number  42.
 Defaulting to unpruned grid for atomic number  42.
 Defaulting to unpruned grid for atomic number  42.
 Defaulting to unpruned grid for atomic number  42.
 Defaulting to unpruned grid for atomic number  42.
 ExpMin= 2.47D-02 ExpMax= 2.19D+04 ExpMxC= 3.30D+03 IAcc=3 IRadAn=         5 AccDes= 0.00D+00
 Harris functional with IExCor=  402 and IRadAn=       5 diagonalized for initial guess.
 HarFok:  IExCor=  402 AccDes= 0.00D+00 IRadAn=         5 IDoV= 1 UseB2=F ITyADJ=14
 ICtDFT=  3500011 ScaDFX=  1.000000  1.000000  1.000000  1.000000
 Defaulting to unpruned grid for atomic number  42.
 FoFCou: FMM=F IPFlag=           0 FMFlag=      100000 FMFlg1=           0
         NFxFlg=           0 DoJE=T BraDBF=F KetDBF=T FulRan=T
         wScrn=  0.000000 ICntrl=       500 IOpCl=  0 I1Cent=   200000004 NGrid=           0
         NMat0=    1 NMatS0=      1 NMatT0=    0 NMatD0=    1 NMtDS0=    0 NMtDT0=    0
 Symmetry not used in FoFCou.
 Requested convergence on RMS density matrix=1.00D-08 within 128 cycles.
 Requested convergence on MAX density matrix=1.00D-06.
 Requested convergence on             energy=1.00D-06.
 No special actions if energy rises.
 Defaulting to unpruned grid for atomic number  42.
 Defaulting to unpruned grid for atomic number  42.
 Defaulting to unpruned grid for atomic number  42.
 Defaulting to unpruned grid for atomic number  42.
 Defaulting to unpruned grid for atomic number  42.
 Defaulting to unpruned grid for atomic number  42.
 Defaulting to unpruned grid for atomic number  42.
 Defaulting to unpruned grid for atomic number  42.
 Defaulting to unpruned grid for atomic number  42.
 Defaulting to unpruned grid for atomic number  42.
 Defaulting to unpruned grid for atomic number  42.
 Defaulting to unpruned grid for atomic number  42.
 Defaulting to unpruned grid for atomic number  42.
 Defaulting to unpruned grid for atomic number  42.
 Defaulting to unpruned grid for atomic number  42.
 Defaulting to unpruned grid for atomic number  42.
 Defaulting to unpruned grid for atomic number  42.
 Defaulting to unpruned grid for atomic number  42.
 Defaulting to unpruned grid for atomic number  42.
 Defaulting to unpruned grid for atomic number  42.
 Defaulting to unpruned grid for atomic number  42.
 Defaulting to unpruned grid for atomic number  42.
 Defaulting to unpruned grid for atomic number  42.
 Defaulting to unpruned grid for atomic number  42.
 Defaulting to unpruned grid for atomic number  42.
 Defaulting to unpruned grid for atomic number  42.
 Defaulting to unpruned grid for atomic number  42.
 Defaulting to unpruned grid for atomic number  42.
 Defaulting to unpruned grid for atomic number  42.
 Defaulting to unpruned grid for atomic number  42.
 Defaulting to unpruned grid for atomic number  42.
 Defaulting to unpruned grid for atomic number  42.
 Defaulting to unpruned grid for atomic number  42.
 Defaulting to unpruned grid for atomic number  42.
 Defaulting to unpruned grid for atomic number  42.
 Defaulting to unpruned grid for atomic number  42.
 Defaulting to unpruned grid for atomic number  42.
 Defaulting to unpruned grid for atomic number  42.
 Defaulting to unpruned grid for atomic number  42.
 Defaulting to unpruned grid for atomic number  42.
 Defaulting to unpruned grid for atomic number  42.
 Defaulting to unpruned grid for atomic number  42.
 Defaulting to unpruned grid for atomic number  42.
 Defaulting to unpruned grid for atomic number  42.
 Defaulting to unpruned grid for atomic number  42.
 Defaulting to unpruned grid for atomic number  42.
 EnCoef did     4 forward-backward iterations
 EnCoef did   100 forward-backward iterations
 EnCoef did   100 forward-backward iterations
 EnCoef did   100 forward-backward iterations
 EnCoef did     3 forward-backward iterations
 EnCoef did     5 forward-backward iterations
 EnCoef did     9 forward-backward iterations
 EnCoef did     5 forward-backward iterations
 EnCoef did     5 forward-backward iterations
 EnCoef did   100 forward-backward iterations
 EnCoef did     8 forward-backward iterations
 EnCoef did     7 forward-backward iterations
 EnCoef did     6 forward-backward iterations
 EnCoef did     3 forward-backward iterations
 EnCoef did     5 forward-backward iterations
 Restarting incremental Fock formation.
 SCF Done:  E(RB3LYP) =  -5523.98872992     A.U. after   38 cycles
            NFock= 38  Conv=0.81D-08     -V/T= 2.0545

 **********************************************************************

            Population analysis using the SCF Density.

 **********************************************************************

 Alpha  occ. eigenvalues --  -88.93893 -88.93824 -88.92525 -88.91982 -88.91477
 Alpha  occ. eigenvalues --  -88.90807 -88.90336 -88.89730 -88.89441 -88.89396
 Alpha  occ. eigenvalues --  -88.89390 -88.87981 -19.27929 -19.27395 -19.26707
 Alpha  occ. eigenvalues --  -10.35146 -10.35049 -10.34246  -8.01398  -8.01371
 Alpha  occ. eigenvalues --   -7.99976  -7.99119  -7.99090  -7.98202  -7.97998
 Alpha  occ. eigenvalues --   -7.97494  -7.97058  -7.96799  -7.96728  -7.95267
 Alpha  occ. eigenvalues --   -5.97412  -5.97392  -5.97372  -5.97332  -5.97297
 Alpha  occ. eigenvalues --   -5.97264  -5.96040  -5.95949  -5.95847  -5.95175
 Alpha  occ. eigenvalues --   -5.95105  -5.95087  -5.95051  -5.95032  -5.95026
 Alpha  occ. eigenvalues --   -5.94295  -5.94150  -5.94106  -5.93977  -5.93945
 Alpha  occ. eigenvalues --   -5.93911  -5.93554  -5.93475  -5.93295  -5.93172
 Alpha  occ. eigenvalues --   -5.93035  -5.92996  -5.92851  -5.92834  -5.92761
 Alpha  occ. eigenvalues --   -5.92725  -5.92604  -5.92503  -5.91336  -5.91288
 Alpha  occ. eigenvalues --   -5.91125  -2.58663  -2.58483  -2.58318  -2.57619
 Alpha  occ. eigenvalues --   -2.57326  -2.52910  -1.62082  -1.61487  -1.61110
 Alpha  occ. eigenvalues --   -1.60771  -1.60634  -1.60492  -1.60414  -1.60248
 Alpha  occ. eigenvalues --   -1.60045  -1.59842  -1.59722  -1.59403  -1.59265
 Alpha  occ. eigenvalues --   -1.58627  -1.58203  -1.55711  -1.55388  -1.54921
 Alpha  occ. eigenvalues --   -1.17990  -1.17554  -1.16811  -0.77873  -0.76759
 Alpha  occ. eigenvalues --   -0.75196  -0.74200  -0.72988  -0.72679  -0.71560
 Alpha  occ. eigenvalues --   -0.71223  -0.70708  -0.68776  -0.68524  -0.67060
 Alpha  occ. eigenvalues --   -0.61391  -0.60314  -0.59655  -0.51235  -0.50329
 Alpha  occ. eigenvalues --   -0.50093  -0.49854  -0.49613  -0.48839  -0.48502
 Alpha  occ. eigenvalues --   -0.48202  -0.47887  -0.44567  -0.43931  -0.43627
 Alpha  occ. eigenvalues --   -0.43482  -0.42909  -0.41924  -0.41019  -0.40056
 Alpha  occ. eigenvalues --   -0.39978  -0.39241  -0.38974  -0.38564  -0.37423
 Alpha  occ. eigenvalues --   -0.37372  -0.37193  -0.36449  -0.36155  -0.35827
 Alpha  occ. eigenvalues --   -0.35581  -0.34932  -0.34760  -0.34452  -0.33993
 Alpha  occ. eigenvalues --   -0.33637  -0.33462  -0.32793  -0.32261  -0.31880
 Alpha  occ. eigenvalues --   -0.31389  -0.30534  -0.30506  -0.29983  -0.29617
 Alpha  occ. eigenvalues --   -0.29004  -0.28369  -0.27802  -0.27560  -0.26591
 Alpha  occ. eigenvalues --   -0.26320  -0.25361  -0.25132  -0.24130
 Alpha virt. eigenvalues --   -0.20972  -0.19532  -0.18593  -0.17485  -0.17033
 Alpha virt. eigenvalues --   -0.16317  -0.15935  -0.15612  -0.15371  -0.14657
 Alpha virt. eigenvalues --   -0.13999  -0.13425  -0.13119  -0.12132  -0.11987
 Alpha virt. eigenvalues --   -0.11592  -0.10839  -0.10746  -0.09796  -0.09103
 Alpha virt. eigenvalues --   -0.08206  -0.07468  -0.06288  -0.05393  -0.04530
 Alpha virt. eigenvalues --   -0.04371  -0.03143  -0.02864  -0.02542  -0.02013
 Alpha virt. eigenvalues --   -0.01295   0.00055   0.00561   0.01176   0.02104
 Alpha virt. eigenvalues --    0.02636   0.02898   0.03416   0.03819   0.04219
 Alpha virt. eigenvalues --    0.04410   0.04989   0.05455   0.05780   0.06014
 Alpha virt. eigenvalues --    0.06418   0.06735   0.07628   0.08709   0.08914
 Alpha virt. eigenvalues --    0.09007   0.09395   0.11075   0.11226   0.12903
 Alpha virt. eigenvalues --    0.13082   0.14198   0.15483   0.16147   0.16835
 Alpha virt. eigenvalues --    0.17366   0.17691   0.18580   0.20066   0.21482
 Alpha virt. eigenvalues --    0.21705   0.22983   0.23864   0.24057   0.24779
 Alpha virt. eigenvalues --    0.26222   0.26443   0.27442   0.27664   0.28496
 Alpha virt. eigenvalues --    0.28669   0.29073   0.30080   0.30853   0.30932
 Alpha virt. eigenvalues --    0.31089   0.31449   0.31827   0.32251   0.32611
 Alpha virt. eigenvalues --    0.33237   0.33608   0.34308   0.34670   0.34705
 Alpha virt. eigenvalues --    0.35523   0.35690   0.36435   0.36723   0.37216
 Alpha virt. eigenvalues --    0.37474   0.37724   0.38034   0.38367   0.38586
 Alpha virt. eigenvalues --    0.39499   0.39645   0.40045   0.40403   0.40801
 Alpha virt. eigenvalues --    0.41333   0.41629   0.42541   0.42574   0.42963
 Alpha virt. eigenvalues --    0.43385   0.43549   0.44143   0.44603   0.45315
 Alpha virt. eigenvalues --    0.45787   0.46341   0.46577   0.46797   0.47780
 Alpha virt. eigenvalues --    0.48391   0.48788   0.49460   0.50479   0.51198
 Alpha virt. eigenvalues --    0.51768   0.52565   0.53001   0.53509   0.53906
 Alpha virt. eigenvalues --    0.55623   0.55940   0.56053   0.57077   0.57640
 Alpha virt. eigenvalues --    0.57896   0.59387   0.59867   0.60374   0.61078
 Alpha virt. eigenvalues --    0.62289   0.62532   0.64281   0.64300   0.65503
 Alpha virt. eigenvalues --    0.65975   0.66625   0.67489   0.67759   0.69017
 Alpha virt. eigenvalues --    0.69200   0.70135   0.70687   0.71780   0.72051
 Alpha virt. eigenvalues --    0.72119   0.72906   0.73781   0.74232   0.74369
 Alpha virt. eigenvalues --    0.75381   0.75955   0.76428   0.76782   0.77067
 Alpha virt. eigenvalues --    0.77520   0.77751   0.78386   0.78742   0.78891
 Alpha virt. eigenvalues --    0.79467   0.80169   0.80415   0.80699   0.81359
 Alpha virt. eigenvalues --    0.82338   0.83294   0.83667   0.84292   0.84349
 Alpha virt. eigenvalues --    0.84978   0.85733   0.86178   0.86839   0.87256
 Alpha virt. eigenvalues --    0.87657   0.87900   0.88529   0.89287   0.89689
 Alpha virt. eigenvalues --    0.90972   0.91650   0.91765   0.92058   0.92907
 Alpha virt. eigenvalues --    0.94130   0.94882   0.95288   0.96104   0.96425
 Alpha virt. eigenvalues --    0.97016   0.98135   0.98839   0.99657   1.00205
 Alpha virt. eigenvalues --    1.00669   1.00866   1.01325   1.01861   1.02485
 Alpha virt. eigenvalues --    1.03282   1.03620   1.04269   1.04657   1.05672
 Alpha virt. eigenvalues --    1.06515   1.06956   1.07687   1.08490   1.08886
 Alpha virt. eigenvalues --    1.09606   1.09717   1.11474   1.12184   1.12768
 Alpha virt. eigenvalues --    1.14681   1.15189   1.16236   1.18817   1.21469
 Alpha virt. eigenvalues --    1.24883   1.27065   1.35010   1.38895   1.45380
 Alpha virt. eigenvalues --    1.46384   1.47062   1.47695   1.50824   1.51357
 Alpha virt. eigenvalues --    1.52058   1.52234   1.54900   1.58418   1.59176
 Alpha virt. eigenvalues --    1.62218   1.73954   1.75392   1.76774   1.91334
 Alpha virt. eigenvalues --    1.91653   1.92091   1.94745   1.95767   1.96815
 Alpha virt. eigenvalues --    2.35567   2.36569   2.40268   2.54749   2.55117
 Alpha virt. eigenvalues --    2.55419   2.55782   2.56169   2.56958   2.95419
 Alpha virt. eigenvalues --    2.99627   3.01432   6.79687   9.44047   9.62930
 Alpha virt. eigenvalues --   11.79107  15.73329  20.24716
          Condensed to atoms (all electrons):
               1          2          3          4          5          6
     1  Mo  14.311655   0.279844   0.220451   0.185725   0.257019  -0.586232
     2  S    0.279844  15.405848  -0.030701   0.012102  -0.003811  -0.065491
     3  S    0.220451  -0.030701  15.589599  -0.015384   0.000017   0.241597
     4  S    0.185725   0.012102  -0.015384  15.389914  -0.007390   0.051190
     5  S    0.257019  -0.003811   0.000017  -0.007390  15.687166  -0.029930
     6  Mo  -0.586232  -0.065491   0.241597   0.051190  -0.029930  14.772327
     7  S    0.004010  -0.000233  -0.002537  -0.014821   0.000075   0.184657
     8  S    0.002358  -0.053359   0.019489   0.003330  -0.000132   0.115616
     9  Mo  -0.284947   0.233016  -0.036718   0.158326  -0.006609  -0.110263
    10  S   -0.007690  -0.002244  -0.000098  -0.011706   0.000001  -0.030296
    11  S   -0.049236  -0.018020  -0.000259  -0.022732  -0.002592   0.000391
    12  Mo  -0.218551   0.010247  -0.004927  -0.032133   0.199991   0.045229
    13  Mo   0.079911   0.007450  -0.006430  -0.032535  -0.000131  -0.271119
    14  S   -0.016298  -0.002325  -0.000026  -0.000034   0.008734  -0.000925
    15  S   -0.000380  -0.000391   0.000002   0.000234  -0.050639  -0.002420
    16  S    0.000250  -0.000033   0.000028   0.000023  -0.000000   0.000933
    17  S   -0.000341  -0.000002  -0.000001   0.000297   0.000000  -0.007243
    18  Mo  -0.070983   0.008432   0.020603  -0.003315  -0.000238  -0.214437
    19  C    0.000076   0.000024  -0.000093  -0.000004  -0.000000  -0.011297
    20  C    0.000249  -0.000000  -0.000010   0.000002   0.000000  -0.015555
    21  C   -0.000228   0.000012  -0.002167  -0.000066  -0.000000   0.066362
    22  O    0.000150  -0.000000   0.000001  -0.000000   0.000000   0.000508
    23  O    0.000122   0.000000   0.000000  -0.000000  -0.000000  -0.001857
    24  O   -0.005821  -0.000001  -0.000792   0.000009   0.000000   0.022669
               7          8          9         10         11         12
     1  Mo   0.004010   0.002358  -0.284947  -0.007690  -0.049236  -0.218551
     2  S   -0.000233  -0.053359   0.233016  -0.002244  -0.018020   0.010247
     3  S   -0.002537   0.019489  -0.036718  -0.000098  -0.000259  -0.004927
     4  S   -0.014821   0.003330   0.158326  -0.011706  -0.022732  -0.032133
     5  S    0.000075  -0.000132  -0.006609   0.000001  -0.002592   0.199991
     6  Mo   0.184657   0.115616  -0.110263  -0.030296   0.000391   0.045229
     7  S   15.448683  -0.053514  -0.038781   0.011138   0.000002   0.000119
     8  S   -0.053514  15.605473   0.124253  -0.064702  -0.003946   0.003470
     9  Mo  -0.038781   0.124253  14.308379   0.224657   0.216786  -0.083424
    10  S    0.011138  -0.064702   0.224657  15.601320  -0.022890   0.005295
    11  S    0.000002  -0.003946   0.216786  -0.022890  15.576544   0.311910
    12  Mo   0.000119   0.003470  -0.083424   0.005295   0.311910  12.955767
    13  Mo   0.265282  -0.027382  -0.313822   0.284694   0.004550  -0.015538
    14  S   -0.000000  -0.000020  -0.003356   0.000009   0.003559   0.436374
    15  S   -0.000000  -0.000000  -0.005949   0.000006   0.000817   0.426779
    16  S    0.004780  -0.043239  -0.006752   0.008356  -0.000001  -0.000095
    17  S   -0.008295  -0.008001  -0.021390  -0.003489   0.000015  -0.000146
    18  Mo   0.035240   0.103898   0.026008  -0.016257   0.000226   0.000488
    19  C   -0.004392   0.008592  -0.000439   0.000014   0.000000  -0.000004
    20  C    0.011725  -0.002431   0.002505  -0.000022  -0.000000   0.000002
    21  C   -0.015371   0.000557  -0.001187   0.000010  -0.000000   0.000055
    22  O    0.000005  -0.000352  -0.000807  -0.000000  -0.000000   0.000002
    23  O   -0.000887   0.000000   0.000417   0.000000   0.000000   0.000000
    24  O   -0.000603  -0.000010   0.000835   0.000000  -0.000000   0.000004
              13         14         15         16         17         18
     1  Mo   0.079911  -0.016298  -0.000380   0.000250  -0.000341  -0.070983
     2  S    0.007450  -0.002325  -0.000391  -0.000033  -0.000002   0.008432
     3  S   -0.006430  -0.000026   0.000002   0.000028  -0.000001   0.020603
     4  S   -0.032535  -0.000034   0.000234   0.000023   0.000297  -0.003315
     5  S   -0.000131   0.008734  -0.050639  -0.000000   0.000000  -0.000238
     6  Mo  -0.271119  -0.000925  -0.002420   0.000933  -0.007243  -0.214437
     7  S    0.265282  -0.000000  -0.000000   0.004780  -0.008295   0.035240
     8  S   -0.027382  -0.000020  -0.000000  -0.043239  -0.008001   0.103898
     9  Mo  -0.313822  -0.003356  -0.005949  -0.006752  -0.021390   0.026008
    10  S    0.284694   0.000009   0.000006   0.008356  -0.003489  -0.016257
    11  S    0.004550   0.003559   0.000817  -0.000001   0.000015   0.000226
    12  Mo  -0.015538   0.436374   0.426779  -0.000095  -0.000146   0.000488
    13  Mo  13.928559   0.000172  -0.000029   0.303173   0.461489  -0.234252
    14  S    0.000172  15.637349  -0.001555  -0.000000   0.000000  -0.000002
    15  S   -0.000029  -0.001555  15.610994   0.000000  -0.000000  -0.000006
    16  S    0.303173  -0.000000   0.000000  15.365276  -0.055182   0.221482
    17  S    0.461489   0.000000  -0.000000  -0.055182  15.610579  -0.021460
    18  Mo  -0.234252  -0.000002  -0.000006   0.221482  -0.021460  14.059573
    19  C   -0.021448   0.000000  -0.000000  -0.001559  -0.000029   0.098864
    20  C   -0.022235  -0.000000   0.000000   0.001401  -0.000128   0.140280
    21  C   -0.004277   0.000000   0.000000  -0.003657  -0.000017   0.059554
    22  O   -0.001106  -0.000000  -0.000000  -0.001023  -0.000000   0.007209
    23  O    0.003095   0.000000   0.000000  -0.000355   0.000060   0.004320
    24  O   -0.000007  -0.000000   0.000000   0.000005  -0.000000  -0.016641
              19         20         21         22         23         24
     1  Mo   0.000076   0.000249  -0.000228   0.000150   0.000122  -0.005821
     2  S    0.000024  -0.000000   0.000012  -0.000000   0.000000  -0.000001
     3  S   -0.000093  -0.000010  -0.002167   0.000001   0.000000  -0.000792
     4  S   -0.000004   0.000002  -0.000066  -0.000000  -0.000000   0.000009
     5  S   -0.000000   0.000000  -0.000000   0.000000  -0.000000   0.000000
     6  Mo  -0.011297  -0.015555   0.066362   0.000508  -0.001857   0.022669
     7  S   -0.004392   0.011725  -0.015371   0.000005  -0.000887  -0.000603
     8  S    0.008592  -0.002431   0.000557  -0.000352   0.000000  -0.000010
     9  Mo  -0.000439   0.002505  -0.001187  -0.000807   0.000417   0.000835
    10  S    0.000014  -0.000022   0.000010  -0.000000   0.000000   0.000000
    11  S    0.000000  -0.000000  -0.000000  -0.000000   0.000000  -0.000000
    12  Mo  -0.000004   0.000002   0.000055   0.000002   0.000000   0.000004
    13  Mo  -0.021448  -0.022235  -0.004277  -0.001106   0.003095  -0.000007
    14  S    0.000000  -0.000000   0.000000  -0.000000   0.000000  -0.000000
    15  S   -0.000000   0.000000   0.000000  -0.000000   0.000000   0.000000
    16  S   -0.001559   0.001401  -0.003657  -0.001023  -0.000355   0.000005
    17  S   -0.000029  -0.000128  -0.000017  -0.000000   0.000060  -0.000000
    18  Mo   0.098864   0.140280   0.059554   0.007209   0.004320  -0.016641
    19  C    5.110178  -0.015698  -0.011291   0.621069  -0.000560  -0.001467
    20  C   -0.015698   5.047384  -0.016570  -0.000570   0.615755  -0.001318
    21  C   -0.011291  -0.016570   5.092998  -0.001675  -0.001334   0.611456
    22  O    0.621069  -0.000570  -0.001675   7.583483   0.000011   0.000020
    23  O   -0.000560   0.615755  -0.001334   0.000011   7.599041   0.000031
    24  O   -0.001467  -0.001318   0.611456   0.000020   0.000031   7.612883
 Mulliken charges:
               1
     1  Mo  -0.101114
     2  S    0.219636
     3  S    0.008357
     4  S    0.338969
     5  S   -0.051530
     6  Mo  -0.154413
     7  S    0.173718
     8  S    0.270050
     9  Mo  -0.380738
    10  S    0.023894
    11  S    0.004876
    12  Mo  -0.040913
    13  Mo  -0.388063
    14  S   -0.061657
    15  S    0.022536
    16  S    0.206189
    17  S    0.053284
    18  Mo  -0.208587
    19  C    0.229465
    20  C    0.255235
    21  C    0.226838
    22  O   -0.206924
    23  O   -0.217858
    24  O   -0.221251
 Sum of Mulliken charges =  -0.00000
 Mulliken charges with hydrogens summed into heavy atoms:
               1
     1  Mo  -0.101114
     2  S    0.219636
     3  S    0.008357
     4  S    0.338969
     5  S   -0.051530
     6  Mo  -0.154413
     7  S    0.173718
     8  S    0.270050
     9  Mo  -0.380738
    10  S    0.023894
    11  S    0.004876
    12  Mo  -0.040913
    13  Mo  -0.388063
    14  S   -0.061657
    15  S    0.022536
    16  S    0.206189
    17  S    0.053284
    18  Mo  -0.208587
    19  C    0.229465
    20  C    0.255235
    21  C    0.226838
    22  O   -0.206924
    23  O   -0.217858
    24  O   -0.221251
 Electronic spatial extent (au):  <R**2>=         138429.4487
 Charge=             -0.0000 electrons
 Dipole moment (field-independent basis, Debye):
    X=             -4.7206    Y=             -1.4163    Z=              1.1011  Tot=              5.0500
 Quadrupole moment (field-independent basis, Debye-Ang):
   XX=           -338.7494   YY=           -332.9004   ZZ=           -318.2689
   XY=             -9.4542   XZ=            -58.2991   YZ=             -8.8223
 Traceless Quadrupole moment (field-independent basis, Debye-Ang):
   XX=             -8.7765   YY=             -2.9275   ZZ=             11.7040
   XY=             -9.4542   XZ=            -58.2991   YZ=             -8.8223
 Octapole moment (field-independent basis, Debye-Ang**2):
  XXX=            872.2139  YYY=          -2587.8753  ZZZ=          -9717.5164  XYY=            302.8517
  XXY=           -876.7778  XXZ=          -3339.6109  XZZ=           -354.7114  YZZ=           -934.6149
  YYZ=          -3260.7227  XYZ=           -140.2666
 Hexadecapole moment (field-independent basis, Debye-Ang**3):
 XXXX=         -21085.3971 YYYY=         -18101.7547 ZZZZ=        -199518.9564 XXXY=           4148.1448
 XXXZ=           6395.1524 YYYX=           4379.2321 YYYZ=         -24426.0039 ZZZX=            -53.2983
 ZZZY=         -25369.5413 XXYY=          -6582.1605 XXZZ=         -37625.8352 YYZZ=         -36091.9333
 XXYZ=          -8267.6692 YYXZ=           2195.9933 ZZXY=           -326.9933
 N-N= 5.773759868676D+03 E-N=-2.452105145056D+04  KE= 5.238549342751D+03
   1 Symmetry operations used in ECPInt.
 ECPInt:  NShTT=    8778 NPrTT=   69960 LenC2=    7531 LenP2D=   36177.
 LDataN:  DoStor=T MaxTD1= 6 Len=  172
 Calling FoFJK, ICntrl=      2127 FMM=F ISym2X=0 I1Cent= 0 IOpClX= 0 NMat=1 NMatS=1 NMatT=0.
 Defaulting to unpruned grid for atomic number  42.
 Defaulting to unpruned grid for atomic number  42.
 Defaulting to unpruned grid for atomic number  42.
 Defaulting to unpruned grid for atomic number  42.
 Defaulting to unpruned grid for atomic number  42.
 Defaulting to unpruned grid for atomic number  42.
 Defaulting to unpruned grid for atomic number  42.
 Defaulting to unpruned grid for atomic number  42.
 Defaulting to unpruned grid for atomic number  42.
 Defaulting to unpruned grid for atomic number  42.
 Defaulting to unpruned grid for atomic number  42.
 Defaulting to unpruned grid for atomic number  42.
 Defaulting to unpruned grid for atomic number  42.
 Defaulting to unpruned grid for atomic number  42.
 Defaulting to unpruned grid for atomic number  42.
 Defaulting to unpruned grid for atomic number  42.
 Defaulting to unpruned grid for atomic number  42.
 Defaulting to unpruned grid for atomic number  42.
 Defaulting to unpruned grid for atomic number  42.
 Defaulting to unpruned grid for atomic number  42.
 Defaulting to unpruned grid for atomic number  42.
 Defaulting to unpruned grid for atomic number  42.
 Defaulting to unpruned grid for atomic number  42.
 Defaulting to unpruned grid for atomic number  42.
 Defaulting to unpruned grid for atomic number  42.
 Defaulting to unpruned grid for atomic number  42.
 Defaulting to unpruned grid for atomic number  42.
 Defaulting to unpruned grid for atomic number  42.
 Defaulting to unpruned grid for atomic number  42.
 Defaulting to unpruned grid for atomic number  42.
 Defaulting to unpruned grid for atomic number  42.
 Defaulting to unpruned grid for atomic number  42.
 Defaulting to unpruned grid for atomic number  42.
 Defaulting to unpruned grid for atomic number  42.
 Defaulting to unpruned grid for atomic number  42.
 Defaulting to unpruned grid for atomic number  42.
 Defaulting to unpruned grid for atomic number  42.
 Defaulting to unpruned grid for atomic number  42.
 Defaulting to unpruned grid for atomic number  42.
 Defaulting to unpruned grid for atomic number  42.
 Defaulting to unpruned grid for atomic number  42.
 Defaulting to unpruned grid for atomic number  42.
 Defaulting to unpruned grid for atomic number  42.
 Defaulting to unpruned grid for atomic number  42.
 Defaulting to unpruned grid for atomic number  42.
 Defaulting to unpruned grid for atomic number  42.
 -------------------------------------------------------------------
 Center     Atomic                   Forces (Hartrees/Bohr)
 Number     Number              X              Y              Z
 -------------------------------------------------------------------
      1       42          -0.016285478    0.043250481    0.034524453
      2       16           0.027973454   -0.045134377   -0.036578992
      3       16           0.008097128   -0.007875715   -0.009823219
      4       16           0.003192083    0.002988645   -0.001105734
      5       16          -0.017071829   -0.008012244    0.009991501
      6       42          -0.019565376   -0.002484466    0.004495115
      7       16          -0.000472359   -0.001911793    0.011215609
      8       16          -0.007027274   -0.007660588    0.009135897
      9       42           0.008804264    0.003527421    0.011074635
     10       16           0.004450496    0.001915798    0.006918239
     11       16          -0.002314100   -0.005234715    0.010565557
     12       42           0.082161403    0.015987640    0.013969666
     13       42          -0.046845847    0.040360735   -0.091720630
     14       16          -0.029944228   -0.043003438   -0.046875455
     15       16          -0.041873726    0.046639276    0.016491208
     16       16           0.020786630   -0.035469120    0.013114732
     17       16           0.025483654   -0.006229603    0.049229113
     18       42           0.007086689    0.006481386   -0.011010066
     19        6          -0.003371236    0.007491718    0.005111055
     20        6          -0.007152834   -0.000142800   -0.000394885
     21        6          -0.003720262   -0.001852863    0.003996856
     22        8           0.002343398   -0.003664289   -0.003612169
     23        8           0.004168379    0.000621413    0.002068266
     24        8           0.001096972   -0.000588504   -0.000780754
 -------------------------------------------------------------------
 Cartesian Forces:  Max     0.091720630 RMS     0.024536541

 GradGradGradGradGradGradGradGradGradGradGradGradGradGradGradGradGradGrad
 Berny optimization.
 FormGI is forming the generalized inverse of G from B-inverse, IUseBI=4.
 Internal  Forces:  Max     0.070113529 RMS     0.008635083
 Search for a local minimum.
 Step number   1 out of a maximum of  144
 All quantities printed in internal units (Hartrees-Bohrs-Radians)
 Mixed Optimization -- RFO/linear search
 Second derivative matrix not updated -- first step.
 ITU=  0
     Eigenvalues ---    0.01371   0.01522   0.01689   0.02256   0.02814
     Eigenvalues ---    0.02940   0.03235   0.03378   0.04112   0.04341
     Eigenvalues ---    0.04509   0.04940   0.04957   0.04957   0.04972
     Eigenvalues ---    0.04972   0.04997   0.04997   0.05064   0.05130
     Eigenvalues ---    0.06261   0.06379   0.06594   0.07026   0.07440
     Eigenvalues ---    0.07764   0.07907   0.08242   0.08502   0.08645
     Eigenvalues ---    0.08809   0.09144   0.09342   0.09577   0.09721
     Eigenvalues ---    0.10396   0.10615   0.10980   0.11175   0.11524
     Eigenvalues ---    0.11882   0.12422   0.12563   0.12643   0.12733
     Eigenvalues ---    0.12981   0.13432   0.13535   0.13704   0.13909
     Eigenvalues ---    0.14525   0.14575   0.14818   0.15395   0.16021
     Eigenvalues ---    0.16099   0.16337   0.16584   0.16724   0.17865
     Eigenvalues ---    0.18103   0.18183   0.19305   1.32380   1.33137
     Eigenvalues ---    1.34493
 RFO step:  Lambda=-9.28706922D-02 EMin= 1.37054711D-02
 Linear search not attempted -- first point.
 Maximum step size (   0.300) exceeded in Quadratic search.
    -- Step size scaled by   0.482
 Iteration  1 RMS(Cart)=  0.02079323 RMS(Int)=  0.00029083
 Iteration  2 RMS(Cart)=  0.00035968 RMS(Int)=  0.00009653
 Iteration  3 RMS(Cart)=  0.00000019 RMS(Int)=  0.00009653
 Variable       Old X    -DE/DX   Delta X   Delta X   Delta X     New X
                                 (Linear)    (Quad)   (Total)
    R1        4.85478  -0.03835   0.00000  -0.10360  -0.10339   4.75140
    R2        4.50979  -0.00638   0.00000  -0.01354  -0.01345   4.49634
    R3        4.47085   0.00388   0.00000   0.01050   0.01051   4.48136
    R4        4.31111  -0.00718   0.00000  -0.01253  -0.01251   4.29860
    R5        5.21771   0.00269   0.00000   0.00724   0.00717   5.22488
    R6        5.15369  -0.00340   0.00000  -0.00314  -0.00341   5.15029
    R7        5.83989   0.00452   0.00000   0.01013   0.01012   5.85001
    R8        4.77057  -0.01620   0.00000  -0.04781  -0.04755   4.72302
    R9        4.39072   0.00007   0.00000  -0.00363  -0.00362   4.38711
   R10        4.53911   0.00350   0.00000   0.00905   0.00909   4.54820
   R11        4.46932  -0.00320   0.00000  -0.00859  -0.00859   4.46073
   R12        4.49882   0.01511   0.00000   0.03578   0.03570   4.53452
[...]
 00119187,-0.00056439,-0.00076535,0.00001960,0.00001933,-0.05120372,0.0
 5341674,0.02495150,0.00003284,0.00005355,0.00007399,0.00005214,-0.0000
 8422,-0.00014070,0.06798671,-0.00027159,-0.00041597,0.00052487,-0.0001
 2429,0.00019043,0.00029987,-0.00012675,0.00020795,-0.00013044,-0.00029
 949,0.00097522,0.00031222,-0.00016122,-0.00003563,-0.00009685,0.001697
 36,-0.00181975,0.00068668,0.00238846,-0.00306785,0.00061476,0.00096073
 ,-0.00129313,0.00250488,0.00038025,0.00017735,-0.00292950,0.00979337,0
 .00464246,0.00468872,0.00046653,0.00007314,0.00015091,-0.00051641,0.00
 038548,-0.00042281,0.04966052,-0.10245431,-0.03701572,0.00024194,0.000
 12127,0.00026283,0.00007395,-0.00008336,-0.00013589,-0.04373260,0.1589
 0053,-0.00104522,-0.00022189,0.00142259,0.00040479,-0.00021642,0.00016
 611,0.00056378,-0.00023241,-0.00019002,-0.00035747,-0.00016682,0.00027
 886,0.00011722,0.00029434,-0.00019785,0.00095243,-0.00289338,-0.004542
 86,0.00002206,-0.00276135,0.00110327,-0.00533912,0.00489217,-0.0046094
 4,-0.00097444,0.00248272,-0.00164441,0.00675866,0.00248997,0.00345019,
 -0.00057982,-0.00148529,-0.00018701,0.00094275,0.00013714,-0.00017522,
 0.02203581,-0.03337384,-0.03717333,-0.00007820,-0.00002288,-0.00008431
 ,-0.00000276,0.00015919,0.00019849,-0.03549985,0.00991930,0.06015227,0
 .00002397,0.00016003,-0.00030165,-0.00008182,0.00004006,-0.00021297,-0
 .00003747,0.00003783,-0.00003147,0.00004204,-0.00020965,0.00004832,-0.
 00011120,-0.00001470,0.00004600,0.00045635,0.00025293,0.00055064,0.000
 18009,-0.00019107,0.00151381,0.00033899,-0.00029284,0.00031465,0.00034
 555,-0.00054699,0.00044151,-0.00017253,0.00120101,-0.00901713,-0.00002
 204,-0.00017248,0.00026003,0.00015673,-0.00002082,-0.00004624,-0.02612
 725,0.00293919,-0.02879343,-0.00004651,-0.00002076,-0.00002986,-0.0000
 6057,0.00007972,0.00008915,0.00148002,-0.00084824,0.00684687,0.0197428
 7,0.00019139,-0.00003608,0.00008814,0.00001703,0.00009587,-0.00016606,
 -0.00016219,0.00000064,-0.00014249,0.00008652,-0.00019821,-0.00020631,
 -0.00001578,0.00001148,-0.00000463,-0.00030900,0.00047252,0.00014488,0
 .00204311,0.00139252,0.00406422,-0.00000722,0.00022346,0.00004077,0.00
 020301,0.00051272,0.00031595,0.00102368,-0.00011371,-0.00229238,-0.000
 06850,-0.00008457,0.00025152,-0.00003791,-0.00002114,-0.00005226,0.003
 35262,-0.02054681,0.01310613,0.00002210,-0.00000587,0.00002445,-0.0000
 0263,0.00003022,0.00000905,-0.00322090,0.00298765,-0.00743872,-0.00318
 672,0.01460999,0.00031872,-0.00060390,-0.00030159,-0.00003425,0.000187
 68,-0.00043991,0.00008856,0.00008473,-0.00018579,-0.00003275,-0.000300
 64,0.00018101,-0.00049061,0.00022941,0.00012407,0.00058137,0.00048957,
 -0.00093147,0.00034445,0.00315578,-0.00175820,-0.00022135,0.00042438,0
 .00078105,0.00148651,0.00001055,0.00158811,-0.01346183,-0.00231924,-0.
 00046860,-0.00066157,0.00010678,-0.00000424,0.00098399,-0.00047000,-0.
 00022160,-0.02923282,0.01342346,-0.26748070,-0.00032113,-0.00011645,-0
 .00029502,-0.00033867,0.00033261,0.00060825,0.00665946,-0.00885159,-0.
 00567416,0.03134515,-0.00640007,0.27704698,-0.00129413,-0.00310312,-0.
 00153955,0.00081374,-0.00152270,-0.00050044,0.00020558,0.00047570,-0.0
 0161808,-0.00105917,0.00133341,0.00078138,-0.00066956,0.00036153,-0.00
 024953,-0.02981281,0.01990570,0.00039132,-0.00648004,0.01567700,0.0058
 4597,-0.00090703,-0.01553630,-0.01649816,-0.00673342,0.00749215,0.0016
 0297,0.00311523,0.00049536,0.00137707,-0.00263701,-0.00071695,0.000612
 18,0.00265518,-0.00181391,0.00066776,-0.03328474,0.00256664,0.01827750
 ,-0.00094201,-0.00016056,-0.00084748,-0.00066539,0.00046433,0.00092869
 ,-0.00831997,-0.01059824,-0.00367674,0.00457587,-0.00004816,0.00454718
 ,0.30592769,-0.00005592,-0.00102808,0.00212431,0.00059817,-0.00039670,
 -0.00004404,0.00257467,-0.00016800,0.00055283,0.00158885,-0.00168265,-
 0.00107075,0.00087628,0.00047800,-0.00006591,0.01251039,-0.02878070,-0
 .00692529,0.01339856,-0.04171874,-0.02450351,-0.00903227,0.00184501,-0
 .00123933,-0.01192926,0.00531472,0.00032128,0.00009110,0.00000215,-0.0
 0222676,-0.00121729,-0.00329563,-0.00020529,0.00202213,-0.00084699,0.0
 0086133,-0.00272108,0.00848197,-0.00012502,-0.00033999,-0.00022861,-0.
 00040963,-0.00004703,0.00031147,0.00032622,-0.00075068,-0.05289875,0.0
 1691088,0.00071690,0.00001694,-0.00008675,0.00790113,0.29825142,0.0014
 6543,0.00001888,-0.00198517,-0.00124475,0.00078925,0.00048530,-0.00217
 312,-0.00155285,0.00253815,-0.00310654,0.00068053,0.00253540,-0.000735
 24,0.00003339,0.00010334,-0.00289477,0.00852741,-0.01451260,0.00989125
 ,-0.02419721,-0.01642403,0.00278981,-0.00792247,-0.02570250,0.00445372
 ,-0.00252421,0.00101219,0.00154020,0.00035727,0.00666066,0.00127837,0.
 00144537,0.00155052,-0.00150553,0.00045408,-0.00018882,0.02111507,-0.0
 0717184,-0.02962134,0.00042117,0.00014942,0.00036960,-0.00002953,-0.00
 024607,-0.00025233,-0.00499083,0.02113787,-0.00158022,-0.00349101,-0.0
 0171775,-0.00313323,-0.03028295,0.02683331,0.27616951,0.00117732,0.000
 00584,0.00100479,0.00034055,-0.00014686,0.00019051,-0.00006031,-0.0001
 5840,0.00043434,-0.00005009,-0.00018751,0.00021894,0.00043700,-0.00000
 303,-0.00014316,0.00001943,0.00049847,-0.00458723,-0.00130019,0.006113
 62,0.00732235,-0.00532567,0.00542177,0.00236221,-0.00174779,0.00022544
 ,0.00012853,0.00094491,-0.00011622,0.00065525,0.00037410,-0.00027055,-
 0.00011046,-0.00069778,0.00001542,0.00032383,0.00070941,-0.00043165,0.
 00340741,0.00034571,0.00014926,0.00030832,0.00017763,-0.00019823,-0.00
 038446,-0.00250273,0.00092537,0.00669763,-0.00081396,-0.00018142,-0.00
 179983,-0.06664939,0.00526892,0.00146052,0.32732225,-0.00038472,-0.000
 33517,-0.00090254,-0.00043481,-0.00003696,-0.00022497,-0.00053814,0.00
 033045,-0.00068072,0.00021322,0.00034126,0.00007298,-0.00056235,0.0001
 4146,0.00009871,0.00651578,-0.00065078,0.00885583,0.00706352,0.0019554
 9,-0.00744006,0.00257233,-0.00339383,-0.00495602,0.00168185,-0.0004488
 3,0.00064210,-0.00054757,0.00001088,-0.00026523,-0.00099526,0.00049142
 ,0.00008212,0.00098896,-0.00035131,-0.00013906,0.00424546,0.00162990,-
 0.00560825,-0.00051303,-0.00013447,-0.00042091,-0.00028283,0.00023658,
 0.00044474,-0.00329037,-0.00294505,0.00072078,0.00047954,0.00027376,0.
 00159428,-0.00374471,-0.05402284,0.00130232,-0.33323929,0.56470872,-0.
 00022724,-0.00036110,-0.00040776,-0.00022682,-0.00004487,-0.00041223,0
 .00006348,0.00066765,-0.00052920,-0.00005724,0.00032920,0.00050074,-0.
 00028750,0.00010060,0.00003456,0.00618979,-0.00225329,0.00414528,0.003
 94980,-0.00587118,0.00205561,-0.00245277,-0.00165392,-0.00135420,0.000
 76948,0.00012146,0.00141366,-0.00184503,-0.00009123,-0.00185253,-0.000
 91038,0.00027306,0.00016213,0.00103698,-0.00041632,0.00010227,0.002212
 99,0.00411334,-0.00113950,-0.00049138,-0.00016831,-0.00046467,-0.00022
 318,0.00020868,0.00037790,0.00664210,-0.00106242,-0.00898496,0.0008690
 7,-0.00007589,0.00169534,-0.00129529,-0.00841788,-0.06041559,-0.311345
 03,0.43787411,0.49027286,-0.00078184,0.00137622,-0.00080431,-0.0005704
 2,0.00109756,0.00026195,0.00009629,-0.00035817,0.00099180,0.00067009,-
 0.00108788,-0.00074322,0.00060833,-0.00040591,0.00009324,-0.00517319,0
 .00419954,0.00126517,-0.00849073,0.00224100,-0.00350659,-0.01021756,0.
 00057641,-0.00431724,0.00243133,-0.00322167,-0.00018299,-0.00185117,0.
 00013482,-0.00035613,0.00230080,0.00047910,-0.00000827,-0.00200620,0.0
 0119235,-0.00058843,0.00047034,-0.00160534,0.00342623,0.00079002,0.000
 19721,0.00068146,0.00054281,-0.00048198,-0.00075090,-0.00494244,-0.004
 27229,-0.00078234,-0.00065152,-0.00039052,-0.00321626,-0.07290223,-0.0
 0504015,-0.00899335,0.01559462,-0.01042372,-0.00268540,0.77877197,0.00
 139509,0.00028239,-0.00004405,-0.00006988,0.00012858,-0.00039953,-0.00
 060383,0.00047825,-0.00059091,0.00030125,-0.00041663,0.00056650,0.0000
 8137,-0.00004008,0.00003581,-0.00364656,0.00773911,-0.00006877,0.00508
 325,0.00038697,0.00083432,0.00361160,0.00282889,0.00253501,0.00164931,
 -0.00184276,0.00148556,-0.00104374,0.00007214,-0.00041060,0.00038218,0
 .00090777,-0.00047815,-0.00069035,-0.00016003,0.00024283,0.00110460,0.
 00043032,-0.00024575,0.00009692,0.00008841,0.00016082,0.00004032,-0.00
 011884,-0.00023829,-0.00405712,-0.00446401,-0.00062502,0.00003935,0.00
 022767,-0.00017467,-0.01581897,-0.05909657,-0.01352377,-0.00689762,0.0
 0037628,-0.00498282,0.10095749,0.10201176,-0.00003664,0.00099903,-0.00
 016880,0.00031878,-0.00003080,0.00023376,0.00001788,0.00002620,-0.0001
 4791,0.00081990,-0.00033515,-0.00107204,0.00059767,-0.00030992,0.00011
 931,-0.00663900,0.00493057,0.00010157,-0.00292164,-0.00295121,-0.00040
 561,-0.01013897,0.00384395,0.00502871,-0.00046457,-0.00057632,0.000550
 83,-0.00170441,-0.00036124,-0.00096492,0.00054582,0.00005493,-0.000670
 16,-0.00113011,0.00028825,0.00004850,0.00460191,-0.00035653,0.00580841
 ,0.00030501,0.00015016,0.00030860,0.00026717,-0.00027487,-0.00047447,-
 0.00105677,0.00184997,0.00074372,-0.00144296,-0.00022484,-0.00376993,0
 .01355096,-0.01175207,-0.05094216,-0.00359925,-0.01030928,-0.00968527,
 0.52889134,0.07614383,0.50098022,0.00239727,0.00189561,-0.00032307,-0.
 00027797,-0.00001560,0.00090114,-0.00241539,-0.00106497,-0.00009286,0.
 00017909,0.00085115,-0.00028694,0.00012462,-0.00025735,0.00023954,0.00
 045508,0.00011091,-0.00077546,-0.00262844,-0.00057791,0.00785483,-0.00
 461141,-0.00277762,-0.00146079,0.00242944,-0.00291385,-0.00006306,0.00
 067151,-0.00057371,0.00063338,0.00097850,0.00068457,-0.00024572,-0.001
 92638,0.00070525,-0.00045673,0.00350823,-0.00038568,-0.00100017,0.0005
 0413,0.00019895,0.00048626,0.00028609,-0.00032726,-0.00060422,0.000264
 78,-0.00706406,0.00685606,-0.00093653,0.00026771,-0.00057413,-0.069185
 25,-0.01341282,0.00873125,0.01002624,-0.00205104,-0.00458525,0.0137827
 8,0.01009139,-0.00680820,0.34062755,0.00079567,0.00152924,-0.00088675,
 -0.00015140,0.00012644,0.00060623,-0.00208965,-0.00156221,0.00161669,0
 .00060559,0.00065035,-0.00030890,0.00020076,-0.00033324,0.00014209,0.0
 0341252,0.00429592,0.00016134,-0.00115665,-0.00254811,0.00042748,-0.00
 292078,-0.00147007,0.00081402,0.00384304,-0.00213902,-0.00176721,0.000
 77435,0.00015599,0.00099408,0.00123895,0.00094215,0.00075806,-0.001876
 10,0.00058915,-0.00070647,-0.00738904,-0.00523639,0.00816442,0.0005654
 4,0.00019856,0.00047056,0.00030815,-0.00033161,-0.00050262,-0.00776766
 ,0.00116361,0.01114223,-0.00039505,0.00018704,-0.00113436,-0.00043809,
 -0.05941833,-0.00370511,0.00204797,-0.01996882,-0.00017821,0.00662469,
 0.00173570,0.00925285,0.34886975,0.57003780,-0.00139102,-0.00114074,0.
 00043285,0.00013495,0.00003134,-0.00070779,0.00202277,0.00153675,-0.00
 165654,0.00002117,0.00006083,0.00018854,-0.00013763,0.00000423,-0.0000
 2330,-0.00499225,-0.00583428,0.00388886,0.00547802,0.00400673,-0.00520
 457,-0.00115110,-0.00057345,0.00138085,-0.00217936,0.00204049,-0.00012
 214,-0.00046915,-0.00008456,-0.00090477,-0.00052802,-0.00055076,0.0001
 0674,0.00116979,-0.00013142,0.00025420,0.00012503,0.00019228,-0.000736
 77,-0.00036658,-0.00016375,-0.00037311,-0.00015035,0.00015231,0.000336
 85,0.00327264,0.00876139,-0.00539811,0.00107231,0.00084229,0.00273857,
 0.00979717,0.00986947,-0.06151445,-0.00368894,-0.00376369,0.01082057,-
 0.00703944,0.01133176,-0.01886385,-0.28332206,-0.40103749,0.42627082,-
 0.00046280,-0.00023761,-0.00043622,-0.00008773,-0.00003496,-0.00020234
 ,-0.00005204,0.00021107,-0.00029404,0.00006058,-0.00003881,-0.00008136
 ,-0.00027353,0.00006817,0.00005167,0.00134864,0.00013942,0.00308208,-0
 .00112428,-0.00117868,-0.00149117,0.00191137,-0.00195441,-0.00100494,0
 .00035583,0.00028305,0.00018464,-0.00041573,0.00001691,-0.00036652,-0.
 00037961,0.00008889,0.00007906,0.00056611,-0.00012878,-0.00008784,-0.0
 0032203,0.00176941,-0.00147482,-0.00025264,-0.00008839,-0.00022078,-0.
 00012997,0.00013219,0.00025002,0.00148191,-0.00039546,-0.00274995,0.00
 043947,0.00004611,0.00088499,0.00534926,0.02181166,0.02154422,-0.26861
 614,0.32338453,0.29926674,-0.00532499,0.00156618,-0.00106627,-0.003764
 34,-0.00308298,0.00227339,0.26467979,0.00036362,0.00036333,0.00041433,
 0.00015398,0.00008237,0.00029896,0.00015961,-0.00035771,0.00040429,-0.
 00011125,-0.00002520,-0.00005988,0.00036680,-0.00011170,-0.00005482,-0
 .00326099,0.00036490,-0.00432507,-0.00061522,-0.00204309,0.00120240,-0
 .00133345,0.00174275,0.00172595,-0.00046664,-0.00031096,-0.00030992,0.
 00044367,0.00000978,0.00037233,0.00061450,-0.00013820,-0.00009419,-0.0
 0077867,0.00021662,0.00004731,-0.00159060,-0.00197318,0.00253517,0.000
 35935,0.00011070,0.00030812,0.00018070,-0.00017210,-0.00031863,-0.0002
 7393,0.00106145,0.00175094,-0.00036724,-0.00010301,-0.00105980,0.02480
 750,-0.01416525,-0.03102491,0.32382732,-0.49722674,-0.42256214,0.00563
 617,0.00020729,0.00498436,0.00338278,0.00856587,-0.00205921,-0.3449394
 1,0.50897146,0.00016326,0.00032786,0.00029020,0.00014786,0.00005379,0.
 00035028,0.00004087,-0.00042623,0.00038632,-0.00001377,0.00000594,-0.0
 0018149,0.00028405,-0.00012015,-0.00003670,-0.00317223,0.00086815,-0.0
 0292268,0.00010968,0.00071792,-0.00153859,-0.00037510,0.00111246,0.001
 02030,-0.00027046,-0.00024899,-0.00065733,0.00073522,0.00001875,0.0007
 9295,0.00061777,-0.00011695,-0.00004626,-0.00073910,0.00026624,-0.0000
 5147,-0.00071575,-0.00301369,0.00110216,0.00034485,0.00011139,0.000303
 08,0.00016300,-0.00016112,-0.00028092,-0.00252568,0.00047405,0.0036757
 1,-0.00050319,-0.00000900,-0.00099467,0.02226432,-0.02828993,-0.007887
 80,0.29944133,-0.42092036,-0.42654739,0.00402087,0.00113455,0.00529486
 ,0.00301204,0.00328574,-0.00462491,-0.31774169,0.44852859,0.43281316,0
 .00018048,-0.00059716,0.00038677,0.00014601,-0.00031171,-0.00008453,-0
 .00009908,0.00018298,-0.00057264,-0.00042119,0.00056657,0.00037106,-0.
 00047685,0.00025236,-0.00001751,0.00254210,-0.00397695,-0.00151375,0.0
 0353828,-0.00063245,0.00125948,0.00056640,0.00028394,0.00046825,-0.000
 13341,0.00156510,-0.00099153,0.00128003,-0.00011466,0.00037749,-0.0013
 5351,-0.00029282,0.00010640,0.00121342,-0.00060289,0.00016510,-0.00204
 721,0.00119359,-0.00245486,-0.00046410,-0.00013435,-0.00040200,-0.0003
 2746,0.00031103,0.00050147,0.00313462,0.00089673,-0.00030574,0.0007992
 4,0.00032643,0.00228666,-0.02745655,-0.00398588,-0.03609085,-0.0055131
 3,0.00633680,0.00302424,-0.69706576,-0.09141186,-0.51185166,-0.0060404
 3,-0.00549667,0.00532503,0.00274148,-0.00375564,-0.00301899,0.72162843
 ,-0.00033032,-0.00009779,0.00004047,0.00000347,-0.00002084,0.00010267,
 0.00014941,-0.00008845,0.00008179,-0.00007187,0.00018313,-0.00016633,-
 0.00007739,0.00002537,0.00000105,0.00101878,-0.00260029,0.00009862,-0.
 00061127,0.00007207,-0.00011125,-0.00121374,-0.00092499,-0.00069678,-0
 .00040232,0.00052588,-0.00056493,0.00041159,-0.00000474,0.00014411,-0.
 00021068,-0.00024248,0.00012527,0.00025852,0.00000346,-0.00006332,-0.0
 0063117,0.00005203,-0.00015109,-0.00005803,-0.00003466,-0.00006682,-0.
 00003541,0.00005683,0.00010217,0.00103399,0.00079472,0.00002399,0.0001
 0521,0.00000676,0.00028095,-0.00294882,0.01924476,-0.00202294,0.000972
 61,0.00102259,0.00136956,-0.09094971,-0.05093603,-0.06984019,-0.002008
 39,-0.00031974,-0.00214195,-0.00001765,-0.00060128,-0.00062101,0.09503
 709,0.03352288,0.00006800,-0.00038894,0.00013181,-0.00014982,0.0000291
 5,-0.00006920,-0.00010416,0.00005477,-0.00016412,-0.00042226,0.0003147
 4,0.00040807,-0.00042184,0.00018848,-0.00001149,0.00255913,-0.00320213
 ,-0.00098569,0.00210192,0.00052879,0.00048913,0.00130510,-0.00066275,-
 0.00241112,0.00073363,0.00042988,-0.00069476,0.00093163,0.00008226,0.0
 0031188,-0.00069827,-0.00006098,0.00022337,0.00078685,-0.00028043,-0.0
 0001505,-0.00186028,0.00047141,-0.00281271,-0.00027812,-0.00010438,-0.
 00024912,-0.00021486,0.00021104,0.00035420,0.00167551,-0.00024088,-0.0
 0040618,0.00089388,0.00024941,0.00236621,-0.04277073,-0.00068431,-0.01
 137444,-0.00098221,0.00565591,0.00462382,-0.51207634,-0.07074777,-0.43
 928123,-0.00188751,-0.00642783,0.00780032,0.00152065,-0.00316856,-0.00
 305048,0.54693085,0.07387490,0.44862481,-0.00109844,-0.00071641,-0.000
 17432,0.00002894,0.00011846,-0.00047343,0.00066576,0.00077886,-0.00044
 038,-0.00020384,-0.00028884,0.00012957,-0.00011851,0.00007631,-0.00006
 574,-0.00252314,-0.00249406,0.00214484,0.00146010,0.00066390,-0.002795
 49,0.00144869,0.00076738,0.00056107,-0.00081487,0.00145116,0.00022316,
 -0.00079184,0.00023641,-0.00056974,-0.00055688,-0.00033057,0.00009950,
 0.00096724,-0.00036654,0.00025419,0.00017833,-0.00139580,-0.00098573,-
 0.00030330,-0.00012038,-0.00031105,-0.00015689,0.00017351,0.00034806,-
 0.00126158,0.00092544,-0.00080643,0.00048020,0.00005125,0.00085815,0.0
 0635612,-0.02082638,0.02084748,-0.00419197,0.00352584,0.00260782,-0.00
 608132,-0.00216036,-0.00105599,-0.28444916,-0.33652281,0.27472366,0.00
 227139,-0.00280295,-0.00226913,0.00362820,0.00057611,0.00235926,0.2850
 6677,-0.00117394,-0.00091453,0.00021334,0.00006997,0.00005470,-0.00047
 698,0.00189911,0.00124331,-0.00108864,-0.00026175,-0.00030699,0.000198
 24,-0.00013186,0.00010381,-0.00007142,-0.00261225,-0.00340569,0.001887
 08,0.00125586,0.00158584,-0.00156027,0.00125025,0.00065518,-0.00003869
 ,-0.00158907,0.00138632,0.00068697,-0.00103465,0.00002108,-0.00078952,
 -0.00071249,-0.00045812,-0.00019938,0.00119973,-0.00033785,0.00038170,
 0.00422518,-0.00020683,-0.00367131,-0.00036846,-0.00014944,-0.00033985
 ,-0.00019477,0.00020670,0.00035868,0.00111807,-0.00220344,-0.00148564,
 0.00021481,0.00006016,0.00119731,-0.02502991,-0.01619863,0.03388003,-0
 .00364122,0.00799602,0.00308191,-0.00647524,-0.00082657,-0.00520169,-0
 .33362783,-0.49685026,0.37865145,0.00257957,-0.00446809,-0.00297798,0.
 00436041,0.00036083,0.00387823,0.35868047,0.51265250,0.00113425,0.0007
 6610,-0.00004719,-0.00000747,-0.00010383,0.00047251,-0.00157029,-0.001
 00485,0.00105425,0.00013417,0.00010608,-0.00014855,0.00010909,-0.00002
 628,0.00001926,0.00270397,0.00316474,-0.00250110,-0.00212617,-0.001494
 22,0.00241723,-0.00025204,-0.00009105,-0.00022963,0.00081686,-0.001174
 61,-0.00048937,0.00082313,0.00001290,0.00077337,0.00051102,0.00027663,
 0.00005137,-0.00087851,0.00019776,-0.00021899,-0.00174447,0.00153479,0
 .00137629,0.00029153,0.00011390,0.00027694,0.00014032,-0.00013363,-0.0
 0027302,-0.00014632,-0.00130223,-0.00034314,-0.00042149,-0.00040641,-0
 .00147045,0.01863448,0.02824685,-0.00589001,0.00268463,-0.00171280,-0.
 00441144,0.00641915,-0.00194088,0.00722785,0.27377169,0.37881916,-0.35
 408888,-0.00191951,0.00246438,0.00279167,-0.00389872,0.00020106,-0.003
 80802,-0.29520933,-0.40651358,0.35745906\\0.00003554,0.00004683,-0.000
 06465,0.00000133,0.00001092,0.00000984,-0.00005421,-0.00003813,0.00009
 902,-0.00000186,-0.00000595,0.00000872,-0.00000234,0.00001220,-0.00001
 083,0.00000203,-0.00004234,-0.00006327,0.00000353,-0.00001009,0.000003
 47,0.00000998,0.00001475,0.00002440,0.00000558,-0.00003005,-0.00000905
 ,0.00002921,0.00001982,0.00001454,-0.00000156,0.00002262,-0.00001053,0
 .00000251,-0.00001805,0.00001387,-0.00002088,0.00001929,-0.00000439,-0
 .00000343,-0.00000091,0.00000063,-0.00000168,-0.00000500,0.00000229,0.
 00000337,-0.00001071,-0.00000354,-0.00000549,0.00001054,-0.00000403,0.
 00000074,0.00001137,0.00000433,-0.00000923,-0.00000481,-0.00000238,-0.
 00000274,0.00000455,0.00000040,0.00000432,-0.00000205,-0.00001078,0.00
 000675,-0.00000278,0.00000077,0.00000165,-0.00000155,-0.00000430,-0.00
 000313,-0.00000046,0.00000546\\\@
 The archive entry for this job was punched.


 CHARLIE BROWN -- WHICH DO YOU THINK LASTS LONGER IN LIFE, THE GOOD THINGS 
                  OR THE BAD THINGS?
 LINUS --         GOOD THINGS LAST EIGHT SECONDS ..
                  BAD THINGS LAST THREE WEEKS
 CHARLIE BROWN -- WHAT ABOUT IN BETWEEN?
 SNOOPY --        IN BETWEEN YOU SHOULD TAKE A NAP ...
 Job cpu time:       0 days  3 hours 33 minutes 10.1 seconds.
 Elapsed time:       0 days  0 hours  4 minutes 39.8 seconds.
 File lengths (MBytes):  RWF=    723 Int=      0 D2E=      0 Chk=     18 Scr=      2
 Normal termination of Gaussian 16 at Fri Dec  9 13:09:59 2022.
