 Entering Gaussian System, Link 0=g16
 Initial command:
 /home/chesagar/softwares/G16_AVX2//g16/l1.exe "/home/chesagar/scratch/Gau-151106.inp" -scrdir="/home/chesagar/scratch/"
 Entering Link 1 = /home/chesagar/softwares/G16_AVX2//g16/l1.exe PID=    151108.
  
 Copyright (c) 1988-2019, Gaussian, Inc.  All Rights Reserved.
  
 This is part of the Gaussian(R) 16 program.  It is based on
 the Gaussian(R) 09 system (copyright 2009, Gaussian, Inc.),
 the Gaussian(R) 03 system (copyright 2003, Gaussian, Inc.),
 the Gaussian(R) 98 system (copyright 1998, Gaussian, Inc.),
 the Gaussian(R) 94 system (copyright 1995, Gaussian, Inc.),
 the Gaussian 92(TM) system (copyright 1992, Gaussian, Inc.),
 the Gaussian 90(TM) system (copyright 1990, Gaussian, Inc.),
 the Gaussian 88(TM) system (copyright 1988, Gaussian, Inc.),
 the Gaussian 86(TM) system (copyright 1986, Carnegie Mellon
 University), and the Gaussian 82(TM) system (copyright 1983,
 Carnegie Mellon University). Gaussian is a federally registered
 trademark of Gaussian, Inc.
  
 This software contains proprietary and confidential information,
 including trade secrets, belonging to Gaussian, Inc.
  
 This software is provided under written license and may be
 used, copied, transmitted, or stored only in accord with that
 written license.
  
 The following legend is applicable only to US Government
 contracts under FAR:
  
                    RESTRICTED RIGHTS LEGEND
  
 Use, reproduction and disclosure by the US Government is
 subject to restrictions as set forth in subparagraphs (a)
 and (c) of the Commercial Computer Software - Restricted
 Rights clause in FAR 52.227-19.
  
 Gaussian, Inc.
 340 Quinnipiac St., Bldg. 40, Wallingford CT 06492
  
  
 ---------------------------------------------------------------
 Warning -- This program may not be used in any manner that
 competes with the business of Gaussian, Inc. or will provide
 assistance to any competitor of Gaussian, Inc.  The licensee
 of this program is prohibited from giving any competitor of
 Gaussian, Inc. access to this program.  By using this program,
 the user acknowledges that Gaussian, Inc. is engaged in the
 business of creating and licensing software in the field of
 computational chemistry and represents and warrants to the
 licensee that it is not a competitor of Gaussian, Inc. and that
 it will not use this program in any manner prohibited above.
 ---------------------------------------------------------------
  

 Cite this work as:
 Gaussian 16, Revision C.01,
 M. J. Frisch, G. W. Trucks, H. B. Schlegel, G. E. Scuseria, 
 M. A. Robb, J. R. Cheeseman, G. Scalmani, V. Barone, 
 G. A. Petersson, H. Nakatsuji, X. Li, M. Caricato, A. V. Marenich, 
 J. Bloino, B. G. Janesko, R. Gomperts, B. Mennucci, H. P. Hratchian, 
 J. V. Ortiz, A. F. Izmaylov, J. L. Sonnenberg, D. Williams-Young, 
 F. Ding, F. Lipparini, F. Egidi, J. Goings, B. Peng, A. Petrone, 
 T. Henderson, D. Ranasinghe, V. G. Zakrzewski, J. Gao, N. Rega, 
 G. Zheng, W. Liang, M. Hada, M. Ehara, K. Toyota, R. Fukuda, 
 J. Hasegawa, M. Ishida, T. Nakajima, Y. Honda, O. Kitao, H. Nakai, 
 T. Vreven, K. Throssell, J. A. Montgomery, Jr., J. E. Peralta, 
 F. Ogliaro, M. J. Bearpark, J. J. Heyd, E. N. Brothers, K. N. Kudin, 
 V. N. Staroverov, T. A. Keith, R. Kobayashi, J. Normand, 
 K. Raghavachari, A. P. Rendell, J. C. Burant, S. S. Iyengar, 
 J. Tomasi, M. Cossi, J. M. Millam, M. Klene, C. Adamo, R. Cammi, 
 J. W. Ochterski, R. L. Martin, K. Morokuma, O. Farkas, 
 J. B. Foresman, and D. J. Fox, Gaussian, Inc., Wallingford CT, 2019.
 
 ******************************************
 Gaussian 16:  ES64L-G16RevC.01  3-Jul-2019
                 9-Dec-2022 
 ******************************************
 %nprocshared=46
 Will use up to   46 processors via shared memory.
 %mem=100GB
 ---------------------------------------
 # opt freq b3lyp/gen nosymm pseudo=read
 ---------------------------------------
 1/18=20,19=15,26=3,38=1/1,3;
 2/9=110,12=2,15=1,17=6,18=5,40=1/2;
 3/5=7,11=2,16=1,17=8,25=1,30=1,71=1,74=-5/1,2,3;
 4//1;
 5/5=2,38=5/2;
 6/7=2,8=2,9=2,10=2,28=1/1;
 7/30=1/1,2,3,16;
 1/18=20,19=15,26=3/3(2);
 2/9=110,15=1/2;
 99//99;
 2/9=110,15=1/2;
 3/5=7,6=1,11=2,16=1,17=8,25=1,30=1,71=1,74=-5,82=7/1,2,3;
 4/5=5,16=3,69=1/1;
 5/5=2,38=5/2;
 7/30=1/1,2,3,16;
 1/18=20,19=15,26=3/3(-5);
 2/9=110,15=1/2;
 6/7=2,8=2,9=2,10=2,19=2,28=1/1;
 99/9=1/99;
 -------------------
 Title Card Required
 -------------------
 Symbolic Z-matrix:
 Charge =  0 Multiplicity = 1
 42                    0.22288   1.02643   11.75164 
 16                    0.53387   3.03508   12.7328 
 16                   -1.99951   0.40995   12.20762 
 16                   -0.06222   1.16084   9.36873 
 16                    2.26413   0.02505   11.76886 
 42                   -2.20664   1.7073    10.29862 
 16                   -3.29224   1.50607   8.17062 
 16                   -2.31255   3.81002   11.17486 
 42                    0.00348   3.28062   10.39383 
 16                   -0.40306   4.10201   7.91668 
 16                    2.19981   3.89091   9.73729 
 42                    3.1808    1.91908   10.56959 
 42                   -2.53374   3.65799   7.40373 
 16                    4.70823   2.5861    11.87343 
 16                    4.11566   1.05226   8.88091 
 16                   -3.75284   5.32841   8.26923 
 16                   -2.79008   3.70735   5.30328 
 42                   -4.40211   3.30077   9.58761 
 

 GradGradGradGradGradGradGradGradGradGradGradGradGradGradGradGradGradGrad
 Berny optimization.
 Initialization pass.
                           ----------------------------
                           !    Initial Parameters    !
                           ! (Angstroms and Degrees)  !
 --------------------------                            --------------------------
 ! Name  Definition              Value          Derivative Info.                !
 --------------------------------------------------------------------------------
 ! R1    R(1,2)                  2.257          estimate D2E/DX2                !
 ! R2    R(1,3)                  2.3509         estimate D2E/DX2                !
 ! R3    R(1,4)                  2.4037         estimate D2E/DX2                !
 ! R4    R(1,5)                  2.2737         estimate D2E/DX2                !
 ! R5    R(1,6)                  2.9116         estimate D2E/DX2                !
 ! R6    R(1,9)                  2.6407         estimate D2E/DX2                !
 ! R7    R(2,9)                  2.4109         estimate D2E/DX2                !
 ! R8    R(3,6)                  2.3174         estimate D2E/DX2                !
 ! R9    R(4,6)                  2.4004         estimate D2E/DX2                !
 ! R10   R(4,9)                  2.3555         estimate D2E/DX2                !
 ! R11   R(5,12)                 2.422          estimate D2E/DX2                !
 ! R12   R(6,7)                  2.3974         estimate D2E/DX2                !
 ! R13   R(6,8)                  2.2804         estimate D2E/DX2                !
 ! R14   R(6,9)                  2.7146         estimate D2E/DX2                !
 ! R15   R(6,18)                 2.8044         estimate D2E/DX2                !
 ! R16   R(7,13)                 2.4071         estimate D2E/DX2                !
 ! R17   R(7,18)                 2.5418         estimate D2E/DX2                !
 ! R18   R(8,9)                  2.5009         estimate D2E/DX2                !
 ! R19   R(8,18)                 2.673          estimate D2E/DX2                !
 ! R20   R(9,10)                 2.6413         estimate D2E/DX2                !
 ! R21   R(9,11)                 2.3722         estimate D2E/DX2                !
 ! R22   R(10,13)                2.2361         estimate D2E/DX2                !
 ! R23   R(11,12)                2.3544         estimate D2E/DX2                !
 ! R24   R(12,14)                2.1161         estimate D2E/DX2                !
 ! R25   R(12,15)                2.1159         estimate D2E/DX2                !
 ! R26   R(13,16)                2.2418         estimate D2E/DX2                !
 ! R27   R(13,17)                2.1166         estimate D2E/DX2                !
 ! R28   R(13,18)                2.8962         estimate D2E/DX2                !
 ! R29   R(16,18)                2.5042         estimate D2E/DX2                !
 ! A1    A(2,1,3)              106.2192         estimate D2E/DX2                !
 ! A2    A(2,1,4)              113.4243         estimate D2E/DX2                !
 ! A3    A(2,1,5)              105.3644         estimate D2E/DX2                !
 ! A4    A(2,1,6)               97.1117         estimate D2E/DX2                !
 ! A5    A(3,1,4)               95.4411         estimate D2E/DX2                !
 ! A6    A(3,1,5)              137.03           estimate D2E/DX2                !
 ! A7    A(3,1,9)              104.1841         estimate D2E/DX2                !
 ! A8    A(4,1,5)               97.9678         estimate D2E/DX2                !
 ! A9    A(5,1,6)              148.8578         estimate D2E/DX2                !
 ! A10   A(5,1,9)              117.0288         estimate D2E/DX2                !
 ! A11   A(1,5,12)              89.52           estimate D2E/DX2                !
 ! A12   A(1,6,7)              143.2445         estimate D2E/DX2                !
 ! A13   A(1,6,8)               93.5903         estimate D2E/DX2                !
 ! A14   A(1,6,18)             155.8724         estimate D2E/DX2                !
 ! A15   A(3,6,4)               96.4205         estimate D2E/DX2                !
 ! A16   A(3,6,7)              136.4432         estimate D2E/DX2                !
 ! A17   A(3,6,8)              101.7608         estimate D2E/DX2                !
 ! A18   A(3,6,9)              102.8738         estimate D2E/DX2                !
 ! A19   A(3,6,18)             126.6497         estimate D2E/DX2                !
 ! A20   A(4,6,7)               92.3825         estimate D2E/DX2                !
 ! A21   A(4,6,8)              113.5941         estimate D2E/DX2                !
 ! A22   A(4,6,18)             136.9298         estimate D2E/DX2                !
 ! A23   A(7,6,8)              113.4177         estimate D2E/DX2                !
 ! A24   A(7,6,9)              116.6447         estimate D2E/DX2                !
 ! A25   A(9,6,18)             108.4788         estimate D2E/DX2                !
 ! A26   A(6,7,13)              93.7305         estimate D2E/DX2                !
 ! A27   A(9,8,18)             119.8791         estimate D2E/DX2                !
 ! A28   A(1,9,8)               95.57           estimate D2E/DX2                !
 ! A29   A(1,9,10)             139.5086         estimate D2E/DX2                !
 ! A30   A(1,9,11)             106.5588         estimate D2E/DX2                !
 ! A31   A(2,9,4)              109.6754         estimate D2E/DX2                !
 ! A32   A(2,9,6)               98.8655         estimate D2E/DX2                !
 ! A33   A(2,9,8)               85.5441         estimate D2E/DX2                !
 ! A34   A(2,9,11)              95.2223         estimate D2E/DX2                !
 ! A35   A(4,9,8)              107.4926         estimate D2E/DX2                !
 ! A36   A(4,9,10)              82.3813         estimate D2E/DX2                !
 ! A37   A(4,9,11)              97.8682         estimate D2E/DX2                !
 ! A38   A(6,9,10)              91.2624         estimate D2E/DX2                !
 ! A39   A(6,9,11)             153.278          estimate D2E/DX2                !
 ! A40   A(8,9,10)              94.8488         estimate D2E/DX2                !
 ! A41   A(8,9,11)             152.7991         estimate D2E/DX2                !
 ! A42   A(10,9,11)             78.6346         estimate D2E/DX2                !
 ! A43   A(9,10,13)            107.4607         estimate D2E/DX2                !
 ! A44   A(9,11,12)             94.156          estimate D2E/DX2                !
 ! A45   A(5,12,11)            132.2446         estimate D2E/DX2                !
 ! A46   A(5,12,14)            102.3919         estimate D2E/DX2                !
 ! A47   A(5,12,15)            104.0068         estimate D2E/DX2                !
 ! A48   A(11,12,14)           104.7485         estimate D2E/DX2                !
 ! A49   A(11,12,15)           104.1858         estimate D2E/DX2                !
 ! A50   A(14,12,15)           107.5756         estimate D2E/DX2                !
 ! A51   A(7,13,10)            113.8719         estimate D2E/DX2                !
 ! A52   A(7,13,16)            111.8253         estimate D2E/DX2                !
 ! A53   A(7,13,17)            107.388          estimate D2E/DX2                !
 ! A54   A(10,13,16)           106.3586         estimate D2E/DX2                !
 ! A55   A(10,13,17)           109.78           estimate D2E/DX2                !
 ! A56   A(10,13,18)           117.7897         estimate D2E/DX2                !
 ! A57   A(16,13,17)           107.4513         estimate D2E/DX2                !
 ! A58   A(17,13,18)           132.303          estimate D2E/DX2                !
 ! A59   A(6,18,13)             75.8905         estimate D2E/DX2                !
 ! A60   A(6,18,16)            112.99           estimate D2E/DX2                !
 ! A61   A(7,18,8)              97.1356         estimate D2E/DX2                !
 ! A62   A(7,18,16)             99.4975         estimate D2E/DX2                !
 ! A63   A(8,18,13)             85.4093         estimate D2E/DX2                !
 ! A64   A(8,18,16)             87.4598         estimate D2E/DX2                !
 ! A65   L(2,9,10,4,-1)        192.0566         estimate D2E/DX2                !
 ! A66   L(2,9,10,4,-2)        184.2088         estimate D2E/DX2                !
 ! D1    D(2,1,5,12)           -56.6099         estimate D2E/DX2                !
 ! D2    D(3,1,5,12)           167.3404         estimate D2E/DX2                !
 ! D3    D(4,1,5,12)            60.439          estimate D2E/DX2                !
 ! D4    D(6,1,5,12)            78.0589         estimate D2E/DX2                !
 ! D5    D(9,1,5,12)             5.3086         estimate D2E/DX2                !
 ! D6    D(2,1,6,7)            135.5345         estimate D2E/DX2                !
 ! D7    D(2,1,6,8)             -3.0103         estimate D2E/DX2                !
 ! D8    D(2,1,6,18)            -9.0492         estimate D2E/DX2                !
 ! D9    D(5,1,6,7)             -0.7498         estimate D2E/DX2                !
 ! D10   D(5,1,6,8)           -139.2945         estimate D2E/DX2                !
 ! D11   D(5,1,6,18)          -145.3335         estimate D2E/DX2                !
 ! D12   D(3,1,9,8)             20.4202         estimate D2E/DX2                !
 ! D13   D(3,1,9,10)           -83.7622         estimate D2E/DX2                !
 ! D14   D(3,1,9,11)          -175.574          estimate D2E/DX2                !
 ! D15   D(5,1,9,8)           -172.1058         estimate D2E/DX2                !
 ! D16   D(5,1,9,10)            83.7118         estimate D2E/DX2                !
 ! D17   D(5,1,9,11)            -8.1            estimate D2E/DX2                !
 ! D18   D(1,4,6,9)             71.1534         estimate D2E/DX2                !
 ! D19   D(1,5,12,11)           -1.6106         estimate D2E/DX2                !
 ! D20   D(1,5,12,14)          121.8684         estimate D2E/DX2                !
 ! D21   D(1,5,12,15)         -126.2031         estimate D2E/DX2                !
 ! D22   D(1,6,7,13)           -95.0907         estimate D2E/DX2                !
 ! D23   D(3,6,7,13)           179.9147         estimate D2E/DX2                !
 ! D24   D(4,6,7,13)           -78.1867         estimate D2E/DX2                !
 ! D25   D(8,6,7,13)            38.8511         estimate D2E/DX2                !
 ! D26   D(9,6,7,13)           -27.2833         estimate D2E/DX2                !
 ! D27   D(3,6,9,2)            -19.0958         estimate D2E/DX2                !
 ! D28   D(3,6,9,10)           168.6414         estimate D2E/DX2                !
 ! D29   D(3,6,9,11)           101.8816         estimate D2E/DX2                !
 ! D30   D(7,6,9,2)            179.753          estimate D2E/DX2                !
 ! D31   D(7,6,9,10)             7.4903         estimate D2E/DX2                !
 ! D32   D(7,6,9,11)           -59.2696         estimate D2E/DX2                !
 ! D33   D(18,6,9,2)           117.1221         estimate D2E/DX2                !
 ! D34   D(18,6,9,10)          -55.1407         estimate D2E/DX2                !
 ! D35   D(18,6,9,11)         -121.9005         estimate D2E/DX2                !
 ! D36   D(1,6,18,13)          103.0223         estimate D2E/DX2                !
 ! D37   D(1,6,18,16)           71.2892         estimate D2E/DX2                !
 ! D38   D(3,6,18,13)         -179.6284         estimate D2E/DX2                !
 ! D39   D(3,6,18,16)          148.6385         estimate D2E/DX2                !
 ! D40   D(4,6,18,13)            0.3286         estimate D2E/DX2                !
 ! D41   D(4,6,18,16)          -31.4046         estimate D2E/DX2                !
 ! D42   D(9,6,18,13)           57.5898         estimate D2E/DX2                !
 ! D43   D(9,6,18,16)           25.8567         estimate D2E/DX2                !
 ! D44   D(6,7,13,10)           42.0028         estimate D2E/DX2                !
 ! D45   D(6,7,13,16)          -78.5953         estimate D2E/DX2                !
 ! D46   D(6,7,13,17)          163.7636         estimate D2E/DX2                !
 ! D47   D(18,8,9,1)          -100.6369         estimate D2E/DX2                !
 ! D48   D(18,8,9,2)          -152.585          estimate D2E/DX2                !
 ! D49   D(18,8,9,4)           -43.345          estimate D2E/DX2                !
 ! D50   D(18,8,9,10)           40.1798         estimate D2E/DX2                !
 ! D51   D(18,8,9,11)          114.6581         estimate D2E/DX2                !
 ! D52   D(9,8,18,7)            23.3608         estimate D2E/DX2                !
 ! D53   D(9,8,18,13)          -27.4545         estimate D2E/DX2                !
 ! D54   D(9,8,18,16)          -75.8985         estimate D2E/DX2                !
 ! D55   D(1,9,10,13)           71.1057         estimate D2E/DX2                !
 ! D56   D(4,9,10,13)           73.7032         estimate D2E/DX2                !
 ! D57   D(6,9,10,13)           18.2866         estimate D2E/DX2                !
 ! D58   D(8,9,10,13)          -33.3345         estimate D2E/DX2                !
 ! D59   D(11,9,10,13)         173.3611         estimate D2E/DX2                !
 ! D60   D(1,9,11,12)            5.2632         estimate D2E/DX2                !
 ! D61   D(2,9,11,12)           57.9871         estimate D2E/DX2                !
 ! D62   D(4,9,11,12)          -52.7412         estimate D2E/DX2                !
 ! D63   D(6,9,11,12)          -63.7295         estimate D2E/DX2                !
 ! D64   D(8,9,11,12)          148.3977         estimate D2E/DX2                !
 ! D65   D(10,9,11,12)        -133.2849         estimate D2E/DX2                !
 ! D66   D(9,10,13,7)          -41.8543         estimate D2E/DX2                !
 ! D67   D(9,10,13,16)          81.7609         estimate D2E/DX2                !
 ! D68   D(9,10,13,17)        -162.2815         estimate D2E/DX2                !
 ! D69   D(9,10,13,18)          21.3175         estimate D2E/DX2                !
 ! D70   D(9,11,12,5)           -2.9185         estimate D2E/DX2                !
 ! D71   D(9,11,12,14)        -125.5229         estimate D2E/DX2                !
 ! D72   D(9,11,12,15)         121.6088         estimate D2E/DX2                !
 ! D73   D(10,13,18,6)         -47.6814         estimate D2E/DX2                !
 ! D74   D(10,13,18,8)           1.2759         estimate D2E/DX2                !
 ! D75   D(17,13,18,6)         136.8995         estimate D2E/DX2                !
 ! D76   D(17,13,18,8)        -174.1433         estimate D2E/DX2                !
 --------------------------------------------------------------------------------
 Trust Radius=3.00D-01 FncErr=1.00D-07 GrdErr=1.00D-06 EigMax=2.50D+02 EigMin=1.00D-04
 Number of steps in this run=    108 maximum allowed number of steps=    108.
 GradGradGradGradGradGradGradGradGradGradGradGradGradGradGradGradGradGrad

                          Input orientation:                          
 ---------------------------------------------------------------------
 Center     Atomic      Atomic             Coordinates (Angstroms)
 Number     Number       Type             X           Y           Z
 ---------------------------------------------------------------------
      1         42           0        0.222876    1.026426   11.751640
      2         16           0        0.533873    3.035081   12.732799
      3         16           0       -1.999509    0.409945   12.207617
      4         16           0       -0.062216    1.160844    9.368727
      5         16           0        2.264130    0.025049   11.768857
      6         42           0       -2.206638    1.707301   10.298619
      7         16           0       -3.292244    1.506073    8.170616
      8         16           0       -2.312549    3.810017   11.174864
      9         42           0        0.003481    3.280616   10.393828
     10         16           0       -0.403063    4.102014    7.916675
     11         16           0        2.199808    3.890905    9.737289
     12         42           0        3.180801    1.919084   10.569585
     13         42           0       -2.533742    3.657992    7.403734
     14         16           0        4.708233    2.586103   11.873431
     15         16           0        4.115659    1.052258    8.880907
     16         16           0       -3.752836    5.328414    8.269230
     17         16           0       -2.790078    3.707346    5.303284
     18         42           0       -4.402107    3.300766    9.587610
 ---------------------------------------------------------------------
                    Distance matrix (angstroms):
                    1          2          3          4          5
     1  Mo   0.000000
     2  S    2.257008   0.000000
     3  S    2.350949   3.685808   0.000000
     4  S    2.403668   3.896802   3.517989   0.000000
     5  S    2.273713   3.603230   4.303402   3.530232   0.000000
     6  Mo   2.911597   3.898542   2.317393   2.400387   4.997933
     7  S    5.040820   6.147402   4.378360   3.462331   6.783367
     8  S    3.809124   3.336136   3.567221   3.917173   5.968652
     9  Mo   2.640674   2.410890   3.942404   2.355543   4.195230
    10  S    4.955603   5.021080   5.881513   3.297744   6.210867
    11  S    4.021332   3.532825   5.987810   3.564523   4.367636
    12  Mo   3.308083   3.595994   5.638817   3.540360   2.421964
    13  Mo   5.781727   6.180389   5.823445   4.025591   7.434524
    14  S    4.750353   4.285484   7.059826   5.573337   3.541691
    15  S    4.836893   5.621196   6.991055   4.207660   3.581002
    16  S    6.814732   6.599901   6.540366   5.674347   8.750826
    17  S    7.605690   8.166902   7.692052   5.518490   8.994885
    18  Mo   5.589823   5.858899   4.581895   4.843741   7.741245
                    6          7          8          9         10
     6  Mo   0.000000
     7  S    2.397380   0.000000
     8  S    2.280447   3.910686   0.000000
     9  Mo   2.714592   4.353559   2.500855   0.000000
    10  S    3.828993   3.892398   3.787769   2.641261   0.000000
    11  S    4.949746   6.189065   4.736510   2.372203   3.183416
    12  Mo   5.398405   6.915630   5.841137   3.461217   4.964594
    13  Mo   3.506074   2.407112   3.780669   3.939616   2.236081
    14  S    7.146171   8.881719   7.160820   4.980589   6.639221
    15  S    6.512329   7.455702   7.361340   4.915742   5.536208
    16  S    4.429628   3.851254   3.580875   4.776747   3.584596
    17  S    5.412389   3.649571   5.891861   5.822346   3.561378
    18  Mo   2.804416   2.541769   2.673007   4.478794   4.407536
                   11         12         13         14         15
    11  S    0.000000
    12  Mo   2.354388   0.000000
    13  Mo   5.282634   6.760356   0.000000
    14  S    3.543700   2.116123   8.577490   0.000000
    15  S    3.530126   2.115888   7.292902   3.414531   0.000000
    16  S    6.297269   8.061668   2.241781   9.596886   8.976239
    17  S    6.677803   8.159853   2.116609  10.032382   8.218156
    18  Mo   6.629928   7.770059   2.896155   9.419873   8.837848
                   16         17         18
    16  S    0.000000
    17  S    3.514484   0.000000
    18  Mo   2.504203   4.595584   0.000000
 Symmetry turned off by external request.
 Stoichiometry    Mo6S12
 Framework group  C1[X(Mo6S12)]
 Deg. of freedom    48
 Full point group                 C1      NOp   1
 Rotational constants (GHZ):           0.1580811           0.0586555           0.0504778
 General basis read from cards:  (5D, 7F)
 ======================================================================================================
                                       Pseudopotential Parameters
 ======================================================================================================
  Center     Atomic      Valence      Angular      Power
  Number     Number     Electrons     Momentum     of R      Exponent        Coefficient   SO-Coeffient
 ======================================================================================================
    1         42           14
                                      F and up 
                                                     0      537.9667807       -0.04694920    0.00000000
                                                     1      147.8982938      -20.20800840    0.00000000
                                                     2       45.7358898     -106.21163020    0.00000000
                                                     2       13.2911467      -41.81073680    0.00000000
                                                     2        4.7059961       -4.20541030    0.00000000
                                      S - F
                                                     0      110.2991760        2.80637170    0.00000000
                                                     1       23.2014645       44.51620120    0.00000000
                                                     2        5.3530131       82.77852270    0.00000000
                                      P - F
                                                     0       63.2901397        4.94208760    0.00000000
                                                     1       23.3315302       25.86049760    0.00000000
                                                     2       24.6759423      132.47087420    0.00000000
                                                     2        4.6493040       57.31497940    0.00000000
                                      D - F
                                                     0      104.4839977        3.00545910    0.00000000
                                                     1       66.2307245       26.36378510    0.00000000
                                                     2       39.1283176      183.38491990    0.00000000
                                                     2       13.1164437       98.44530680    0.00000000
                                                     2        3.6280263       22.49013770    0.00000000
    2         16
                                   No pseudopotential on this center.
    3         16
                                   No pseudopotential on this center.
    4         16
                                   No pseudopotential on this center.
    5         16
                                   No pseudopotential on this center.
    6         42           14
                                      F and up 
                                                     0      537.9667807       -0.04694920    0.00000000
                                                     1      147.8982938      -20.20800840    0.00000000
                                                     2       45.7358898     -106.21163020    0.00000000
                                                     2       13.2911467      -41.81073680    0.00000000
                                                     2        4.7059961       -4.20541030    0.00000000
                                      S - F
                                                     0      110.2991760        2.80637170    0.00000000
                                                     1       23.2014645       44.51620120    0.00000000
                                                     2        5.3530131       82.77852270    0.00000000
                                      P - F
                                                     0       63.2901397        4.94208760    0.00000000
                                                     1       23.3315302       25.86049760    0.00000000
                                                     2       24.6759423      132.47087420    0.00000000
                                                     2        4.6493040       57.31497940    0.00000000
                                      D - F
                                                     0      104.4839977        3.00545910    0.00000000
                                                     1       66.2307245       26.36378510    0.00000000
                                                     2       39.1283176      183.38491990    0.00000000
                                                     2       13.1164437       98.44530680    0.00000000
                                                     2        3.6280263       22.49013770    0.00000000
    7         16
                                   No pseudopotential on this center.
    8         16
                                   No pseudopotential on this center.
    9         42           14
                                      F and up 
                                                     0      537.9667807       -0.04694920    0.00000000
                                                     1      147.8982938      -20.20800840    0.00000000
                                                     2       45.7358898     -106.21163020    0.00000000
                                                     2       13.2911467      -41.81073680    0.00000000
                                                     2        4.7059961       -4.20541030    0.00000000
                                      S - F
                                                     0      110.2991760        2.80637170    0.00000000
                                                     1       23.2014645       44.51620120    0.00000000
                                                     2        5.3530131       82.77852270    0.00000000
                                      P - F
                                                     0       63.2901397        4.94208760    0.00000000
                                                     1       23.3315302       25.86049760    0.00000000
                                                     2       24.6759423      132.47087420    0.00000000
                                                     2        4.6493040       57.31497940    0.00000000
                                      D - F
                                                     0      104.4839977        3.00545910    0.00000000
                                                     1       66.2307245       26.36378510    0.00000000
                                                     2       39.1283176      183.38491990    0.00000000
                                                     2       13.1164437       98.44530680    0.00000000
                                                     2        3.6280263       22.49013770    0.00000000
   10         16
                                   No pseudopotential on this center.
   11         16
                                   No pseudopotential on this center.
   12         42           14
                                      F and up 
                                                     0      537.9667807       -0.04694920    0.00000000
                                                     1      147.8982938      -20.20800840    0.00000000
                                                     2       45.7358898     -106.21163020    0.00000000
                                                     2       13.2911467      -41.81073680    0.00000000
                                                     2        4.7059961       -4.20541030    0.00000000
                                      S - F
                                                     0      110.2991760        2.80637170    0.00000000
                                                     1       23.2014645       44.51620120    0.00000000
                                                     2        5.3530131       82.77852270    0.00000000
                                      P - F
                                                     0       63.2901397        4.94208760    0.00000000
                                                     1       23.3315302       25.86049760    0.00000000
                                                     2       24.6759423      132.47087420    0.00000000
                                                     2        4.6493040       57.31497940    0.00000000
                                      D - F
                                                     0      104.4839977        3.00545910    0.00000000
                                                     1       66.2307245       26.36378510    0.00000000
                                                     2       39.1283176      183.38491990    0.00000000
                                                     2       13.1164437       98.44530680    0.00000000
                                                     2        3.6280263       22.49013770    0.00000000
   13         42           14
                                      F and up 
                                                     0      537.9667807       -0.04694920    0.00000000
                                                     1      147.8982938      -20.20800840    0.00000000
                                                     2       45.7358898     -106.21163020    0.00000000
                                                     2       13.2911467      -41.81073680    0.00000000
                                                     2        4.7059961       -4.20541030    0.00000000
                                      S - F
                                                     0      110.2991760        2.80637170    0.00000000
                                                     1       23.2014645       44.51620120    0.00000000
                                                     2        5.3530131       82.77852270    0.00000000
                                      P - F
                                                     0       63.2901397        4.94208760    0.00000000
                                                     1       23.3315302       25.86049760    0.00000000
                                                     2       24.6759423      132.47087420    0.00000000
                                                     2        4.6493040       57.31497940    0.00000000
                                      D - F
                                                     0      104.4839977        3.00545910    0.00000000
                                                     1       66.2307245       26.36378510    0.00000000
                                                     2       39.1283176      183.38491990    0.00000000
                                                     2       13.1164437       98.44530680    0.00000000
                                                     2        3.6280263       22.49013770    0.00000000
   14         16
                                   No pseudopotential on this center.
   15         16
                                   No pseudopotential on this center.
   16         16
                                   No pseudopotential on this center.
   17         16
                                   No pseudopotential on this center.
   18         42           14
                                      F and up 
                                                     0      537.9667807       -0.04694920    0.00000000
                                                     1      147.8982938      -20.20800840    0.00000000
                                                     2       45.7358898     -106.21163020    0.00000000
                                                     2       13.2911467      -41.81073680    0.00000000
                                                     2        4.7059961       -4.20541030    0.00000000
                                      S - F
                                                     0      110.2991760        2.80637170    0.00000000
                                                     1       23.2014645       44.51620120    0.00000000
                                                     2        5.3530131       82.77852270    0.00000000
                                      P - F
                                                     0       63.2901397        4.94208760    0.00000000
                                                     1       23.3315302       25.86049760    0.00000000
                                                     2       24.6759423      132.47087420    0.00000000
                                                     2        4.6493040       57.31497940    0.00000000
                                      D - F
                                                     0      104.4839977        3.00545910    0.00000000
                                                     1       66.2307245       26.36378510    0.00000000
                                                     2       39.1283176      183.38491990    0.00000000
                                                     2       13.1164437       98.44530680    0.00000000
                                                     2        3.6280263       22.49013770    0.00000000
 ======================================================================================================
   348 basis functions,   918 primitive gaussians,   372 cartesian basis functions
   138 alpha electrons      138 beta electrons
       nuclear repulsion energy      4578.5738767124 Hartrees.
 NAtoms=   18 NActive=   18 NUniq=   18 SFac= 1.00D+00 NAtFMM=   60 NAOKFM=F Big=F
 Integral buffers will be    131072 words long.
 Raffenetti 2 integral format.
 Two-electron integral symmetry is turned off.
 One-electron integrals computed using PRISM.
   1 Symmetry operations used in ECPInt.
 ECPInt:  NShTT=    5886 NPrTT=   47445 LenC2=    5367 LenP2D=   27772.
 LDataN:  DoStor=T MaxTD1= 5 Len=  102
 NBasis=   348 RedAO= T EigKep=  8.05D-04  NBF=   348
 NBsUse=   348 1.00D-06 EigRej= -1.00D+00 NBFU=   348
 Defaulting to unpruned grid for atomic number  42.
 Defaulting to unpruned grid for atomic number  42.
 Defaulting to unpruned grid for atomic number  42.
 Defaulting to unpruned grid for atomic number  42.
 Defaulting to unpruned grid for atomic number  42.
 Defaulting to unpruned grid for atomic number  42.
 ExpMin= 2.47D-02 ExpMax= 2.19D+04 ExpMxC= 3.30D+03 IAcc=3 IRadAn=         5 AccDes= 0.00D+00
 Harris functional with IExCor=  402 and IRadAn=       5 diagonalized for initial guess.
 HarFok:  IExCor=  402 AccDes= 0.00D+00 IRadAn=         5 IDoV= 1 UseB2=F ITyADJ=14
 ICtDFT=  3500011 ScaDFX=  1.000000  1.000000  1.000000  1.000000
 Defaulting to unpruned grid for atomic number  42.
 FoFCou: FMM=F IPFlag=           0 FMFlag=      100000 FMFlg1=           0
         NFxFlg=           0 DoJE=T BraDBF=F KetDBF=T FulRan=T
         wScrn=  0.000000 ICntrl=       500 IOpCl=  0 I1Cent=   200000004 NGrid=           0
         NMat0=    1 NMatS0=      1 NMatT0=    0 NMatD0=    1 NMtDS0=    0 NMtDT0=    0
 Symmetry not used in FoFCou.
 Requested convergence on RMS density matrix=1.00D-08 within 128 cycles.
 Requested convergence on MAX density matrix=1.00D-06.
 Requested convergence on             energy=1.00D-06.
 No special actions if energy rises.
 Defaulting to unpruned grid for atomic number  42.
 Defaulting to unpruned grid for atomic number  42.
 Defaulting to unpruned grid for atomic number  42.
 Defaulting to unpruned grid for atomic number  42.
 Defaulting to unpruned grid for atomic number  42.
 Defaulting to unpruned grid for atomic number  42.
 Defaulting to unpruned grid for atomic number  42.
 Defaulting to unpruned grid for atomic number  42.
 Defaulting to unpruned grid for atomic number  42.
 Defaulting to unpruned grid for atomic number  42.
 Defaulting to unpruned grid for atomic number  42.
 Defaulting to unpruned grid for atomic number  42.
 Defaulting to unpruned grid for atomic number  42.
 Defaulting to unpruned grid for atomic number  42.
 Defaulting to unpruned grid for atomic number  42.
 Defaulting to unpruned grid for atomic number  42.
 Defaulting to unpruned grid for atomic number  42.
 Defaulting to unpruned grid for atomic number  42.
 Defaulting to unpruned grid for atomic number  42.
 Defaulting to unpruned grid for atomic number  42.
 Defaulting to unpruned grid for atomic number  42.
 Defaulting to unpruned grid for atomic number  42.
 Defaulting to unpruned grid for atomic number  42.
 Defaulting to unpruned grid for atomic number  42.
 Defaulting to unpruned grid for atomic number  42.
 Defaulting to unpruned grid for atomic number  42.
 Defaulting to unpruned grid for atomic number  42.
 Defaulting to unpruned grid for atomic number  42.
 Defaulting to unpruned grid for atomic number  42.
 Defaulting to unpruned grid for atomic number  42.
 Defaulting to unpruned grid for atomic number  42.
 Defaulting to unpruned grid for atomic number  42.
 Defaulting to unpruned grid for atomic number  42.
 Defaulting to unpruned grid for atomic number  42.
 Defaulting to unpruned grid for atomic number  42.
 Defaulting to unpruned grid for atomic number  42.
 Defaulting to unpruned grid for atomic number  42.
 Defaulting to unpruned grid for atomic number  42.
 Defaulting to unpruned grid for atomic number  42.
 Defaulting to unpruned grid for atomic number  42.
 Defaulting to unpruned grid for atomic number  42.
 Defaulting to unpruned grid for atomic number  42.
 Defaulting to unpruned grid for atomic number  42.
 Defaulting to unpruned grid for atomic number  42.
 Defaulting to unpruned grid for atomic number  42.
 Defaulting to unpruned grid for atomic number  42.
 EnCoef did     7 forward-backward iterations
 EnCoef did   100 forward-backward iterations
 EnCoef did   100 forward-backward iterations
 EnCoef did     5 forward-backward iterations
 EnCoef did     6 forward-backward iterations
 EnCoef did     3 forward-backward iterations
 EnCoef did     3 forward-backward iterations
 EnCoef did     5 forward-backward iterations
 EnCoef did     5 forward-backward iterations
 EnCoef did     4 forward-backward iterations
 EnCoef did     2 forward-backward iterations
 EnCoef did     6 forward-backward iterations
 EnCoef did     4 forward-backward iterations
 Restarting incremental Fock formation.
 SCF Done:  E(RB3LYP) =  -5184.02992147     A.U. after   36 cycles
            NFock= 36  Conv=0.85D-08     -V/T= 2.0574

 **********************************************************************

            Population analysis using the SCF Density.

 **********************************************************************

 Alpha  occ. eigenvalues --  -88.92098 -88.90246 -88.90139 -88.89805 -88.89655
 Alpha  occ. eigenvalues --  -88.89076 -88.88589 -88.88165 -88.87875 -88.87625
 Alpha  occ. eigenvalues --  -88.87160 -88.87106  -7.99645  -7.97789  -7.97752
 Alpha  occ. eigenvalues --   -7.97565  -7.97479  -7.96979  -7.96511  -7.96098
 Alpha  occ. eigenvalues --   -7.95661  -7.95356  -7.95055  -7.94922  -5.95685
 Alpha  occ. eigenvalues --   -5.95608  -5.95516  -5.93859  -5.93803  -5.93757
 Alpha  occ. eigenvalues --   -5.93717  -5.93668  -5.93603  -5.93592  -5.93504
 Alpha  occ. eigenvalues --   -5.93496  -5.93438  -5.93423  -5.93350  -5.93025
 Alpha  occ. eigenvalues --   -5.92959  -5.92771  -5.92568  -5.92496  -5.92265
 Alpha  occ. eigenvalues --   -5.92108  -5.92104  -5.91875  -5.91793  -5.91636
 Alpha  occ. eigenvalues --   -5.91408  -5.91390  -5.91356  -5.91157  -5.91079
 Alpha  occ. eigenvalues --   -5.91041  -5.91014  -5.90851  -5.90843  -5.90749
 Alpha  occ. eigenvalues --   -2.57356  -2.56592  -2.56051  -2.55508  -2.54875
 Alpha  occ. eigenvalues --   -2.51397  -1.60165  -1.59862  -1.59768  -1.59321
 Alpha  occ. eigenvalues --   -1.59186  -1.58902  -1.58685  -1.58382  -1.58063
 Alpha  occ. eigenvalues --   -1.57823  -1.57680  -1.57374  -1.57125  -1.56878
 Alpha  occ. eigenvalues --   -1.56024  -1.54001  -1.53750  -1.52843  -0.75679
 Alpha  occ. eigenvalues --   -0.73663  -0.73038  -0.72673  -0.72001  -0.71720
 Alpha  occ. eigenvalues --   -0.70782  -0.70204  -0.69947  -0.69249  -0.69046
 Alpha  occ. eigenvalues --   -0.68382  -0.42799  -0.42482  -0.41937  -0.40826
 Alpha  occ. eigenvalues --   -0.40494  -0.39837  -0.39626  -0.39287  -0.38587
 Alpha  occ. eigenvalues --   -0.37855  -0.37574  -0.37257  -0.36927  -0.36834
 Alpha  occ. eigenvalues --   -0.36673  -0.36287  -0.36203  -0.35959  -0.35677
 Alpha  occ. eigenvalues --   -0.35216  -0.34664  -0.34215  -0.33835  -0.33318
 Alpha  occ. eigenvalues --   -0.33069  -0.32897  -0.32471  -0.31617  -0.30632
 Alpha  occ. eigenvalues --   -0.30198  -0.29735  -0.29268  -0.28596  -0.28397
 Alpha  occ. eigenvalues --   -0.28108  -0.27292  -0.26752  -0.25759  -0.25439
 Alpha  occ. eigenvalues --   -0.24815  -0.23772  -0.21395
 Alpha virt. eigenvalues --   -0.16883  -0.16246  -0.15850  -0.15511  -0.14482
 Alpha virt. eigenvalues --   -0.14054  -0.13651  -0.13501  -0.13171  -0.12632
 Alpha virt. eigenvalues --   -0.12366  -0.11981  -0.11534  -0.10924  -0.10293
 Alpha virt. eigenvalues --   -0.09835  -0.09052  -0.08487  -0.08288  -0.07581
 Alpha virt. eigenvalues --   -0.07195  -0.06728  -0.06350  -0.05846  -0.04703
 Alpha virt. eigenvalues --   -0.00883   0.00365   0.00828   0.01495   0.01934
 Alpha virt. eigenvalues --    0.02729   0.02797   0.03521   0.04227   0.04415
 Alpha virt. eigenvalues --    0.04738   0.04978   0.05450   0.06112   0.06634
 Alpha virt. eigenvalues --    0.07079   0.07498   0.07974   0.08010   0.09175
 Alpha virt. eigenvalues --    0.09912   0.10407   0.11215   0.13256   0.13638
 Alpha virt. eigenvalues --    0.14353   0.15610   0.16472   0.16993   0.18089
 Alpha virt. eigenvalues --    0.18810   0.19709   0.19979   0.20758   0.21855
 Alpha virt. eigenvalues --    0.22463   0.23668   0.24222   0.25571   0.26812
 Alpha virt. eigenvalues --    0.28058   0.28295   0.28889   0.29171   0.29657
 Alpha virt. eigenvalues --    0.30187   0.30838   0.31430   0.31912   0.32751
 Alpha virt. eigenvalues --    0.32869   0.33544   0.33864   0.34680   0.34839
 Alpha virt. eigenvalues --    0.35311   0.35510   0.35724   0.36271   0.36917
 Alpha virt. eigenvalues --    0.37266   0.37486   0.38157   0.38503   0.38600
 Alpha virt. eigenvalues --    0.39593   0.40120   0.40254   0.40600   0.40856
 Alpha virt. eigenvalues --    0.41024   0.41783   0.42054   0.42577   0.42942
 Alpha virt. eigenvalues --    0.43320   0.43995   0.44170   0.44631   0.44974
 Alpha virt. eigenvalues --    0.45142   0.45653   0.45771   0.46831   0.47482
 Alpha virt. eigenvalues --    0.48571   0.49415   0.49895   0.50176   0.50799
 Alpha virt. eigenvalues --    0.52169   0.53029   0.53337   0.54446   0.55082
 Alpha virt. eigenvalues --    0.55452   0.56200   0.56659   0.57299   0.58902
 Alpha virt. eigenvalues --    0.60357   0.61076   0.61372   0.61560   0.62679
 Alpha virt. eigenvalues --    0.63941   0.64069   0.64721   0.65764   0.67058
 Alpha virt. eigenvalues --    0.67542   0.68952   0.69581   0.71550   0.72040
 Alpha virt. eigenvalues --    0.73200   0.73494   0.74511   0.74883   0.75247
 Alpha virt. eigenvalues --    0.75649   0.76314   0.76433   0.77134   0.77551
 Alpha virt. eigenvalues --    0.77890   0.78950   0.79712   0.79886   0.80036
 Alpha virt. eigenvalues --    0.80736   0.81918   0.82005   0.82575   0.82939
 Alpha virt. eigenvalues --    0.83717   0.84532   0.84889   0.85956   0.86013
 Alpha virt. eigenvalues --    0.86657   0.87129   0.88122   0.89101   0.89462
 Alpha virt. eigenvalues --    0.90249   0.90703   0.91443   0.92226   0.93772
 Alpha virt. eigenvalues --    0.94382   0.96081   0.96561   0.97959   0.98875
 Alpha virt. eigenvalues --    0.99819   1.00037   1.00781   1.01406   1.01883
 Alpha virt. eigenvalues --    1.02495   1.02668   1.02924   1.04032   1.04269
 Alpha virt. eigenvalues --    1.05115   1.05287   1.05797   1.06804   1.07817
 Alpha virt. eigenvalues --    1.08944   1.09278   1.09893   1.10729   1.11670
 Alpha virt. eigenvalues --    1.13048   1.15844   1.19609   1.26114   6.43573
 Alpha virt. eigenvalues --    8.68812   9.91861  10.08448  11.22848  15.35277
          Condensed to atoms (all electrons):
               1          2          3          4          5          6
     1  Mo  13.761400   0.296447   0.196517   0.127022   0.250077  -0.329330
     2  S    0.296447  15.554098   0.008918   0.008638  -0.024161  -0.051791
     3  S    0.196517   0.008918  15.703407  -0.048376  -0.004289   0.233719
     4  S    0.127022   0.008638  -0.048376  15.480719  -0.017694   0.126199
     5  S    0.250077  -0.024161  -0.004289  -0.017694  15.688263  -0.014497
     6  Mo  -0.329330  -0.051791   0.233719   0.126199  -0.014497  14.250988
     7  S    0.005348  -0.000013   0.000383  -0.016665   0.000043   0.126429
     8  S   -0.041052  -0.038836   0.011728   0.003993  -0.000139   0.200761
     9  Mo  -0.054062   0.200225  -0.026066   0.094846  -0.015700  -0.311340
    10  S    0.003158  -0.004442  -0.000184  -0.030264  -0.000037  -0.006241
    11  S   -0.003663  -0.037635  -0.000148  -0.014949  -0.000846  -0.025692
    12  Mo  -0.092620  -0.043450  -0.000948  -0.011274   0.223592   0.030463
    13  Mo   0.011525   0.000191  -0.002470  -0.023076   0.000166  -0.123866
    14  S   -0.011195   0.000448  -0.000002  -0.000237  -0.000588   0.000276
    15  S   -0.011527  -0.000574  -0.000003  -0.001581  -0.003192   0.000061
    16  S    0.000105  -0.000009   0.000038  -0.000225  -0.000000   0.000354
    17  S    0.000298   0.000000  -0.000000  -0.000007   0.000000  -0.012092
    18  Mo  -0.042138   0.001732   0.015468   0.012584  -0.000069  -0.081827
               7          8          9         10         11         12
     1  Mo   0.005348  -0.041052  -0.054062   0.003158  -0.003663  -0.092620
     2  S   -0.000013  -0.038836   0.200225  -0.004442  -0.037635  -0.043450
     3  S    0.000383   0.011728  -0.026066  -0.000184  -0.000148  -0.000948
     4  S   -0.016665   0.003993   0.094846  -0.030264  -0.014949  -0.011274
     5  S    0.000043  -0.000139  -0.015700  -0.000037  -0.000846   0.223592
     6  Mo   0.126429   0.200761  -0.311340  -0.006241  -0.025692   0.030463
     7  S   15.666210  -0.005294  -0.009631  -0.000831  -0.000062   0.000504
     8  S   -0.005294  15.466682   0.170609  -0.008851  -0.003440   0.000844
     9  Mo  -0.009631   0.170609  14.063613   0.194323   0.268135  -0.083084
    10  S   -0.000831  -0.008851   0.194323  15.734329  -0.048392   0.002829
    11  S   -0.000062  -0.003440   0.268135  -0.048392  15.591104   0.262100
    12  Mo   0.000504   0.000844  -0.083084   0.002829   0.262100  12.730328
    13  Mo   0.142816  -0.038229  -0.038459   0.274475   0.002561  -0.000402
    14  S   -0.000000  -0.000004  -0.006777  -0.000001  -0.001428   0.362686
    15  S   -0.000000  -0.000001  -0.008097   0.000278  -0.007757   0.363595
    16  S   -0.008924  -0.026495  -0.008194   0.000170  -0.000025  -0.000100
    17  S    0.004604   0.000133  -0.004953   0.015199   0.000025   0.000031
    18  Mo   0.145411   0.182449  -0.006296  -0.032566  -0.000082  -0.000147
              13         14         15         16         17         18
     1  Mo   0.011525  -0.011195  -0.011527   0.000105   0.000298  -0.042138
     2  S    0.000191   0.000448  -0.000574  -0.000009   0.000000   0.001732
     3  S   -0.002470  -0.000002  -0.000003   0.000038  -0.000000   0.015468
     4  S   -0.023076  -0.000237  -0.001581  -0.000225  -0.000007   0.012584
     5  S    0.000166  -0.000588  -0.003192  -0.000000   0.000000  -0.000069
     6  Mo  -0.123866   0.000276   0.000061   0.000354  -0.012092  -0.081827
     7  S    0.142816  -0.000000  -0.000000  -0.008924   0.004604   0.145411
     8  S   -0.038229  -0.000004  -0.000001  -0.026495   0.000133   0.182449
     9  Mo  -0.038459  -0.006777  -0.008097  -0.008194  -0.004953  -0.006296
    10  S    0.274475  -0.000001   0.000278   0.000170   0.015199  -0.032566
    11  S    0.002561  -0.001428  -0.007757  -0.000025   0.000025  -0.000082
    12  Mo  -0.000402   0.362686   0.363595  -0.000100   0.000031  -0.000147
    13  Mo  12.957301  -0.000022  -0.000067   0.232054   0.351999  -0.076665
    14  S   -0.000022  15.762704   0.009040  -0.000000  -0.000000   0.000005
    15  S   -0.000067   0.009040  15.777397  -0.000000  -0.000000  -0.000034
    16  S    0.232054  -0.000000  -0.000000  15.625588   0.000121   0.253326
    17  S    0.351999  -0.000000  -0.000000   0.000121  15.848594  -0.012353
    18  Mo  -0.076665   0.000005  -0.000034   0.253326  -0.012353  13.510614
 Mulliken charges:
               1
     1  Mo  -0.066311
     2  S    0.130213
     3  S   -0.087692
     4  S    0.310344
     5  S   -0.080929
     6  Mo  -0.012574
     7  S   -0.050329
     8  S    0.125142
     9  Mo  -0.419091
    10  S   -0.092952
    11  S    0.020194
    12  Mo   0.255054
    13  Mo   0.330168
    14  S   -0.114905
    15  S   -0.117539
    16  S   -0.067783
    17  S   -0.191597
    18  Mo   0.130588
 Sum of Mulliken charges =  -0.00000
 Mulliken charges with hydrogens summed into heavy atoms:
               1
     1  Mo  -0.066311
     2  S    0.130213
     3  S   -0.087692
     4  S    0.310344
     5  S   -0.080929
     6  Mo  -0.012574
     7  S   -0.050329
     8  S    0.125142
     9  Mo  -0.419091
    10  S   -0.092952
    11  S    0.020194
    12  Mo   0.255054
    13  Mo   0.330168
    14  S   -0.114905
    15  S   -0.117539
    16  S   -0.067783
    17  S   -0.191597
    18  Mo   0.130588
 Electronic spatial extent (au):  <R**2>=         115528.7569
 Charge=             -0.0000 electrons
 Dipole moment (field-independent basis, Debye):
    X=             -5.4737    Y=             -1.6762    Z=              3.0044  Tot=              6.4651
 Quadrupole moment (field-independent basis, Debye-Ang):
   XX=           -269.2069   YY=           -305.4286   ZZ=           -244.9454
   XY=            -12.4831   XZ=            -61.1268   YZ=             -4.8864
 Traceless Quadrupole moment (field-independent basis, Debye-Ang):
   XX=              3.9868   YY=            -32.2350   ZZ=             28.2482
   XY=            -12.4831   XZ=            -61.1268   YZ=             -4.8864
 Octapole moment (field-independent basis, Debye-Ang**2):
  XXX=            180.1468  YYY=          -2290.7422  ZZZ=          -8109.7146  XYY=            121.5803
  XXY=           -663.2875  XXZ=          -2634.9159  XZZ=           -504.6553  YZZ=           -715.5146
  YYZ=          -2963.7950  XYZ=           -155.3003
 Hexadecapole moment (field-independent basis, Debye-Ang**3):
 XXXX=         -11900.2344 YYYY=         -15261.3730 ZZZZ=        -171712.6638 XXXY=           1550.7386
 XXXZ=            -99.4228 YYYX=           2279.0885 YYYZ=         -21324.8981 ZZZX=          -4168.1875
 ZZZY=         -20246.1437 XXYY=          -4491.7776 XXZZ=         -29097.1058 YYZZ=         -32406.5791
 XXYZ=          -6074.0061 YYXZ=            462.8821 ZZXY=          -1017.2881
 N-N= 4.578573876712D+03 E-N=-2.133998436480D+04  KE= 4.902513879450D+03
   1 Symmetry operations used in ECPInt.
 ECPInt:  NShTT=    5886 NPrTT=   47445 LenC2=    5367 LenP2D=   27772.
 LDataN:  DoStor=T MaxTD1= 6 Len=  172
 Calling FoFJK, ICntrl=      2127 FMM=F ISym2X=0 I1Cent= 0 IOpClX= 0 NMat=1 NMatS=1 NMatT=0.
 Defaulting to unpruned grid for atomic number  42.
 Defaulting to unpruned grid for atomic number  42.
 Defaulting to unpruned grid for atomic number  42.
 Defaulting to unpruned grid for atomic number  42.
 Defaulting to unpruned grid for atomic number  42.
 Defaulting to unpruned grid for atomic number  42.
 Defaulting to unpruned grid for atomic number  42.
 Defaulting to unpruned grid for atomic number  42.
 Defaulting to unpruned grid for atomic number  42.
 Defaulting to unpruned grid for atomic number  42.
 Defaulting to unpruned grid for atomic number  42.
 Defaulting to unpruned grid for atomic number  42.
 Defaulting to unpruned grid for atomic number  42.
 Defaulting to unpruned grid for atomic number  42.
 Defaulting to unpruned grid for atomic number  42.
 Defaulting to unpruned grid for atomic number  42.
 Defaulting to unpruned grid for atomic number  42.
 Defaulting to unpruned grid for atomic number  42.
 Defaulting to unpruned grid for atomic number  42.
 Defaulting to unpruned grid for atomic number  42.
 Defaulting to unpruned grid for atomic number  42.
 Defaulting to unpruned grid for atomic number  42.
 Defaulting to unpruned grid for atomic number  42.
 Defaulting to unpruned grid for atomic number  42.
 Defaulting to unpruned grid for atomic number  42.
 Defaulting to unpruned grid for atomic number  42.
 Defaulting to unpruned grid for atomic number  42.
 Defaulting to unpruned grid for atomic number  42.
 Defaulting to unpruned grid for atomic number  42.
 Defaulting to unpruned grid for atomic number  42.
 Defaulting to unpruned grid for atomic number  42.
 Defaulting to unpruned grid for atomic number  42.
 Defaulting to unpruned grid for atomic number  42.
 Defaulting to unpruned grid for atomic number  42.
 Defaulting to unpruned grid for atomic number  42.
 Defaulting to unpruned grid for atomic number  42.
 Defaulting to unpruned grid for atomic number  42.
 Defaulting to unpruned grid for atomic number  42.
 Defaulting to unpruned grid for atomic number  42.
 Defaulting to unpruned grid for atomic number  42.
 Defaulting to unpruned grid for atomic number  42.
 Defaulting to unpruned grid for atomic number  42.
 Defaulting to unpruned grid for atomic number  42.
 Defaulting to unpruned grid for atomic number  42.
 Defaulting to unpruned grid for atomic number  42.
 Defaulting to unpruned grid for atomic number  42.
 -------------------------------------------------------------------
 Center     Atomic                   Forces (Hartrees/Bohr)
 Number     Number              X              Y              Z
 -------------------------------------------------------------------
      1       42           0.000954340    0.003503557   -0.002230144
      2       16           0.000018951    0.000477030    0.001403458
      3       16          -0.002203944   -0.000844280    0.000289764
      4       16           0.000652050   -0.000555110   -0.001324274
      5       16           0.000352154   -0.000808970    0.000650139
      6       42          -0.006253913   -0.000877348   -0.003815227
      7       16          -0.019783723    0.003802658    0.010101094
      8       16          -0.020874272    0.006823284    0.000566753
      9       42           0.005573242   -0.001437557    0.000142159
     10       16          -0.000855167   -0.000343267    0.001061734
     11       16           0.000470844    0.000542285   -0.000328999
     12       42          -0.002550747    0.000624408   -0.000411620
     13       42          -0.000541918   -0.007931501    0.004781330
     14       16           0.000614915    0.000264713    0.000569729
     15       16           0.000380218   -0.000423487   -0.000725512
     16       16          -0.016946141   -0.010606816    0.022314756
     17       16          -0.000829570    0.000198717   -0.001713705
     18       42           0.061822680    0.007591685   -0.031331435
 -------------------------------------------------------------------
 Cartesian Forces:  Max     0.061822680 RMS     0.011359254

 GradGradGradGradGradGradGradGradGradGradGradGradGradGradGradGradGradGrad
 Berny optimization.
 FormGI is forming the generalized inverse of G from B-inverse, IUseBI=4.
 Internal  Forces:  Max     0.024967473 RMS     0.003786464
 Search for a local minimum.
 Step number   1 out of a maximum of  108
 All quantities printed in internal units (Hartrees-Bohrs-Radians)
 Mixed Optimization -- RFO/linear search
 Second derivative matrix not updated -- first step.
 ITU=  0
     Eigenvalues ---    0.00232   0.01995   0.02284   0.02527   0.03450
     Eigenvalues ---    0.04311   0.04808   0.05073   0.05157   0.05909
     Eigenvalues ---    0.06240   0.06865   0.07546   0.07842   0.08468
     Eigenvalues ---    0.08620   0.09066   0.09198   0.09680   0.10292
     Eigenvalues ---    0.10458   0.11423   0.11962   0.12100   0.12387
     Eigenvalues ---    0.13100   0.13170   0.13175   0.13477   0.13595
     Eigenvalues ---    0.13815   0.14118   0.14347   0.14882   0.15793
     Eigenvalues ---    0.16628   0.16860   0.17614   0.18003   0.18326
     Eigenvalues ---    0.19434   0.19973   0.22030   0.22223   0.22493
     Eigenvalues ---    0.25955   0.25993   0.26011
 RFO step:  Lambda=-2.05344162D-02 EMin= 2.31553877D-03
 Linear search not attempted -- first point.
 Maximum step size (   0.300) exceeded in Quadratic search.
    -- Step size scaled by   0.747
 Iteration  1 RMS(Cart)=  0.01872841 RMS(Int)=  0.00051488
 Iteration  2 RMS(Cart)=  0.00036993 RMS(Int)=  0.00028088
 Iteration  3 RMS(Cart)=  0.00000017 RMS(Int)=  0.00028088
 Variable       Old X    -DE/DX   Delta X   Delta X   Delta X     New X
                                 (Linear)    (Quad)   (Total)
    R1        4.26513   0.00063   0.00000   0.00240   0.00235   4.26748
    R2        4.44265   0.00143   0.00000   0.00859   0.00873   4.45138
    R3        4.54227   0.00089   0.00000   0.00253   0.00248   4.54476
    R4        4.29669  -0.00014   0.00000  -0.00038  -0.00039   4.29631
    R5        5.50212  -0.00119   0.00000  -0.00626  -0.00623   5.49590
    R6        4.99015  -0.00062   0.00000  -0.00898  -0.00908   4.98107
    R7        4.55592   0.00021   0.00000   0.00224   0.00223   4.55815
    R8        4.37924   0.00049   0.00000  -0.00093  -0.00097   4.37827
    R9        4.53607  -0.00001   0.00000   0.00175   0.00184   4.53792
   R10        4.45133   0.00159   0.00000   0.00398   0.00390   4.45523
   R11        4.57685   0.00039   0.00000   0.00192   0.00196   4.57880
   R12        4.53039   0.00288   0.00000   0.00456   0.00405   4.53445
   R13        4.30942   0.00586   0.00000   0.01840   0.01797   4.32739
   R14        5.12984  -0.00041   0.00000   0.00096   0.00096   5.13080
   R15        5.29958  -0.01517   0.00000  -0.09977  -0.09991   5.19967
   R16        4.54878   0.00365   0.00000   0.00914   0.00839   4.55717
   R17        4.80325  -0.01386   0.00000  -0.09609  -0.09483   4.70842
   R18        4.72593   0.00568   0.00000   0.03445   0.03444   4.76038
   R19        5.05125  -0.01497   0.00000  -0.11384  -0.11349   4.93776
   R20        4.99126   0.00003   0.00000  -0.01166  -0.01167   4.97959
   R21        4.48281  -0.00015   0.00000  -0.00082  -0.00083   4.48198
   R22        4.22558   0.00041   0.00000  -0.00074  -0.00076   4.22482
   R23        4.44915  -0.00037   0.00000  -0.00203  -0.00200   4.44715
   R24        3.99889   0.00088   0.00000   0.00234   0.00234   4.00123
   R25        3.99845   0.00092   0.00000   0.00245   0.00245   4.00090
   R26        4.23635   0.01041   0.00000   0.03497   0.03405   4.27040
   R27        3.99981   0.00181   0.00000   0.00482   0.00482   4.00463
   R28        5.47294  -0.01720   0.00000  -0.13252  -0.13195   5.34099
   R29        4.73226  -0.02497   0.00000  -0.15805  -0.15767   4.57458
    A1        1.85388   0.00115   0.00000  -0.00013  -0.00007   1.85380
    A2        1.97963   0.00035   0.00000   0.00347   0.00347   1.98310
    A3        1.83896  -0.00002   0.00000   0.00052   0.00046   1.83941
    A4        1.69492   0.00087   0.00000   0.00308   0.00311   1.69803
    A5        1.66576   0.00007   0.00000   0.00152   0.00150   1.66726
    A6        2.39162  -0.00109   0.00000  -0.00283  -0.00285   2.38878
    A7        1.81835   0.00034   0.00000   0.00122   0.00123   1.81958
    A8        1.70986  -0.00046   0.00000  -0.00084  -0.00081   1.70905
    A9        2.59806  -0.00058   0.00000  -0.00072  -0.00069   2.59737
   A10        2.04254   0.00056   0.00000   0.00180   0.00182   2.04436
   A11        1.56242  -0.00138   0.00000  -0.00401  -0.00404   1.55837
   A12        2.50009   0.00306   0.00000   0.01642   0.01656   2.51665
   A13        1.63346   0.00006   0.00000   0.00407   0.00410   1.63756
   A14        2.72049  -0.00154   0.00000  -0.00838  -0.00860   2.71189
   A15        1.68286   0.00053   0.00000   0.00409   0.00408   1.68693
   A16        2.38138  -0.00262   0.00000  -0.01134  -0.01149   2.36989
   A17        1.77606  -0.00084   0.00000  -0.00237  -0.00230   1.77376
   A18        1.79549   0.00052   0.00000   0.00090   0.00092   1.79641
   A19        2.21045   0.00054   0.00000   0.00470   0.00479   2.21524
   A20        1.61238   0.00323   0.00000   0.01772   0.01792   1.63030
   A21        1.98259   0.00142   0.00000   0.00726   0.00724   1.98983
   A22        2.38988  -0.00107   0.00000  -0.00879  -0.00894   2.38094
   A23        1.97951   0.00018   0.00000  -0.00442  -0.00495   1.97456
   A24        2.03583   0.00344   0.00000   0.01829   0.01826   2.05409
   A25        1.89331  -0.00202   0.00000  -0.01188  -0.01203   1.88128
   A26        1.63591  -0.00332   0.00000  -0.02058  -0.02035   1.61556
   A27        2.09229  -0.00436   0.00000  -0.01919  -0.01950   2.07279
   A28        1.66801  -0.00019   0.00000   0.00064   0.00062   1.66863
   A29        2.43488  -0.00020   0.00000  -0.00314  -0.00318   2.43171
   A30        1.85980   0.00039   0.00000   0.00247   0.00251   1.86231
   A31        1.91420   0.00025   0.00000   0.00286   0.00286   1.91706
   A32        1.72553   0.00075   0.00000   0.00123   0.00125   1.72678
   A33        1.49303  -0.00016   0.00000   0.00032   0.00042   1.49345
   A34        1.66194  -0.00013   0.00000   0.00232   0.00228   1.66422
   A35        1.87610   0.00088   0.00000   0.00107   0.00096   1.87706
   A36        1.43782  -0.00030   0.00000  -0.00436  -0.00438   1.43344
   A37        1.70812  -0.00044   0.00000  -0.00118  -0.00115   1.70698
   A38        1.59283  -0.00083   0.00000  -0.00612  -0.00614   1.58669
   A39        2.67521  -0.00060   0.00000  -0.00162  -0.00156   2.67365
   A40        1.65542  -0.00006   0.00000  -0.00484  -0.00488   1.65054
   A41        2.66685  -0.00039   0.00000  -0.00142  -0.00139   2.66546
   A42        1.37243   0.00027   0.00000   0.00278   0.00279   1.37522
   A43        1.87554  -0.00039   0.00000  -0.00462  -0.00475   1.87080
   A44        1.64333  -0.00127   0.00000  -0.00443  -0.00447   1.63886
   A45        2.30810   0.00170   0.00000   0.00428   0.00430   2.31240
   A46        1.78707  -0.00064   0.00000  -0.00205  -0.00206   1.78502
   A47        1.81526  -0.00046   0.00000  -0.00061  -0.00062   1.81464
   A48        1.82821  -0.00054   0.00000  -0.00181  -0.00181   1.82639
   A49        1.81839  -0.00029   0.00000  -0.00008  -0.00009   1.81830
   A50        1.87755   0.00006   0.00000  -0.00035  -0.00035   1.87719
   A51        1.98744   0.00296   0.00000   0.01566   0.01582   2.00326
   A52        1.95172  -0.00573   0.00000  -0.02377  -0.02442   1.92730
   A53        1.87427  -0.00153   0.00000   0.00095   0.00081   1.87508
   A54        1.85631   0.00092   0.00000  -0.00590  -0.00509   1.85122
   A55        1.91602   0.00183   0.00000   0.00593   0.00585   1.92187
   A56        2.05582  -0.00190   0.00000  -0.00365  -0.00389   2.05193
   A57        1.87538   0.00164   0.00000   0.00720   0.00686   1.88223
   A58        2.30912   0.00002   0.00000  -0.00344  -0.00326   2.30587
   A59        1.32454   0.00339   0.00000   0.02107   0.02140   1.34593
   A60        1.97205   0.00807   0.00000   0.03600   0.03678   2.00883
   A61        1.69534   0.00901   0.00000   0.05095   0.05176   1.74710
   A62        1.73656   0.00879   0.00000   0.05566   0.05640   1.79296
   A63        1.49067   0.00594   0.00000   0.03108   0.03167   1.52234
   A64        1.52646   0.00360   0.00000   0.00126   0.00086   1.52732
   A65        3.35202  -0.00005   0.00000  -0.00150  -0.00152   3.35050
   A66        3.21505  -0.00004   0.00000  -0.00490  -0.00487   3.21018
    D1       -0.98803  -0.00028   0.00000  -0.00575  -0.00574  -0.99377
    D2        2.92064  -0.00103   0.00000  -0.00214  -0.00214   2.91850
    D3        1.05486  -0.00008   0.00000  -0.00218  -0.00216   1.05270
    D4        1.36239   0.00091   0.00000   0.00274   0.00278   1.36517
    D5        0.09265  -0.00017   0.00000  -0.00354  -0.00353   0.08912
    D6        2.36552   0.00354   0.00000   0.02085   0.02107   2.38659
    D7       -0.05254  -0.00193   0.00000  -0.00385  -0.00382  -0.05636
    D8       -0.15794   0.00247   0.00000   0.02553   0.02543  -0.13250
    D9       -0.01309   0.00252   0.00000   0.01305   0.01327   0.00018
   D10       -2.43115  -0.00295   0.00000  -0.01165  -0.01163  -2.44277
   D11       -2.53655   0.00146   0.00000   0.01773   0.01763  -2.51892
   D12        0.35640   0.00119   0.00000  -0.00087  -0.00095   0.35546
   D13       -1.46193   0.00160   0.00000   0.00727   0.00728  -1.45464
   D14       -3.06434   0.00079   0.00000   0.00102   0.00102  -3.06332
   D15       -3.00381   0.00033   0.00000  -0.00066  -0.00074  -3.00455
   D16        1.46105   0.00074   0.00000   0.00748   0.00749   1.46854
   D17       -0.14137  -0.00008   0.00000   0.00123   0.00123  -0.14014
   D18        1.24186  -0.00037   0.00000  -0.00279  -0.00280   1.23906
   D19       -0.02811   0.00039   0.00000   0.00619   0.00620  -0.02191
   D20        2.12701   0.00019   0.00000   0.00445   0.00445   2.13146
   D21       -2.20266  -0.00013   0.00000   0.00313   0.00313  -2.19953
   D22       -1.65965  -0.00131   0.00000  -0.00722  -0.00743  -1.66707
   D23        3.14010  -0.00183   0.00000  -0.01415  -0.01392   3.12619
   D24       -1.36462   0.00176   0.00000   0.00809   0.00812  -1.35649
   D25        0.67808   0.00504   0.00000   0.02404   0.02404   0.70212
   D26       -0.47618   0.00302   0.00000   0.01325   0.01359  -0.46260
   D27       -0.33329   0.00058   0.00000   0.00199   0.00197  -0.33131
   D28        2.94335   0.00059   0.00000   0.00356   0.00351   2.94686
   D29        1.77817   0.00124   0.00000   0.00880   0.00881   1.78698
   D30        3.13728  -0.00166   0.00000  -0.01206  -0.01244   3.12484
   D31        0.13073  -0.00165   0.00000  -0.01049  -0.01090   0.11983
   D32       -1.03445  -0.00100   0.00000  -0.00526  -0.00561  -1.04005
   D33        2.04417   0.00026   0.00000   0.00048   0.00052   2.04469
   D34       -0.96239   0.00027   0.00000   0.00204   0.00206  -0.96032
   D35       -2.12756   0.00092   0.00000   0.00728   0.00736  -2.12021
   D36        1.79808  -0.00115   0.00000  -0.01659  -0.01619   1.78189
   D37        1.24423  -0.00504   0.00000  -0.05209  -0.05263   1.19160
   D38       -3.13511   0.00079   0.00000  -0.00146  -0.00125  -3.13636
   D39        2.59423  -0.00310   0.00000  -0.03696  -0.03770   2.55653
   D40        0.00573   0.00294   0.00000   0.01512   0.01543   0.02116
   D41       -0.54811  -0.00096   0.00000  -0.02038  -0.02102  -0.56913
   D42        1.00513   0.00175   0.00000   0.00611   0.00639   1.01152
   D43        0.45128  -0.00215   0.00000  -0.02939  -0.03006   0.42123
   D44        0.73309  -0.00257   0.00000  -0.00526  -0.00544   0.72764
   D45       -1.37175  -0.00162   0.00000   0.00895   0.00823  -1.36351
   D46        2.85821   0.00056   0.00000   0.01300   0.01302   2.87123
   D47       -1.75644   0.00021   0.00000   0.00330   0.00334  -1.75311
   D48       -2.66311  -0.00000   0.00000   0.00184   0.00185  -2.66126
   D49       -0.75651   0.00023   0.00000   0.00497   0.00501  -0.75150
   D50        0.70127  -0.00006   0.00000  -0.00104  -0.00104   0.70023
   D51        2.00116   0.00059   0.00000  -0.00384  -0.00393   1.99723
   D52        0.40772   0.00285   0.00000   0.01554   0.01631   0.42404
   D53       -0.47917  -0.00061   0.00000  -0.00652  -0.00678  -0.48595
   D54       -1.32468  -0.00622   0.00000  -0.03947  -0.04008  -1.36475
   D55        1.24103  -0.00120   0.00000  -0.00097  -0.00104   1.23999
   D56        1.28636   0.00013   0.00000   0.00661   0.00653   1.29289
   D57        0.31916   0.00010   0.00000   0.00609   0.00597   0.32513
   D58       -0.58180  -0.00075   0.00000   0.00519   0.00518  -0.57662
   D59        3.02572  -0.00030   0.00000   0.00590   0.00585   3.03158
   D60        0.09186   0.00013   0.00000   0.00159   0.00159   0.09345
   D61        1.01207   0.00027   0.00000   0.00358   0.00356   1.01563
   D62       -0.92051   0.00010   0.00000   0.00041   0.00040  -0.92011
   D63       -1.11229  -0.00059   0.00000  -0.00300  -0.00306  -1.11535
   D64        2.59003  -0.00038   0.00000   0.00865   0.00877   2.59880
   D65       -2.32626   0.00026   0.00000   0.00417   0.00419  -2.32207
   D66       -0.73050   0.00037   0.00000  -0.00873  -0.00847  -0.73897
   D67        1.42700  -0.00432   0.00000  -0.03309  -0.03307   1.39393
   D68       -2.83235  -0.00098   0.00000  -0.02485  -0.02485  -2.85719
   D69        0.37206  -0.00016   0.00000  -0.00849  -0.00848   0.36358
   D70       -0.05094  -0.00038   0.00000  -0.00538  -0.00539  -0.05633
   D71       -2.19079  -0.00018   0.00000  -0.00363  -0.00363  -2.19442
   D72        2.12247   0.00007   0.00000  -0.00251  -0.00251   2.11997
   D73       -0.83220  -0.00149   0.00000  -0.00386  -0.00413  -0.83632
   D74        0.02227   0.00138   0.00000   0.01382   0.01410   0.03637
   D75        2.38935  -0.00050   0.00000   0.01656   0.01621   2.40556
   D76       -3.03937   0.00238   0.00000   0.03424   0.03444  -3.00494
         Item               Value     Threshold  Converged?
 Maximum Force            0.024967     0.000450     NO 
 RMS     Force            0.003786     0.000300     NO 
 Maximum Displacement     0.135491     0.001800     NO 
 RMS     Displacement     0.018754     0.001200     NO 
 Predicted change in Energy=-1.067487D-02
 GradGradGradGradGradGradGradGradGradGradGradGradGradGradGradGradGradGrad

                          Input orientation:                          
 ---------------------------------------------------------------------
 Center     Atomic      Atomic             Coordinates (Angstroms)
 Number     Number       Type             X           Y           Z
 ---------------------------------------------------------------------
      1         42           0        0.218309    1.036819   11.747717
      2         16           0        0.525825    3.047220   12.729261
      3         16           0       -2.010468    0.420053   12.195880
      4         16           0       -0.051075    1.160713    9.361082
      5         16           0        2.256903    0.030909   11.781127
      6         42           0       -2.200859    1.708912   10.280019
      7         16           0       -3.317984    1.494818    8.167221
      8         16           0       -2.328835    3.821060   11.155431
      9         42           0        0.008569    3.283441   10.385179
     10         16           0       -0.395979    4.088713    7.908981
     11         16           0        2.206108    3.893448    9.734047
     12         42           0        3.175400    1.920276   10.573824
     13         42           0       -2.529452    3.644307    7.409927
     14         16           0        4.704014    2.587799   11.878036
     15         16           0        4.111104    1.044178    8.888778
     16         16           0       -3.748282    5.304137    8.340576
     17         16           0       -2.819011    3.723789    5.312151
     18         42           0       -4.330408    3.295641    9.560076
 ---------------------------------------------------------------------
                    Distance matrix (angstroms):
                    1          2          3          4          5
     1  Mo   0.000000
     2  S    2.258253   0.000000
     3  S    2.355568   3.690431   0.000000
     4  S    2.404983   3.903376   3.524752   0.000000
     5  S    2.273507   3.604680   4.305102   3.529849   0.000000
     6  Mo   2.908302   3.901879   2.316879   2.401362   4.994063
     7  S    5.053225   6.164173   4.369761   3.494227   6.803140
     8  S    3.819784   3.350351   3.570818   3.935139   5.982118
     9  Mo   2.635871   2.412069   3.943874   2.357606   4.193167
    10  S    4.942398   5.016924   5.868828   3.286447   6.204601
    11  S    4.020764   3.537055   5.992045   3.563961   4.371764
    12  Mo   3.301955   3.596687   5.636928   3.529564   2.422999
    13  Mo   5.758959   6.163322   5.794005   4.014672   7.421134
    14  S    4.748059   4.288696   7.062890   5.566193   3.540541
    15  S    4.829849   5.622785   6.985707   4.190512   3.581963
    16  S    6.749256   6.528569   6.460467   5.646125   8.700952
    17  S    7.606683   8.164508   7.678159   5.533956   9.013873
    18  Mo   5.529818   5.804175   4.538567   4.786461   7.680118
                    6          7          8          9         10
     6  Mo   0.000000
     7  S    2.399525   0.000000
     8  S    2.289955   3.913978   0.000000
     9  Mo   2.715101   4.380007   2.519082   0.000000
    10  S    3.813511   3.915749   3.787744   2.635086   0.000000
    11  S    4.948903   6.222858   4.753028   2.371763   3.184314
    12  Mo   5.388428   6.938068   5.852166   3.452916   4.955629
    13  Mo   3.477234   2.411552   3.755035   3.927326   2.235678
    14  S    7.141664   8.906021   7.176632   4.975917   6.634461
    15  S    6.497562   7.477638   7.370319   4.907577   5.526572
    16  S    4.368249   3.837463   3.483928   4.730490   3.591861
    17  S    5.396439   3.656325   5.864610   5.824493   3.570403
    18  Mo   2.751546   2.491589   2.612952   4.416748   4.339909
                   11         12         13         14         15
    11  S    0.000000
    12  Mo   2.353330   0.000000
    13  Mo   5.281016   6.747434   0.000000
    14  S    3.541319   2.117361   8.567568   0.000000
    15  S    3.530132   2.117185   7.283176   3.416134   0.000000
    16  S    6.275872   8.023421   2.259799   9.556852   8.956435
    17  S    6.695802   8.177458   2.119157  10.049737   8.246155
    18  Mo   6.566101   7.697822   2.826332   9.353863   8.762355
                   16         17         18
    16  S    0.000000
    17  S    3.540114   0.000000
    18  Mo   2.420766   4.529073   0.000000
 Symmetry turned off by external request.
 Stoichiometry    Mo6S12
 Framework group  C1[X(Mo6S12)]
 Deg. of freedom    48
 Full point group                 C1      NOp   1
 Rotational constants (GHZ):           0.1595475           0.0589831           0.0508835
 Basis read from rwf:  (5D, 7F)
 Pseudo-potential data read from rwf file.
   348 basis functions,   918 primitive gaussians,   372 cartesian basis functions
   138 alpha electrons      138 beta electrons
       nuclear repulsion energy      4587.4086965153 Hartrees.
 NAtoms=   18 NActive=   18 NUniq=   18 SFac= 1.00D+00 NAtFMM=   60 NAOKFM=F Big=F
 Integral buffers will be    131072 words long.
 Raffenetti 2 integral format.
 Two-electron integral symmetry is turned off.
[...]
 46983,0.1788027,-0.4159118,-0.0431208,-0.0912487,-0.3304485,-0.2568231
 ,-0.1120809,0.057482,-0.0852026,-0.0925529,0.2869099,-0.2240343,0.2788
 992,0.0843981,-0.1563171,-0.1602608,0.1329723,-0.1365495,-0.0916017,0.
 0635023,0.5376891,-0.3861701,0.8481864,0.1046034,0.154149,0.138366,-0.
 1604585,0.772288,-0.6344759,-0.1190899,-0.2495212,-0.0028632,-0.095342
 4,-0.0038477,-0.1732271,-0.0386652,-0.1035285,-0.9413041,0.0391928,0.0
 312095,-0.0361992,-0.2429441,-0.0488664,0.0935513,0.1818773,-0.0229006
 ,1.7592508,-0.2321858,0.3562005,-0.4841912,0.6357565,0.2076416,-0.0170
 36,0.2468621,1.0071733,0.4153773,0.112378,-0.012918,0.0037157,0.226479
 7,0.1353193,0.7019424,-0.1288576,1.7358015,-0.8604384,-0.1653781,-0.57
 51082,-0.3462651,-0.0176373,-0.2228453,-0.7685151,-0.1204546,-0.441370
 7,-0.3412546,0.2209928,0.2951761,0.4338575,-0.225337,-0.2662819,0.7968
 894,-0.4308398,-0.5459015,-0.2437853,0.0817841,0.1603489,0.7997672,-0.
 7348947,0.3093659,-0.0089065,0.1327519,-0.2102254,-0.1499953,0.060563,
 -0.3357994,-0.0409586,-0.0262189,-0.0744125,-0.6169242,0.1986481,-1.57
 27663,0.7352725,0.0351548,0.1316303,-0.5195517,0.9232173,-0.2304364,-0
 .4974595,0.0629875,0.0153353\Polar=723.650685,-89.0043613,381.538265,1
 33.8205852,-74.416396,502.7107857\Quadrupole=-1.6863424,-15.5780657,17
 .264408,-9.3387591,-36.8827021,2.8881739\PG=C01 [X(Mo6S12)]\NImag=0\\0
 .24022751,-0.02045390,0.24065648,0.00994292,-0.01869413,0.21210113,-0.
 01896094,-0.01350886,-0.00637759,0.03463579,-0.00577221,-0.09655726,-0
 .05256871,0.01197563,0.11114103,-0.01055913,-0.06336250,-0.04591896,0.
 01982445,0.05834048,0.14054582,-0.07350216,-0.01935681,0.02158162,-0.0
 0180537,-0.00772092,-0.00071208,0.08694301,-0.03164628,-0.02425415,0.0
 1361990,-0.00191494,-0.00221797,0.00228377,0.04012487,0.06926933,0.036
 59963,0.01250780,-0.02084734,-0.00438894,-0.00190094,0.00435364,-0.038
 83870,-0.06328045,0.09883347,-0.00796873,0.00397570,-0.00132141,0.0056
 1273,-0.00257961,-0.00507624,-0.00116003,-0.00249848,0.00336144,0.1080
 8489,0.00162997,0.00189256,0.01856139,-0.00004820,-0.00056031,0.001947
 25,-0.00152182,-0.00104329,0.00423732,-0.00999190,0.10893684,-0.001513
 33,0.01312890,-0.09437722,-0.00125805,-0.00360770,0.00142001,0.0040852
 9,0.00176643,-0.00379521,-0.02642786,0.02836634,0.14828731,-0.09659879
 ,0.04754111,-0.00672252,0.00224768,0.00844752,0.00426929,-0.00367569,-
 0.00271294,-0.00019221,-0.00353662,0.00040448,-0.00333557,0.12758962,0
 .04906459,-0.04890277,0.00423239,0.00671207,-0.00542135,-0.00067843,0.
 00438578,0.00463790,0.00026696,0.00216007,-0.00004567,0.00302465,-0.04
 614654,0.10125280,-0.01461938,0.00847962,-0.01928702,0.00514227,-0.001
 65661,0.00327137,-0.00093311,-0.00268884,0.00017353,-0.00434041,0.0023
 7348,0.00028615,0.00060724,-0.03132256,0.04072785,-0.02194735,-0.00253
 381,-0.02619224,-0.00252692,-0.00004079,-0.00048494,-0.00955280,-0.000
 94439,0.00654148,-0.08785676,0.01397620,0.03789933,-0.00326501,0.00342
 579,0.00321489,0.24326261,0.01934605,0.00455993,0.00012994,-0.00295025
 ,-0.00117477,-0.00393382,-0.01252839,-0.04244023,0.04265286,0.01085318
 ,-0.00105515,-0.00437398,0.00252187,-0.00010832,-0.00004599,-0.0112863
 4,0.19566406,-0.03589763,-0.00458020,0.00025729,-0.00077662,-0.0010545
 8,-0.00447173,0.01990629,0.04202436,-0.07916412,0.03527970,-0.00504624
 ,-0.02999122,-0.00195357,-0.00009494,0.00187566,0.02697718,0.01379948,
 0.21516537,-0.00133567,-0.00132218,0.00053293,-0.00029876,0.00027027,-
 0.00081215,0.00198762,0.00249605,-0.00028870,-0.00181190,-0.00046843,-
 0.00259892,0.00028502,0.00052106,-0.00019998,-0.04448978,-0.01096790,-
 0.04400313,0.06356380,0.00063818,-0.00152368,0.00147052,-0.00016554,-0
 .00040393,-0.00031457,0.00003304,0.00081972,0.00062607,-0.00109017,0.0
 0018821,0.00068187,0.00002415,0.00038272,-0.00035923,-0.00585997,-0.00
 345954,-0.00728980,0.00795003,0.12580860,0.00053446,0.00128329,-0.0011
 0556,-0.00039058,-0.00017205,0.00034211,-0.00063756,0.00266726,-0.0013
 6616,0.00000700,0.00078158,0.00177086,-0.00037053,-0.00075996,0.000357
 29,-0.03814766,-0.00519817,-0.05835786,0.02556719,0.03272932,0.0981302
 8,-0.00696616,0.00356519,-0.00615619,-0.00666367,0.00556581,-0.0045064
 3,0.00160411,-0.00147771,0.00198901,-0.00261123,-0.00041170,0.00272514
 ,-0.00091751,-0.00189306,0.00021451,-0.00359803,0.00463433,0.00696292,
 0.00208003,0.00276393,-0.00267257,0.07219858,-0.00287856,-0.00513198,-
 0.00430829,0.00022269,0.00291955,-0.00054945,0.00168626,-0.00505360,0.
 00484304,0.00385043,-0.00095106,0.00187509,0.00018923,-0.00037344,-0.0
 0000152,0.01011982,-0.10000081,-0.04752996,0.00277868,-0.00047285,-0.0
 0035516,-0.02054446,0.11486779,-0.00648176,-0.00218022,-0.00205993,-0.
 00335773,0.00248353,0.00057917,-0.00226052,0.00454020,0.00151290,0.001
 27865,-0.00221443,0.00284633,0.00028850,0.00003298,-0.00004398,0.01737
 365,-0.05546285,-0.02564273,-0.00217584,-0.00389942,0.00183658,0.02558
 017,0.04799853,0.10318069,-0.00161521,0.01386842,0.00755242,-0.0089903
 6,-0.01030911,-0.00922495,0.00193858,-0.00353677,0.00189788,-0.0045263
 2,-0.00194269,-0.00273396,-0.00431336,0.00334817,-0.00202420,-0.033129
 30,-0.01290487,-0.00963218,-0.00083722,-0.00034855,-0.00100872,-0.0035
 1593,0.01479286,0.01505665,0.12143170,0.01381041,-0.08016922,0.0243616
 8,0.00156774,-0.00171839,0.00233509,-0.00838426,0.00097030,0.00104104,
 -0.00683399,-0.10127074,-0.04266241,-0.00366647,-0.00087236,0.00097088
 ,-0.02533880,-0.03320062,-0.00449225,0.00273162,0.00292379,-0.00394565
 ,0.00865951,-0.00552619,0.00370774,0.02074969,0.25209403,0.00282854,0.
 05542670,-0.02176458,-0.01218998,-0.00777270,-0.08624322,0.00141756,-0
 .00333453,-0.00070465,0.00183078,-0.05140551,-0.02307330,0.00221296,-0
 .00280140,0.00035847,-0.01681649,0.00366315,-0.00555168,0.00122955,0.0
 0102580,-0.00124685,0.01360739,-0.00290337,-0.01279359,-0.00526016,0.0
 0449674,0.16872424,-0.00332079,0.00187946,-0.00826930,-0.00085694,0.00
 350574,-0.00366655,0.00002642,-0.00002056,0.00070597,0.00113522,-0.003
 96197,-0.00150129,0.00105083,-0.00193167,0.00020957,-0.00129916,-0.005
 36298,0.00523216,-0.00047562,-0.00385125,0.00063946,-0.00390266,0.0012
 1779,-0.00101922,0.00478345,-0.00017716,0.01894416,0.17223337,-0.00062
 080,0.00267312,0.00155082,0.00019527,-0.00084779,0.00231557,-0.0001641
 5,-0.00026200,0.00022114,0.00080707,-0.00510092,0.00535813,0.00021963,
 -0.00042006,-0.00050701,0.00228784,-0.00109254,0.00138897,-0.00031015,
 0.00015044,-0.00080246,0.00052133,0.00011085,0.00000618,-0.00276013,-0
 .01130868,0.00448539,0.03383612,0.02820351,-0.00054937,0.00052983,-0.0
 0846791,-0.00080532,0.00314857,-0.00460911,0.00055674,0.00120276,0.001
 39871,-0.00133135,0.00180563,-0.00159854,-0.00018761,-0.00092062,0.000
 59861,-0.00108437,-0.00281388,-0.00020963,-0.00013527,-0.00198089,0.00
 103880,-0.00121175,0.00194442,-0.00107244,0.00377044,0.00422457,-0.002
 62460,0.02769386,-0.00628699,0.04030846,-0.00439504,0.00050590,0.00222
 904,-0.00290468,-0.00310197,0.00620193,0.00162386,-0.00070911,0.000404
 72,-0.00187383,-0.00200936,-0.00143649,0.01316006,0.00321717,-0.003769
 83,-0.00820832,-0.00610637,-0.00056639,0.00016484,0.00001231,0.0001523
 3,-0.00259789,0.00104557,-0.00056644,-0.05712064,-0.02083146,0.0225712
 6,-0.01029037,0.00244905,-0.00790344,0.10908693,-0.00460029,-0.0023102
 8,0.00347773,-0.00008462,0.00054347,0.00233698,0.00175922,-0.00146951,
 0.00051777,-0.00288027,-0.00247287,-0.00028699,-0.00368176,-0.00070552
 ,0.00129202,0.00188831,0.00676356,-0.00077887,-0.00120082,-0.00032647,
 0.00102205,-0.00109883,0.00182402,-0.00151535,-0.04052153,-0.03320216,
 0.01450294,0.00358765,0.00162467,0.00183698,0.01418394,0.10493595,0.00
 462199,-0.00121279,-0.00220796,0.00722090,0.00475826,-0.00339768,-0.00
 102827,0.00188419,-0.00015774,-0.00150263,0.00151779,0.00120868,-0.001
 66986,0.00133706,0.00042790,0.00181020,-0.00203985,0.00247849,0.000688
 68,-0.00008381,-0.00106955,0.00024857,0.00142165,0.00027215,0.02349232
 ,0.00778672,-0.02148350,-0.00756123,0.00055437,-0.00414501,-0.01701003
 ,-0.03945808,0.04823317,-0.00626048,-0.01007298,0.00850407,0.00071024,
 0.00116191,0.00109457,-0.00222963,0.00183826,-0.00139912,-0.00172467,-
 0.00143151,-0.00296902,-0.02546078,-0.01853077,0.01091969,-0.00221246,
 -0.00208859,0.00086578,0.00109933,0.00049101,-0.00054608,-0.00211969,-
 0.00165612,0.00082792,-0.00414689,0.00851597,-0.00440990,-0.00049268,-
 0.00057831,-0.00025726,-0.02599435,0.02446044,-0.00897710,0.31023699,-
 0.02306300,0.01074872,0.00473881,-0.00257335,-0.00609717,-0.00221655,-
 0.00117002,0.00009941,-0.00155184,-0.00094821,0.00071631,-0.00260681,0
 .00539017,-0.05146961,0.01986061,-0.00311225,-0.00569823,0.00253857,-0
 .00042137,-0.00005742,0.00056731,0.00264317,0.00070881,0.00113332,0.03
 147657,0.01388471,-0.00682703,-0.00276868,0.00076350,-0.00064346,-0.00
 116930,-0.07141875,0.02480195,0.00934727,0.19592076,0.01491266,-0.0032
 4508,0.00083642,-0.00095281,-0.00018668,-0.00663819,-0.00066647,0.0003
 7038,0.00028196,-0.00177284,-0.00283789,-0.00304407,0.00060791,0.02480
 110,-0.02701315,0.00174821,0.00185646,0.00003365,-0.00029677,-0.000052
 25,0.00019204,0.00053062,-0.00126173,-0.00141282,-0.01117513,-0.001572
 44,0.00816831,0.00011763,-0.00065170,-0.00012660,0.00499032,0.01942995
 ,-0.02404502,0.01264905,0.08457830,0.33644234,0.00290423,-0.00242365,0
 .01023133,0.00054064,-0.00252812,0.00331243,-0.00182906,-0.00096169,-0
 .00188689,-0.00256796,0.00683713,-0.00135161,-0.00011575,0.00257128,-0
 .00083381,0.01078959,0.01000165,-0.00600790,-0.02219480,-0.01911052,0.
 00331021,0.00715630,-0.00259246,-0.00269346,-0.00994112,0.00453540,-0.
 02327067,-0.14716275,-0.04246755,-0.01153937,0.00009287,-0.00268406,0.
 00055874,0.00147795,-0.00040154,-0.00037867,0.27333078,-0.00062105,0.0
 0005353,0.00021103,0.00040643,-0.00073422,0.00083912,0.00200746,0.0000
 3633,-0.00036405,0.00274790,0.00021632,0.00203953,0.00032406,-0.000306
 63,0.00057971,0.00109154,0.00020669,0.00887416,-0.02603614,-0.04314656
 ,0.01228862,-0.00132658,-0.00013063,0.00056832,0.00054976,-0.00250091,
 -0.00622793,-0.03646139,-0.01805846,-0.00156317,-0.00150500,0.00005217
 ,-0.00146508,-0.00014197,-0.00082626,0.00130148,0.01601669,0.15863844,
 -0.00077290,0.00265015,-0.00190282,-0.00039380,0.00138411,-0.00004364,
 -0.00217950,0.00056872,-0.00018091,-0.00064905,0.00148670,-0.00083145,
 0.00062607,-0.00125587,-0.00036671,-0.00003909,-0.00254782,0.00135319,
 0.01425074,0.02681339,-0.01601011,-0.00363296,-0.00003157,-0.00800373,
 0.00016172,-0.00369948,0.00018168,-0.02939841,-0.00603848,-0.03391727,
 -0.00013093,0.00155906,-0.00072270,-0.00183602,0.00011198,0.00000081,0
 .02100329,-0.00022599,0.38230402,0.00030976,-0.00160367,-0.00058606,-0
 .00011561,0.00012255,0.00024747,0.00027578,-0.00022870,0.00024748,0.00
 039985,0.00012900,0.00032629,-0.00427254,-0.00490352,0.00235585,-0.000
 04460,0.00045505,-0.00004330,-0.00031296,-0.00011915,0.00003356,0.0001
 7792,0.00025060,0.00005271,0.00206923,0.00095939,-0.00118512,-0.000582
 63,0.00029047,-0.00022473,-0.00675554,0.00600465,-0.00311720,-0.169304
 42,-0.05333409,-0.10565108,0.00017236,-0.00017336,0.00050540,0.1627882
 2,0.00061734,-0.00120023,0.00046472,0.00025935,0.00036641,0.00028502,0
 .00012661,-0.00014552,0.00015130,0.00053325,0.00002365,0.00033222,-0.0
 0677107,-0.00304358,-0.00181103,-0.00008571,0.00069864,-0.00042306,-0.
 00009361,-0.00002877,0.00000025,0.00014376,0.00023418,0.00003715,-0.00
 231600,-0.00061101,0.00053469,0.00021314,0.00000971,0.00000541,0.00550
 565,0.00431519,0.00336665,-0.05144792,-0.03549414,-0.04359454,-0.00003
 424,-0.00010014,0.00033350,0.05561746,0.03787637,-0.00136693,0.0000562
 2,0.00079762,-0.00012626,0.00017979,0.00069483,0.00013343,-0.00039592,
 0.00005491,0.00084956,0.00025218,0.00072272,0.00172991,-0.00216804,0.0
 0415463,0.00050241,0.00071684,-0.00004142,-0.00042483,-0.00008438,0.00
 011654,-0.00009329,-0.00002396,0.00001682,-0.00011035,0.00152374,-0.00
 085675,-0.00021977,0.00017670,-0.00003821,-0.00566062,0.00430490,-0.00
 229389,-0.10526808,-0.04506568,-0.10141816,0.00007548,-0.00010396,0.00
 051167,0.11532624,0.04740901,0.11200655,0.00066360,-0.00083302,-0.0005
 7073,-0.00001958,0.00019743,0.00027314,0.00032379,-0.00002013,0.000246
 06,-0.00144042,0.00018690,0.00014904,-0.00180179,-0.00099390,0.0041224
 2,-0.00023363,-0.00001040,-0.00005744,-0.00004932,-0.00008116,-0.00006
 108,0.00025019,0.00030530,0.00007622,0.00221309,0.00000922,-0.00003712
 ,-0.00021381,0.00021670,-0.00011306,-0.00366851,0.00550567,0.00146460,
 -0.07372014,0.03960179,0.08609801,-0.00004392,-0.00008763,0.00033983,0
 .01508597,-0.00253493,-0.00550097,0.06260669,0.00155147,-0.00009975,-0
 .00112146,-0.00024180,0.00091560,0.00048415,0.00015618,0.00004719,-0.0
 0001262,-0.00006515,-0.00014315,0.00010425,-0.00208565,0.00436755,0.00
 455265,0.00032399,0.00062883,-0.00022434,0.00010280,0.00003612,0.00001
 314,-0.00060839,-0.00025018,0.00015027,-0.00139081,-0.00139837,0.00074
 913,0.00027142,-0.00015476,0.00014711,0.00721440,-0.00685482,-0.004878
 32,0.03969420,-0.05107113,-0.07800445,0.00010348,0.00011671,-0.0003171
 6,-0.00345280,-0.00280083,-0.00672736,-0.04144830,0.05662223,-0.000026
 72,0.00210760,-0.00032073,-0.00101049,0.00016281,0.00079527,0.00003565
 ,-0.00026920,0.00009516,0.00025170,0.00010316,-0.00007525,0.00442223,0
 .00333986,-0.00538878,-0.00007268,-0.00025523,0.00011455,0.00042244,0.
 00009769,0.00008633,-0.00059158,0.00016410,0.00020454,0.00096685,-0.00
 145536,-0.00047976,0.00054228,0.00004417,0.00032217,0.00144969,-0.0047
 2271,0.00590650,0.08665151,-0.07700768,-0.18237845,0.00021436,-0.00011
 278,-0.00073337,-0.00737548,-0.00679672,-0.01363504,-0.08578136,0.0844
 2594,0.19419883,-0.00066155,0.00034053,-0.00214024,0.00011475,0.000027
 20,-0.00009539,0.00043643,-0.00028222,0.00046108,0.00046144,-0.0013895
 1,0.00056039,0.00022327,-0.00040214,0.00026115,0.00695172,-0.00327114,
 -0.00032638,-0.00092123,-0.00085318,0.00256464,-0.00080426,0.00219035,
 -0.00134862,0.00055544,0.00004015,0.00270948,-0.01195681,0.00651582,0.
 00020438,-0.00006197,-0.00003169,-0.00043758,-0.00010563,0.00015651,0.
 00032911,-0.02867575,0.03986779,0.01783064,-0.00008308,-0.00006070,-0.
 00007607,0.00003709,0.00000099,-0.00000886,0.04532258,-0.00067460,0.00
 091395,-0.00283793,-0.00053825,0.00092700,0.00066659,-0.00011356,-0.00
 073948,0.00058338,-0.00118349,0.00119462,0.00100050,-0.00037995,-0.001
 30069,0.00023329,0.00108503,-0.00676156,-0.00032485,0.00494481,-0.0007
 5629,0.00229671,-0.00221877,0.00179786,0.00345620,0.00367687,-0.001428
 24,-0.00181114,0.00410931,0.00366195,0.00082377,0.00092075,0.00072243,
 0.00069770,-0.00175777,0.00148671,-0.00061078,0.04097806,-0.08020655,-
 0.03668955,0.00055194,0.00029868,0.00048463,0.00018835,-0.00041388,-0.
 00055511,-0.02174893,0.17401840,-0.00087146,-0.00118074,0.00163664,0.0
 0040271,-0.00005550,-0.00028618,0.00028935,-0.00008808,0.00042263,-0.0
 0058116,0.00003904,0.00140175,0.00007875,0.00032307,-0.00031167,-0.000
 28296,0.00252022,-0.00433384,-0.00076981,-0.00179907,0.00534048,-0.000
 96495,0.00264466,-0.00356939,-0.00096618,0.00143744,-0.00238708,0.0052
 1953,0.00213371,0.00178241,0.00031565,-0.00063475,0.00062064,0.0005908
 4,0.00028359,-0.00026411,0.00791370,-0.02705611,-0.01821983,-0.0000286
 5,-0.00003831,-0.00016438,0.00002683,-0.00000674,0.00011201,-0.0261083
 2,-0.02763210,0.06564459,-0.00006666,-0.00018004,0.00008410,0.00004827
 ,-0.00000249,-0.00028036,-0.00003938,0.00022387,-0.00031680,0.00021418
 ,-0.00027545,-0.00017461,-0.00000516,0.00012166,-0.00002922,-0.0000774
 3,-0.00040721,0.00159086,0.00074940,-0.00036034,0.00156843,0.00004454,
 -0.00005963,0.00043961,-0.00004128,-0.00009134,0.00058555,0.00101704,0
 .00136431,-0.00718620,-0.00026493,-0.00029192,0.00016200,0.00036118,-0
 .00015791,-0.00003783,-0.03325947,0.00107402,-0.04421854,-0.00010718,-
 0.00004391,-0.00009983,-0.00007108,0.00011692,0.00015234,0.00106830,-0
 .00052486,0.00426531,0.02358024,0.00047326,-0.00042577,0.00018159,-0.0
 0008393,0.00010966,-0.00006845,-0.00013178,-0.00009009,-0.00002585,-0.
 00013805,-0.00026232,-0.00017658,-0.00019407,0.00023754,0.00000492,0.0
 0044924,0.00082838,-0.00195171,0.00178570,-0.00019118,0.00227175,0.000
 25155,0.00005560,-0.00003988,0.00039544,0.00110177,0.00053925,0.001593
 80,-0.00054872,-0.00168622,-0.00013298,-0.00024351,0.00038566,0.000078
 79,-0.00000302,-0.00013923,0.00066771,-0.01547093,0.01010047,0.0000001
 6,0.00000026,0.00000013,-0.00004059,0.00003222,0.00005903,-0.00351278,
 0.00165833,-0.00437782,-0.00117345,0.01020189,0.00053829,-0.00101811,0
 .00053529,0.00011793,0.00001978,-0.00049463,0.00030812,0.00000066,-0.0
 0041309,-0.00008521,-0.00022306,-0.00000280,-0.00055224,0.00057400,0.0
 0006456,0.00009427,0.00113713,-0.00266891,0.00066474,0.00109207,-0.000
 91351,0.00094816,0.00022110,0.00066410,0.00056975,0.00084696,0.0013586
 6,-0.01351304,-0.00306917,0.00266229,-0.00045187,-0.00038933,0.0001089
 3,0.00139776,-0.00057584,-0.00026966,-0.04752290,0.00985022,-0.2539952
 3,-0.00043798,-0.00017483,-0.00039032,-0.00035425,0.00038503,0.0007764
 4,0.00330994,-0.00458680,-0.00553494,0.04809910,-0.00412520,0.26462306
 ,-0.00050557,0.00061260,-0.00232214,-0.00076727,0.00078117,0.00019493,
 -0.00136549,0.00227088,-0.00514340,0.00117017,0.00028886,-0.00044479,-
 0.00059349,-0.00072603,-0.00029764,-0.04256235,0.02007232,0.00244966,0
 .00279723,0.01992720,0.00945750,-0.04981465,-0.01091834,-0.04107050,-0
 .00481385,0.00374436,-0.00476778,0.00030789,-0.00180253,0.00030368,0.0
 0000751,-0.00031409,0.00103590,-0.00011388,0.00050425,-0.00105192,-0.0
 5067415,0.00226747,0.02853352,0.00029949,0.00037154,0.00032996,0.00008
 179,-0.00024294,-0.00024191,-0.01190073,-0.02731494,0.01147082,0.00684
 942,-0.00028801,0.00686945,0.15159794,0.00319943,-0.00092320,0.0065300
 1,0.00077056,-0.00118955,-0.00071025,0.00081228,0.00183566,-0.00051292
 ,0.00328172,-0.00026303,-0.00396343,0.00057623,0.00209148,0.00004560,0
 .01455430,-0.01435831,0.00516526,0.01723957,-0.07994291,-0.04468783,0.
 00083093,-0.00462793,0.00119772,-0.01282730,0.00223231,-0.00234017,0.0
 0432124,0.00059618,0.00022616,0.00051081,-0.00177756,0.00062594,0.0021
 1809,-0.00219319,-0.00018090,-0.00850758,0.00216110,0.00579784,-0.0005
 6597,-0.00039883,-0.00053482,-0.00016130,0.00042043,0.00067042,-0.0175
 8703,-0.09507325,0.05348751,0.00066776,0.00300989,0.00003541,-0.009233
 75,0.18840070,0.00268010,-0.00069633,0.00209564,-0.00068009,-0.0015018
 5,0.00010115,-0.00105785,-0.00087161,-0.00049769,0.00022934,0.00025528
 ,-0.00115476,0.00014125,0.00206976,0.00011528,-0.01304120,0.01019552,-
 0.01084507,0.00834914,-0.04867330,-0.02914173,-0.03297678,-0.00414760,
 -0.05651467,-0.01133220,0.00509499,0.00041820,0.00584421,-0.00087933,0
 .00869787,-0.00081892,-0.00249431,0.00026658,0.00216141,-0.00211954,0.
 00065471,0.04886574,0.00056689,-0.04942361,-0.00044541,-0.00008142,-0.
 00023812,-0.00032014,0.00028077,0.00039957,0.00231063,0.06480548,-0.04
 188974,-0.00460390,-0.00095186,-0.00611025,-0.00530533,-0.02085155,0.1
 8306663\\-0.00002513,0.00005892,0.00001842,0.00002384,-0.00001792,0.00
 001738,-0.00000514,0.00000605,-0.00000305,-0.00001386,0.00001355,-0.00
 002065,0.00000504,-0.00002108,-0.00000983,0.00002794,-0.00009259,0.000
 01094,-0.00003204,-0.00002902,0.00001036,0.00005558,0.00003252,-0.0000
 2217,-0.00006814,-0.00001234,0.00003162,0.00000158,-0.00000715,-0.0000
 3008,-0.00000025,0.00002918,-0.00001255,-0.00000390,-0.00000204,0.0000
 1042,0.00003776,0.00002357,-0.00003323,-0.00000101,0.00000030,-0.00000
 086,-0.00000207,-0.00000164,0.00000149,-0.00001176,0.00003577,0.000025
 05,0.00001493,-0.00000662,0.00000327,-0.00000337,-0.00000946,0.0000034
 8\\\@
 The archive entry for this job was punched.


 MOST BUREAUCRACIES FUNCTION LIKE A SEPTIC TANK.
 THE LARGE CHUNKS RISE TO THE TOP.
 Job cpu time:       0 days  1 hours 58 minutes 20.8 seconds.
 Elapsed time:       0 days  0 hours  2 minutes 35.7 seconds.
 File lengths (MBytes):  RWF=    407 Int=      0 D2E=      0 Chk=     12 Scr=      2
 Normal termination of Gaussian 16 at Fri Dec  9 13:15:52 2022.
