 Entering Gaussian System, Link 0=g16
 Initial command:
 /home/chesagar/softwares/G16_AVX2//g16/l1.exe "/home/chesagar/scratch/Gau-25617.inp" -scrdir="/home/chesagar/scratch/"
 Entering Link 1 = /home/chesagar/softwares/G16_AVX2//g16/l1.exe PID=     25618.
  
 Copyright (c) 1988-2019, Gaussian, Inc.  All Rights Reserved.
  
 This is part of the Gaussian(R) 16 program.  It is based on
 the Gaussian(R) 09 system (copyright 2009, Gaussian, Inc.),
 the Gaussian(R) 03 system (copyright 2003, Gaussian, Inc.),
 the Gaussian(R) 98 system (copyright 1998, Gaussian, Inc.),
 the Gaussian(R) 94 system (copyright 1995, Gaussian, Inc.),
 the Gaussian 92(TM) system (copyright 1992, Gaussian, Inc.),
 the Gaussian 90(TM) system (copyright 1990, Gaussian, Inc.),
 the Gaussian 88(TM) system (copyright 1988, Gaussian, Inc.),
 the Gaussian 86(TM) system (copyright 1986, Carnegie Mellon
 University), and the Gaussian 82(TM) system (copyright 1983,
 Carnegie Mellon University). Gaussian is a federally registered
 trademark of Gaussian, Inc.
  
 This software contains proprietary and confidential information,
 including trade secrets, belonging to Gaussian, Inc.
  
 This software is provided under written license and may be
 used, copied, transmitted, or stored only in accord with that
 written license.
  
 The following legend is applicable only to US Government
 contracts under FAR:
  
                    RESTRICTED RIGHTS LEGEND
  
 Use, reproduction and disclosure by the US Government is
 subject to restrictions as set forth in subparagraphs (a)
 and (c) of the Commercial Computer Software - Restricted
 Rights clause in FAR 52.227-19.
  
 Gaussian, Inc.
 340 Quinnipiac St., Bldg. 40, Wallingford CT 06492
  
  
 ---------------------------------------------------------------
 Warning -- This program may not be used in any manner that
 competes with the business of Gaussian, Inc. or will provide
 assistance to any competitor of Gaussian, Inc.  The licensee
 of this program is prohibited from giving any competitor of
 Gaussian, Inc. access to this program.  By using this program,
 the user acknowledges that Gaussian, Inc. is engaged in the
 business of creating and licensing software in the field of
 computational chemistry and represents and warrants to the
 licensee that it is not a competitor of Gaussian, Inc. and that
 it will not use this program in any manner prohibited above.
 ---------------------------------------------------------------
  

 Cite this work as:
 Gaussian 16, Revision C.01,
 M. J. Frisch, G. W. Trucks, H. B. Schlegel, G. E. Scuseria, 
 M. A. Robb, J. R. Cheeseman, G. Scalmani, V. Barone, 
 G. A. Petersson, H. Nakatsuji, X. Li, M. Caricato, A. V. Marenich, 
 J. Bloino, B. G. Janesko, R. Gomperts, B. Mennucci, H. P. Hratchian, 
 J. V. Ortiz, A. F. Izmaylov, J. L. Sonnenberg, D. Williams-Young, 
 F. Ding, F. Lipparini, F. Egidi, J. Goings, B. Peng, A. Petrone, 
 T. Henderson, D. Ranasinghe, V. G. Zakrzewski, J. Gao, N. Rega, 
 G. Zheng, W. Liang, M. Hada, M. Ehara, K. Toyota, R. Fukuda, 
 J. Hasegawa, M. Ishida, T. Nakajima, Y. Honda, O. Kitao, H. Nakai, 
 T. Vreven, K. Throssell, J. A. Montgomery, Jr., J. E. Peralta, 
 F. Ogliaro, M. J. Bearpark, J. J. Heyd, E. N. Brothers, K. N. Kudin, 
 V. N. Staroverov, T. A. Keith, R. Kobayashi, J. Normand, 
 K. Raghavachari, A. P. Rendell, J. C. Burant, S. S. Iyengar, 
 J. Tomasi, M. Cossi, J. M. Millam, M. Klene, C. Adamo, R. Cammi, 
 J. W. Ochterski, R. L. Martin, K. Morokuma, O. Farkas, 
 J. B. Foresman, and D. J. Fox, Gaussian, Inc., Wallingford CT, 2019.
 
 ******************************************
 Gaussian 16:  ES64L-G16RevC.01  3-Jul-2019
                 9-Dec-2022 
 ******************************************
 %nprocshared=46
 Will use up to   46 processors via shared memory.
 %mem=100GB
 ---------------------------------------
 # opt freq b3lyp/gen nosymm pseudo=read
 ---------------------------------------
 1/18=20,19=15,26=3,38=1/1,3;
 2/9=110,12=2,15=1,17=6,18=5,40=1/2;
 3/5=7,11=2,16=1,17=8,25=1,30=1,71=1,74=-5/1,2,3;
 4//1;
 5/5=2,38=5/2;
 6/7=2,8=2,9=2,10=2,28=1/1;
 7/30=1/1,2,3,16;
 1/18=20,19=15,26=3/3(2);
 2/9=110,15=1/2;
 99//99;
 2/9=110,15=1/2;
 3/5=7,6=1,11=2,16=1,17=8,25=1,30=1,71=1,74=-5,82=7/1,2,3;
 4/5=5,16=3,69=1/1;
 5/5=2,38=5/2;
 7/30=1/1,2,3,16;
 1/18=20,19=15,26=3/3(-5);
 2/9=110,15=1/2;
 6/7=2,8=2,9=2,10=2,19=2,28=1/1;
 99/9=1/99;
 -------------------
 Title Card Required
 -------------------
 Symbolic Z-matrix:
 Charge =  0 Multiplicity = 1
 42                    0.18706   1.10546   11.78824 
 16                    0.60477   3.13503   12.74592 
 16                   -2.03308   0.54163   12.32388 
 16                   -0.11929   1.19052   9.41016 
 16                    2.14858  -0.03195   11.76817 
 42                   -2.21243   1.79932   10.38565 
 16                   -3.57455   1.70341   8.42676 
 16                   -2.31222   3.92158   11.26147 
 42                    0.15506   3.30898   10.41504 
 16                   -0.33999   3.99765   7.81832 
 16                    2.28869   3.93471   9.72195 
 42                    3.07893   1.83332   10.48015 
 42                   -2.47877   3.60566   7.4309 
 16                    4.74207   2.35763   11.68467 
 16                    3.81426   0.89597   8.72689 
 16                   -3.56481   5.46671   8.28647 
 16                   -2.92463   3.55136   5.35978 
 42                   -4.08043   3.7459    9.66816 
 16                   -6.34445   2.6279    9.99349 
 1                    -7.19329   3.62752   10.30487 
 1                    -6.84677   2.53352   8.75579 
 

 GradGradGradGradGradGradGradGradGradGradGradGradGradGradGradGradGradGrad
 Berny optimization.
 Initialization pass.
                           ----------------------------
                           !    Initial Parameters    !
                           ! (Angstroms and Degrees)  !
 --------------------------                            --------------------------
 ! Name  Definition              Value          Derivative Info.                !
 --------------------------------------------------------------------------------
 ! R1    R(1,2)                  2.2827         estimate D2E/DX2                !
 ! R2    R(1,3)                  2.3524         estimate D2E/DX2                !
 ! R3    R(1,4)                  2.3992         estimate D2E/DX2                !
 ! R4    R(1,5)                  2.2675         estimate D2E/DX2                !
 ! R5    R(1,6)                  2.8647         estimate D2E/DX2                !
 ! R6    R(1,9)                  2.5966         estimate D2E/DX2                !
 ! R7    R(2,9)                  2.3802         estimate D2E/DX2                !
 ! R8    R(3,6)                  2.3175         estimate D2E/DX2                !
 ! R9    R(4,6)                  2.3882         estimate D2E/DX2                !
 ! R10   R(4,9)                  2.3607         estimate D2E/DX2                !
 ! R11   R(5,12)                 2.4503         estimate D2E/DX2                !
 ! R12   R(6,7)                  2.3878         estimate D2E/DX2                !
 ! R13   R(6,8)                  2.298          estimate D2E/DX2                !
 ! R14   R(6,9)                  2.808          estimate D2E/DX2                !
 ! R15   R(6,18)                 2.7917         estimate D2E/DX2                !
 ! R16   R(7,13)                 2.4106         estimate D2E/DX2                !
 ! R17   R(7,18)                 2.4431         estimate D2E/DX2                !
 ! R18   R(8,9)                  2.6794         estimate D2E/DX2                !
 ! R19   R(8,18)                 2.3866         estimate D2E/DX2                !
 ! R20   R(9,10)                 2.7317         estimate D2E/DX2                !
 ! R21   R(9,11)                 2.329          estimate D2E/DX2                !
 ! R22   R(10,13)                2.2086         estimate D2E/DX2                !
 ! R23   R(11,12)                2.3696         estimate D2E/DX2                !
 ! R24   R(12,14)                2.1194         estimate D2E/DX2                !
 ! R25   R(12,15)                2.1197         estimate D2E/DX2                !
 ! R26   R(13,16)                2.3184         estimate D2E/DX2                !
 ! R27   R(13,17)                2.1193         estimate D2E/DX2                !
 ! R28   R(13,18)                2.7551         estimate D2E/DX2                !
 ! R29   R(16,18)                2.2663         estimate D2E/DX2                !
 ! R30   R(18,19)                2.5459         estimate D2E/DX2                !
 ! R31   R(19,20)                1.3479         estimate D2E/DX2                !
 ! R32   R(19,21)                1.3391         estimate D2E/DX2                !
 ! A1    A(2,1,3)              106.8746         estimate D2E/DX2                !
 ! A2    A(2,1,4)              114.059          estimate D2E/DX2                !
 ! A3    A(2,1,5)              106.9417         estimate D2E/DX2                !
 ! A4    A(2,1,6)               98.2411         estimate D2E/DX2                !
 ! A5    A(3,1,4)               96.5277         estimate D2E/DX2                !
 ! A6    A(3,1,5)              134.2827         estimate D2E/DX2                !
 ! A7    A(3,1,9)              108.1911         estimate D2E/DX2                !
 ! A8    A(4,1,5)               96.861          estimate D2E/DX2                !
 ! A9    A(5,1,6)              147.3246         estimate D2E/DX2                !
 ! A10   A(5,1,9)              115.5727         estimate D2E/DX2                !
 ! A11   A(1,5,12)              87.2059         estimate D2E/DX2                !
 ! A12   A(1,6,7)              150.4292         estimate D2E/DX2                !
 ! A13   A(1,6,8)               94.2126         estimate D2E/DX2                !
 ! A14   A(1,6,18)             148.7828         estimate D2E/DX2                !
 ! A15   A(3,6,4)               97.7845         estimate D2E/DX2                !
 ! A16   A(3,6,7)              135.1096         estimate D2E/DX2                !
 ! A17   A(3,6,8)              100.7075         estimate D2E/DX2                !
 ! A18   A(3,6,9)              102.5778         estimate D2E/DX2                !
 ! A19   A(3,6,18)             130.1768         estimate D2E/DX2                !
 ! A20   A(4,6,7)               98.896          estimate D2E/DX2                !
 ! A21   A(4,6,8)              115.4138         estimate D2E/DX2                !
 ! A22   A(4,6,18)             131.242          estimate D2E/DX2                !
 ! A23   A(7,6,8)              108.9639         estimate D2E/DX2                !
 ! A24   A(7,6,9)              120.7392         estimate D2E/DX2                !
 ! A25   A(9,6,18)             101.0679         estimate D2E/DX2                !
 ! A26   A(6,7,13)              92.7456         estimate D2E/DX2                !
 ! A27   A(9,8,18)             117.0329         estimate D2E/DX2                !
 ! A28   A(1,9,8)               92.1953         estimate D2E/DX2                !
 ! A29   A(1,9,10)             135.9628         estimate D2E/DX2                !
 ! A30   A(1,9,11)             111.9679         estimate D2E/DX2                !
 ! A31   A(2,9,4)              111.9141         estimate D2E/DX2                !
 ! A32   A(2,9,6)               97.4845         estimate D2E/DX2                !
 ! A33   A(2,9,8)               83.1852         estimate D2E/DX2                !
 ! A34   A(2,9,11)              97.93           estimate D2E/DX2                !
 ! A35   A(4,9,8)              103.4519         estimate D2E/DX2                !
 ! A36   A(4,9,10)              78.4945         estimate D2E/DX2                !
 ! A37   A(4,9,11)             102.7611         estimate D2E/DX2                !
 ! A38   A(6,9,10)              88.441          estimate D2E/DX2                !
 ! A39   A(6,9,11)             156.0242         estimate D2E/DX2                !
 ! A40   A(8,9,10)              94.3459         estimate D2E/DX2                !
 ! A41   A(8,9,11)             151.1835         estimate D2E/DX2                !
 ! A42   A(10,9,11)             79.3626         estimate D2E/DX2                !
 ! A43   A(9,10,13)            107.3069         estimate D2E/DX2                !
 ! A44   A(9,11,12)             88.3976         estimate D2E/DX2                !
 ! A45   A(5,12,11)            135.7789         estimate D2E/DX2                !
 ! A46   A(5,12,14)            100.8083         estimate D2E/DX2                !
 ! A47   A(5,12,15)            103.2896         estimate D2E/DX2                !
 ! A48   A(11,12,14)           102.9534         estimate D2E/DX2                !
 ! A49   A(11,12,15)           104.0745         estimate D2E/DX2                !
 ! A50   A(14,12,15)           107.8935         estimate D2E/DX2                !
 ! A51   A(7,13,10)            120.5158         estimate D2E/DX2                !
 ! A52   A(7,13,16)            105.5483         estimate D2E/DX2                !
 ! A53   A(7,13,17)            106.731          estimate D2E/DX2                !
 ! A54   A(10,13,16)           104.2659         estimate D2E/DX2                !
 ! A55   A(10,13,17)           112.3154         estimate D2E/DX2                !
 ! A56   A(10,13,18)           114.2982         estimate D2E/DX2                !
 ! A57   A(16,13,17)           106.4193         estimate D2E/DX2                !
 ! A58   A(17,13,18)           132.2683         estimate D2E/DX2                !
 ! A59   A(6,18,13)             77.5378         estimate D2E/DX2                !
 ! A60   A(6,18,16)            122.2691         estimate D2E/DX2                !
 ! A61   A(6,18,19)            104.833          estimate D2E/DX2                !
 ! A62   A(7,18,8)             104.3206         estimate D2E/DX2                !
 ! A63   A(7,18,16)            106.1347         estimate D2E/DX2                !
 ! A64   A(7,18,19)             83.2196         estimate D2E/DX2                !
 ! A65   A(8,18,13)             96.6126         estimate D2E/DX2                !
 ! A66   A(8,18,16)            100.5186         estimate D2E/DX2                !
 ! A67   A(8,18,19)            127.2912         estimate D2E/DX2                !
 ! A68   A(13,18,19)           126.7557         estimate D2E/DX2                !
 ! A69   A(16,18,19)           127.856          estimate D2E/DX2                !
 ! A70   A(18,19,20)           105.3001         estimate D2E/DX2                !
 ! A71   A(18,19,21)           104.2665         estimate D2E/DX2                !
 ! A72   A(20,19,21)            91.6939         estimate D2E/DX2                !
 ! A73   L(2,9,10,4,-1)        190.4086         estimate D2E/DX2                !
 ! A74   L(2,9,10,4,-2)        179.7441         estimate D2E/DX2                !
 ! D1    D(2,1,5,12)           -57.6276         estimate D2E/DX2                !
 ! D2    D(3,1,5,12)           166.2394         estimate D2E/DX2                !
 ! D3    D(4,1,5,12)            60.1408         estimate D2E/DX2                !
 ! D4    D(6,1,5,12)            81.1784         estimate D2E/DX2                !
 ! D5    D(9,1,5,12)             4.4098         estimate D2E/DX2                !
 ! D6    D(2,1,6,7)            137.4149         estimate D2E/DX2                !
 ! D7    D(2,1,6,8)             -4.7804         estimate D2E/DX2                !
 ! D8    D(2,1,6,18)             2.9126         estimate D2E/DX2                !
 ! D9    D(5,1,6,7)             -3.0462         estimate D2E/DX2                !
 ! D10   D(5,1,6,8)           -145.2415         estimate D2E/DX2                !
 ! D11   D(5,1,6,18)          -137.5485         estimate D2E/DX2                !
 ! D12   D(3,1,9,8)             18.8989         estimate D2E/DX2                !
 ! D13   D(3,1,9,10)           -79.6548         estimate D2E/DX2                !
 ! D14   D(3,1,9,11)          -177.1718         estimate D2E/DX2                !
 ! D15   D(5,1,9,8)           -174.6924         estimate D2E/DX2                !
 ! D16   D(5,1,9,10)            86.7539         estimate D2E/DX2                !
 ! D17   D(5,1,9,11)           -10.7631         estimate D2E/DX2                !
 ! D18   D(1,4,6,9)             69.547          estimate D2E/DX2                !
 ! D19   D(1,5,12,11)            3.1642         estimate D2E/DX2                !
 ! D20   D(1,5,12,14)          124.7237         estimate D2E/DX2                !
 ! D21   D(1,5,12,15)         -123.7766         estimate D2E/DX2                !
 ! D22   D(1,6,7,13)           -86.6259         estimate D2E/DX2                !
 ! D23   D(3,6,7,13)          -178.3385         estimate D2E/DX2                !
 ! D24   D(4,6,7,13)           -67.7667         estimate D2E/DX2                !
 ! D25   D(8,6,7,13)            53.1034         estimate D2E/DX2                !
 ! D26   D(9,6,7,13)           -15.4069         estimate D2E/DX2                !
 ! D27   D(3,6,9,2)            -21.287          estimate D2E/DX2                !
 ! D28   D(3,6,9,10)           167.3045         estimate D2E/DX2                !
 ! D29   D(3,6,9,11)           108.3445         estimate D2E/DX2                !
 ! D30   D(7,6,9,2)            170.9667         estimate D2E/DX2                !
 ! D31   D(7,6,9,10)            -0.4417         estimate D2E/DX2                !
 ! D32   D(7,6,9,11)           -59.4018         estimate D2E/DX2                !
 ! D33   D(18,6,9,2)           114.5354         estimate D2E/DX2                !
 ! D34   D(18,6,9,10)          -56.873          estimate D2E/DX2                !
 ! D35   D(18,6,9,11)         -115.8331         estimate D2E/DX2                !
 ! D36   D(1,6,18,13)           99.4244         estimate D2E/DX2                !
 ! D37   D(1,6,18,16)           67.9179         estimate D2E/DX2                !
 ! D38   D(1,6,18,19)         -135.445          estimate D2E/DX2                !
 ! D39   D(3,6,18,13)         -178.418          estimate D2E/DX2                !
 ! D40   D(3,6,18,16)          150.0755         estimate D2E/DX2                !
 ! D41   D(3,6,18,19)          -53.2874         estimate D2E/DX2                !
 ! D42   D(4,6,18,13)           14.1489         estimate D2E/DX2                !
 ! D43   D(4,6,18,16)          -17.3576         estimate D2E/DX2                !
 ! D44   D(4,6,18,19)          139.2795         estimate D2E/DX2                !
 ! D45   D(9,6,18,13)           64.4797         estimate D2E/DX2                !
 ! D46   D(9,6,18,16)           32.9732         estimate D2E/DX2                !
 ! D47   D(9,6,18,19)         -170.3897         estimate D2E/DX2                !
 ! D48   D(6,7,13,10)           32.2502         estimate D2E/DX2                !
 ! D49   D(6,7,13,16)          -85.1951         estimate D2E/DX2                !
 ! D50   D(6,7,13,17)          161.8498         estimate D2E/DX2                !
 ! D51   D(18,8,9,1)          -108.492          estimate D2E/DX2                !
 ! D52   D(18,8,9,2)          -162.2364         estimate D2E/DX2                !
 ! D53   D(18,8,9,4)           -51.2657         estimate D2E/DX2                !
 ! D54   D(18,8,9,10)           27.9273         estimate D2E/DX2                !
 ! D55   D(18,8,9,11)          103.6903         estimate D2E/DX2                !
 ! D56   D(9,8,18,7)            40.6562         estimate D2E/DX2                !
 ! D57   D(9,8,18,13)          -14.7049         estimate D2E/DX2                !
 ! D58   D(9,8,18,16)          -69.1665         estimate D2E/DX2                !
 ! D59   D(9,8,18,19)          133.0202         estimate D2E/DX2                !
 ! D60   D(1,9,10,13)           66.9563         estimate D2E/DX2                !
 ! D61   D(4,9,10,13)           72.1264         estimate D2E/DX2                !
 ! D62   D(6,9,10,13)           18.3949         estimate D2E/DX2                !
 ! D63   D(8,9,10,13)          -30.7363         estimate D2E/DX2                !
 ! D64   D(11,9,10,13)         177.6472         estimate D2E/DX2                !
 ! D65   D(1,9,11,12)            9.077          estimate D2E/DX2                !
 ! D66   D(2,9,11,12)           63.7886         estimate D2E/DX2                !
 ! D67   D(4,9,11,12)          -50.9141         estimate D2E/DX2                !
 ! D68   D(6,9,11,12)          -65.7699         estimate D2E/DX2                !
 ! D69   D(8,9,11,12)          154.0548         estimate D2E/DX2                !
 ! D70   D(10,9,11,12)        -126.3995         estimate D2E/DX2                !
 ! D71   D(9,10,13,7)          -36.5987         estimate D2E/DX2                !
 ! D72   D(9,10,13,16)          81.495          estimate D2E/DX2                !
 ! D73   D(9,10,13,17)        -163.6937         estimate D2E/DX2                !
 ! D74   D(9,10,13,18)          26.8782         estimate D2E/DX2                !
 ! D75   D(9,11,12,5)           -8.9039         estimate D2E/DX2                !
 ! D76   D(9,11,12,14)        -129.7178         estimate D2E/DX2                !
 ! D77   D(9,11,12,15)         117.7815         estimate D2E/DX2                !
 ! D78   D(10,13,18,6)         -57.3217         estimate D2E/DX2                !
 ! D79   D(10,13,18,8)          -8.6757         estimate D2E/DX2                !
 ! D80   D(10,13,18,19)       -156.6547         estimate D2E/DX2                !
 ! D81   D(17,13,18,6)         135.9379         estimate D2E/DX2                !
 ! D82   D(17,13,18,8)        -175.4162         estimate D2E/DX2                !
 ! D83   D(17,13,18,19)         36.6049         estimate D2E/DX2                !
 ! D84   D(6,18,19,20)         150.5087         estimate D2E/DX2                !
 ! D85   D(6,18,19,21)        -113.684          estimate D2E/DX2                !
 ! D86   D(7,18,19,20)        -159.8123         estimate D2E/DX2                !
 ! D87   D(7,18,19,21)         -64.005          estimate D2E/DX2                !
 ! D88   D(8,18,19,20)          97.3288         estimate D2E/DX2                !
 ! D89   D(8,18,19,21)        -166.864          estimate D2E/DX2                !
 ! D90   D(13,18,19,20)       -124.1275         estimate D2E/DX2                !
 ! D91   D(13,18,19,21)        -28.3203         estimate D2E/DX2                !
 ! D92   D(16,18,19,20)        -54.6215         estimate D2E/DX2                !
 ! D93   D(16,18,19,21)         41.1858         estimate D2E/DX2                !
 --------------------------------------------------------------------------------
 Trust Radius=3.00D-01 FncErr=1.00D-07 GrdErr=1.00D-06 EigMax=2.50D+02 EigMin=1.00D-04
 Number of steps in this run=    126 maximum allowed number of steps=    126.
 GradGradGradGradGradGradGradGradGradGradGradGradGradGradGradGradGradGrad

                          Input orientation:                          
 ---------------------------------------------------------------------
 Center     Atomic      Atomic             Coordinates (Angstroms)
 Number     Number       Type             X           Y           Z
 ---------------------------------------------------------------------
      1         42           0        0.187055    1.105462   11.788243
      2         16           0        0.604774    3.135027   12.745916
      3         16           0       -2.033079    0.541633   12.323882
      4         16           0       -0.119287    1.190521    9.410161
      5         16           0        2.148583   -0.031951   11.768171
      6         42           0       -2.212427    1.799318   10.385645
      7         16           0       -3.574553    1.703406    8.426759
      8         16           0       -2.312222    3.921578   11.261466
      9         42           0        0.155055    3.308981   10.415039
     10         16           0       -0.339993    3.997649    7.818319
     11         16           0        2.288694    3.934711    9.721951
     12         42           0        3.078926    1.833322   10.480147
     13         42           0       -2.478766    3.605656    7.430897
     14         16           0        4.742074    2.357628   11.684667
     15         16           0        3.814256    0.895973    8.726893
     16         16           0       -3.564807    5.466705    8.286473
     17         16           0       -2.924630    3.551359    5.359780
     18         42           0       -4.080435    3.745903    9.668159
     19         16           0       -6.344451    2.627895    9.993487
     20          1           0       -7.193287    3.627523   10.304872
     21          1           0       -6.846773    2.533520    8.755791
 ---------------------------------------------------------------------
                    Distance matrix (angstroms):
                    1          2          3          4          5
     1  Mo   0.000000
     2  S    2.282709   0.000000
     3  S    2.352405   3.723181   0.000000
     4  S    2.399240   3.928439   3.545903   0.000000
     5  S    2.267532   3.656375   4.257242   3.492547   0.000000
     6  Mo   2.864652   3.910450   2.317477   2.388187   4.927812
     7  S    5.080040   6.178303   4.348957   3.628911   6.850605
     8  S    3.801893   3.366173   3.553966   3.961687   5.982134
     9  Mo   2.596576   2.380230   4.011213   2.360702   4.119095
    10  S    4.939921   5.090964   5.925427   3.234600   6.167010
    11  S    4.085474   3.552386   6.079535   3.664173   4.465541
    12  Mo   3.256350   3.598552   5.585733   3.433166   2.450263
    13  Mo   5.687182   6.162722   5.790352   3.913758   7.311394
    14  S    4.725129   4.341411   7.043375   5.492572   3.527500
    15  S    4.751035   5.609517   6.874243   4.003295   3.589552
    16  S    6.734931   6.535194   6.550053   5.605357   8.660269
    17  S    7.549181   8.196647   7.638850   5.463432   8.924409
    18  Mo   5.447766   5.638878   4.638090   4.720936   7.581748
    19  S    6.942588   7.491647   5.326458   6.415526   9.075016
    20  H    7.939183   8.186025   6.342465   7.535314  10.139208
    21  H    7.791653   8.473987   6.314312   6.891365   9.827131
                    6          7          8          9         10
     6  Mo   0.000000
     7  S    2.387849   0.000000
     8  S    2.298045   3.814358   0.000000
     9  Mo   2.808010   4.521184   2.679397   0.000000
    10  S    3.863914   4.011998   3.968720   2.731719   0.000000
    11  S    5.025981   6.405772   4.851671   2.329018   3.246193
    12  Mo   5.292306   6.964342   5.834017   3.275795   4.843413
    13  Mo   3.473374   2.410611   3.847181   3.991257   2.208643
    14  S    7.096778   8.955906   7.237965   4.853635   6.592854
    15  S    6.315726   7.438853   7.287803   4.697041   5.263429
    16  S    4.436799   3.765925   3.578683   4.798327   3.574454
    17  S    5.369935   3.639188   5.944914   5.924428   3.594988
    18  Mo   2.791672   2.443110   2.386643   4.322974   4.180453
    19  S    4.232487   3.313857   4.420436   6.548676   6.531546
    20  H    5.306395   4.508300   4.982603   7.356068   7.299834
    21  H    4.967156   3.391869   5.363512   7.237406   6.735036
                   11         12         13         14         15
    11  S    0.000000
    12  Mo   2.369634   0.000000
    13  Mo   5.299611   6.582327   0.000000
    14  S    3.515468   2.119393   8.473055   0.000000
    15  S    3.542797   2.119725   6.973099   3.427201   0.000000
    16  S    6.218607   7.883709   2.318404   9.498334   8.691152
    17  S    6.808395   8.075425   2.119261  10.010372   7.987560
    18  Mo   6.372154   7.454780   2.755060   9.155888   8.445959
    19  S    8.735714   9.469330   4.739874  11.218029  10.382829
    20  H    9.504847  10.429201   5.521496  12.081776  11.450650
    21  H    9.292662  10.098672   4.688742  11.954523  10.786099
                   16         17         18         19         20
    16  S    0.000000
    17  S    3.555827   0.000000
    18  Mo   2.266294   4.464959   0.000000
    19  S    4.324253   5.832598   2.545889   0.000000
    20  H    4.541188   6.533083   3.179507   1.347865   0.000000
    21  H    4.426639   5.286974   3.155141   1.339076   1.927840
                   21
    21  H    0.000000
 Symmetry turned off by external request.
 Stoichiometry    H2Mo6S13
 Framework group  C1[X(H2Mo6S13)]
 Deg. of freedom    57
 Full point group                 C1      NOp   1
 Rotational constants (GHZ):           0.1476906           0.0546214           0.0469553
 General basis read from cards:  (5D, 7F)
 ======================================================================================================
                                       Pseudopotential Parameters
 ======================================================================================================
  Center     Atomic      Valence      Angular      Power
  Number     Number     Electrons     Momentum     of R      Exponent        Coefficient   SO-Coeffient
 ======================================================================================================
    1         42           14
                                      F and up 
                                                     0      537.9667807       -0.04694920    0.00000000
                                                     1      147.8982938      -20.20800840    0.00000000
                                                     2       45.7358898     -106.21163020    0.00000000
                                                     2       13.2911467      -41.81073680    0.00000000
                                                     2        4.7059961       -4.20541030    0.00000000
                                      S - F
                                                     0      110.2991760        2.80637170    0.00000000
                                                     1       23.2014645       44.51620120    0.00000000
                                                     2        5.3530131       82.77852270    0.00000000
                                      P - F
                                                     0       63.2901397        4.94208760    0.00000000
                                                     1       23.3315302       25.86049760    0.00000000
                                                     2       24.6759423      132.47087420    0.00000000
                                                     2        4.6493040       57.31497940    0.00000000
                                      D - F
                                                     0      104.4839977        3.00545910    0.00000000
                                                     1       66.2307245       26.36378510    0.00000000
                                                     2       39.1283176      183.38491990    0.00000000
                                                     2       13.1164437       98.44530680    0.00000000
                                                     2        3.6280263       22.49013770    0.00000000
    2         16
                                   No pseudopotential on this center.
    3         16
                                   No pseudopotential on this center.
    4         16
                                   No pseudopotential on this center.
    5         16
                                   No pseudopotential on this center.
    6         42           14
                                      F and up 
                                                     0      537.9667807       -0.04694920    0.00000000
                                                     1      147.8982938      -20.20800840    0.00000000
                                                     2       45.7358898     -106.21163020    0.00000000
                                                     2       13.2911467      -41.81073680    0.00000000
                                                     2        4.7059961       -4.20541030    0.00000000
                                      S - F
                                                     0      110.2991760        2.80637170    0.00000000
                                                     1       23.2014645       44.51620120    0.00000000
                                                     2        5.3530131       82.77852270    0.00000000
                                      P - F
                                                     0       63.2901397        4.94208760    0.00000000
                                                     1       23.3315302       25.86049760    0.00000000
                                                     2       24.6759423      132.47087420    0.00000000
                                                     2        4.6493040       57.31497940    0.00000000
                                      D - F
                                                     0      104.4839977        3.00545910    0.00000000
                                                     1       66.2307245       26.36378510    0.00000000
                                                     2       39.1283176      183.38491990    0.00000000
                                                     2       13.1164437       98.44530680    0.00000000
                                                     2        3.6280263       22.49013770    0.00000000
    7         16
                                   No pseudopotential on this center.
    8         16
                                   No pseudopotential on this center.
    9         42           14
                                      F and up 
                                                     0      537.9667807       -0.04694920    0.00000000
                                                     1      147.8982938      -20.20800840    0.00000000
                                                     2       45.7358898     -106.21163020    0.00000000
                                                     2       13.2911467      -41.81073680    0.00000000
                                                     2        4.7059961       -4.20541030    0.00000000
                                      S - F
                                                     0      110.2991760        2.80637170    0.00000000
                                                     1       23.2014645       44.51620120    0.00000000
                                                     2        5.3530131       82.77852270    0.00000000
                                      P - F
                                                     0       63.2901397        4.94208760    0.00000000
                                                     1       23.3315302       25.86049760    0.00000000
                                                     2       24.6759423      132.47087420    0.00000000
                                                     2        4.6493040       57.31497940    0.00000000
                                      D - F
                                                     0      104.4839977        3.00545910    0.00000000
                                                     1       66.2307245       26.36378510    0.00000000
                                                     2       39.1283176      183.38491990    0.00000000
                                                     2       13.1164437       98.44530680    0.00000000
                                                     2        3.6280263       22.49013770    0.00000000
   10         16
                                   No pseudopotential on this center.
   11         16
                                   No pseudopotential on this center.
   12         42           14
                                      F and up 
                                                     0      537.9667807       -0.04694920    0.00000000
                                                     1      147.8982938      -20.20800840    0.00000000
                                                     2       45.7358898     -106.21163020    0.00000000
                                                     2       13.2911467      -41.81073680    0.00000000
                                                     2        4.7059961       -4.20541030    0.00000000
                                      S - F
                                                     0      110.2991760        2.80637170    0.00000000
                                                     1       23.2014645       44.51620120    0.00000000
                                                     2        5.3530131       82.77852270    0.00000000
                                      P - F
                                                     0       63.2901397        4.94208760    0.00000000
                                                     1       23.3315302       25.86049760    0.00000000
                                                     2       24.6759423      132.47087420    0.00000000
                                                     2        4.6493040       57.31497940    0.00000000
                                      D - F
                                                     0      104.4839977        3.00545910    0.00000000
                                                     1       66.2307245       26.36378510    0.00000000
                                                     2       39.1283176      183.38491990    0.00000000
                                                     2       13.1164437       98.44530680    0.00000000
                                                     2        3.6280263       22.49013770    0.00000000
   13         42           14
                                      F and up 
                                                     0      537.9667807       -0.04694920    0.00000000
                                                     1      147.8982938      -20.20800840    0.00000000
                                                     2       45.7358898     -106.21163020    0.00000000
                                                     2       13.2911467      -41.81073680    0.00000000
                                                     2        4.7059961       -4.20541030    0.00000000
                                      S - F
                                                     0      110.2991760        2.80637170    0.00000000
                                                     1       23.2014645       44.51620120    0.00000000
                                                     2        5.3530131       82.77852270    0.00000000
                                      P - F
                                                     0       63.2901397        4.94208760    0.00000000
                                                     1       23.3315302       25.86049760    0.00000000
                                                     2       24.6759423      132.47087420    0.00000000
                                                     2        4.6493040       57.31497940    0.00000000
                                      D - F
                                                     0      104.4839977        3.00545910    0.00000000
                                                     1       66.2307245       26.36378510    0.00000000
                                                     2       39.1283176      183.38491990    0.00000000
                                                     2       13.1164437       98.44530680    0.00000000
                                                     2        3.6280263       22.49013770    0.00000000
   14         16
                                   No pseudopotential on this center.
   15         16
                                   No pseudopotential on this center.
   16         16
                                   No pseudopotential on this center.
   17         16
                                   No pseudopotential on this center.
   18         42           14
                                      F and up 
                                                     0      537.9667807       -0.04694920    0.00000000
                                                     1      147.8982938      -20.20800840    0.00000000
                                                     2       45.7358898     -106.21163020    0.00000000
                                                     2       13.2911467      -41.81073680    0.00000000
                                                     2        4.7059961       -4.20541030    0.00000000
                                      S - F
                                                     0      110.2991760        2.80637170    0.00000000
                                                     1       23.2014645       44.51620120    0.00000000
                                                     2        5.3530131       82.77852270    0.00000000
                                      P - F
                                                     0       63.2901397        4.94208760    0.00000000
                                                     1       23.3315302       25.86049760    0.00000000
                                                     2       24.6759423      132.47087420    0.00000000
                                                     2        4.6493040       57.31497940    0.00000000
                                      D - F
                                                     0      104.4839977        3.00545910    0.00000000
                                                     1       66.2307245       26.36378510    0.00000000
                                                     2       39.1283176      183.38491990    0.00000000
                                                     2       13.1164437       98.44530680    0.00000000
                                                     2        3.6280263       22.49013770    0.00000000
   19         16
                                   No pseudopotential on this center.
   20          1
                                   No pseudopotential on this center.
   21          1
                                   No pseudopotential on this center.
 ======================================================================================================
   376 basis functions,   984 primitive gaussians,   401 cartesian basis functions
   147 alpha electrons      147 beta electrons
       nuclear repulsion energy      5071.8187336536 Hartrees.
 NAtoms=   21 NActive=   21 NUniq=   21 SFac= 1.00D+00 NAtFMM=   60 NAOKFM=F Big=F
 Integral buffers will be    131072 words long.
 Raffenetti 2 integral format.
 Two-electron integral symmetry is turned off.
 One-electron integrals computed using PRISM.
   1 Symmetry operations used in ECPInt.
 ECPInt:  NShTT=    7140 NPrTT=   56124 LenC2=    6338 LenP2D=   31307.
 LDataN:  DoStor=T MaxTD1= 5 Len=  102
 NBasis=   376 RedAO= T EigKep=  8.06D-04  NBF=   376
 NBsUse=   376 1.00D-06 EigRej= -1.00D+00 NBFU=   376
 Defaulting to unpruned grid for atomic number  42.
 Defaulting to unpruned grid for atomic number  42.
 Defaulting to unpruned grid for atomic number  42.
 Defaulting to unpruned grid for atomic number  42.
 Defaulting to unpruned grid for atomic number  42.
 Defaulting to unpruned grid for atomic number  42.
 ExpMin= 2.47D-02 ExpMax= 2.19D+04 ExpMxC= 3.30D+03 IAcc=3 IRadAn=         5 AccDes= 0.00D+00
 Harris functional with IExCor=  402 and IRadAn=       5 diagonalized for initial guess.
 HarFok:  IExCor=  402 AccDes= 0.00D+00 IRadAn=         5 IDoV= 1 UseB2=F ITyADJ=14
 ICtDFT=  3500011 ScaDFX=  1.000000  1.000000  1.000000  1.000000
 Defaulting to unpruned grid for atomic number  42.
 FoFCou: FMM=F IPFlag=           0 FMFlag=      100000 FMFlg1=           0
         NFxFlg=           0 DoJE=T BraDBF=F KetDBF=T FulRan=T
         wScrn=  0.000000 ICntrl=       500 IOpCl=  0 I1Cent=   200000004 NGrid=           0
         NMat0=    1 NMatS0=      1 NMatT0=    0 NMatD0=    1 NMtDS0=    0 NMtDT0=    0
 Symmetry not used in FoFCou.
 Requested convergence on RMS density matrix=1.00D-08 within 128 cycles.
 Requested convergence on MAX density matrix=1.00D-06.
 Requested convergence on             energy=1.00D-06.
 No special actions if energy rises.
 Defaulting to unpruned grid for atomic number  42.
 Defaulting to unpruned grid for atomic number  42.
 Defaulting to unpruned grid for atomic number  42.
 Defaulting to unpruned grid for atomic number  42.
 Defaulting to unpruned grid for atomic number  42.
 Defaulting to unpruned grid for atomic number  42.
 Defaulting to unpruned grid for atomic number  42.
 Defaulting to unpruned grid for atomic number  42.
 Defaulting to unpruned grid for atomic number  42.
 Defaulting to unpruned grid for atomic number  42.
 Defaulting to unpruned grid for atomic number  42.
 Defaulting to unpruned grid for atomic number  42.
 Defaulting to unpruned grid for atomic number  42.
 Defaulting to unpruned grid for atomic number  42.
 Defaulting to unpruned grid for atomic number  42.
 Defaulting to unpruned grid for atomic number  42.
 Defaulting to unpruned grid for atomic number  42.
 Defaulting to unpruned grid for atomic number  42.
 Defaulting to unpruned grid for atomic number  42.
 Defaulting to unpruned grid for atomic number  42.
 Defaulting to unpruned grid for atomic number  42.
 Defaulting to unpruned grid for atomic number  42.
 Defaulting to unpruned grid for atomic number  42.
 Defaulting to unpruned grid for atomic number  42.
 Defaulting to unpruned grid for atomic number  42.
 Defaulting to unpruned grid for atomic number  42.
 Defaulting to unpruned grid for atomic number  42.
 Defaulting to unpruned grid for atomic number  42.
 Defaulting to unpruned grid for atomic number  42.
 Defaulting to unpruned grid for atomic number  42.
 Defaulting to unpruned grid for atomic number  42.
 Defaulting to unpruned grid for atomic number  42.
 Defaulting to unpruned grid for atomic number  42.
 Defaulting to unpruned grid for atomic number  42.
 Defaulting to unpruned grid for atomic number  42.
 Defaulting to unpruned grid for atomic number  42.
 Defaulting to unpruned grid for atomic number  42.
 Defaulting to unpruned grid for atomic number  42.
 Defaulting to unpruned grid for atomic number  42.
 Defaulting to unpruned grid for atomic number  42.
 Defaulting to unpruned grid for atomic number  42.
 Defaulting to unpruned grid for atomic number  42.
 Defaulting to unpruned grid for atomic number  42.
 Defaulting to unpruned grid for atomic number  42.
 Defaulting to unpruned grid for atomic number  42.
 Defaulting to unpruned grid for atomic number  42.
 EnCoef did   100 forward-backward iterations
 EnCoef did   100 forward-backward iterations
 EnCoef did   100 forward-backward iterations
 EnCoef did   100 forward-backward iterations
 EnCoef did     4 forward-backward iterations
 EnCoef did     8 forward-backward iterations
 EnCoef did   100 forward-backward iterations
 EnCoef did   100 forward-backward iterations
 EnCoef did     8 forward-backward iterations
 EnCoef did     1 forward-backward iterations
 EnCoef did     5 forward-backward iterations
 Restarting incremental Fock formation.
 SCF Done:  E(RB3LYP) =  -5583.48799944     A.U. after   31 cycles
            NFock= 31  Conv=0.79D-08     -V/T= 2.0532

 **********************************************************************

            Population analysis using the SCF Density.

 **********************************************************************

 Alpha  occ. eigenvalues --  -88.97537 -88.90781 -88.90368 -88.90196 -88.88983
 Alpha  occ. eigenvalues --  -88.88296 -88.88045 -88.87398 -88.87114 -88.87104
 Alpha  occ. eigenvalues --  -88.86970 -88.86734 -88.86613  -8.05253  -7.98307
 Alpha  occ. eigenvalues --   -7.97910  -7.97793  -7.96885  -7.96087  -7.95823
 Alpha  occ. eigenvalues --   -7.95250  -7.95031  -7.95030  -7.94743  -7.94538
 Alpha  occ. eigenvalues --   -7.94522  -6.01544  -6.01284  -6.00796  -5.94357
 Alpha  occ. eigenvalues --   -5.94250  -5.94197  -5.93955  -5.93862  -5.93816
 Alpha  occ. eigenvalues --   -5.93811  -5.93782  -5.93672  -5.92874  -5.92858
 Alpha  occ. eigenvalues --   -5.92738  -5.92069  -5.92050  -5.91986  -5.91864
 Alpha  occ. eigenvalues --   -5.91775  -5.91669  -5.91309  -5.91227  -5.91106
 Alpha  occ. eigenvalues --   -5.91092  -5.91041  -5.91001  -5.90998  -5.90805
 Alpha  occ. eigenvalues --   -5.90791  -5.90782  -5.90693  -5.90632  -5.90590
 Alpha  occ. eigenvalues --   -5.90558  -5.90538  -5.90487  -5.90317  -5.90285
 Alpha  occ. eigenvalues --   -2.55704  -2.55319  -2.54904  -2.54042  -2.53139
 Alpha  occ. eigenvalues --   -2.52815  -1.58546  -1.58392  -1.58326  -1.58051
 Alpha  occ. eigenvalues --   -1.57922  -1.57658  -1.57467  -1.57054  -1.57029
 Alpha  occ. eigenvalues --   -1.56722  -1.56300  -1.56176  -1.55982  -1.55389
 Alpha  occ. eigenvalues --   -1.55007  -1.54773  -1.54492  -1.53787  -0.84897
 Alpha  occ. eigenvalues --   -0.74574  -0.73318  -0.72878  -0.71949  -0.71394
 Alpha  occ. eigenvalues --   -0.70760  -0.70178  -0.69633  -0.69015  -0.68533
 Alpha  occ. eigenvalues --   -0.68193  -0.67745  -0.53854  -0.48284  -0.41991
 Alpha  occ. eigenvalues --   -0.41415  -0.40673  -0.40340  -0.39550  -0.39199
 Alpha  occ. eigenvalues --   -0.38942  -0.38757  -0.38257  -0.37937  -0.37749
 Alpha  occ. eigenvalues --   -0.37329  -0.36842  -0.36502  -0.36273  -0.35659
 Alpha  occ. eigenvalues --   -0.35517  -0.35181  -0.34732  -0.34658  -0.34457
 Alpha  occ. eigenvalues --   -0.33930  -0.33669  -0.33402  -0.32965  -0.32628
 Alpha  occ. eigenvalues --   -0.31920  -0.31754  -0.31105  -0.30003  -0.29283
 Alpha  occ. eigenvalues --   -0.29121  -0.28703  -0.28254  -0.28073  -0.27213
 Alpha  occ. eigenvalues --   -0.26935  -0.26264  -0.25645  -0.25084  -0.24392
 Alpha  occ. eigenvalues --   -0.22740  -0.20656
 Alpha virt. eigenvalues --   -0.15269  -0.14689  -0.14323  -0.14192  -0.13802
 Alpha virt. eigenvalues --   -0.13366  -0.12643  -0.12175  -0.11970  -0.11516
 Alpha virt. eigenvalues --   -0.11313  -0.10857  -0.10442  -0.09938  -0.09144
 Alpha virt. eigenvalues --   -0.08914  -0.07953  -0.07629  -0.07032  -0.06178
 Alpha virt. eigenvalues --   -0.05924  -0.05706  -0.05252  -0.05072  -0.04768
 Alpha virt. eigenvalues --   -0.03895  -0.00327   0.00008   0.00633   0.01849
 Alpha virt. eigenvalues --    0.02460   0.03254   0.03655   0.04215   0.04552
 Alpha virt. eigenvalues --    0.04868   0.05365   0.05667   0.06046   0.06623
 Alpha virt. eigenvalues --    0.06881   0.07065   0.07642   0.07794   0.08209
 Alpha virt. eigenvalues --    0.09199   0.10135   0.10788   0.11428   0.12183
 Alpha virt. eigenvalues --    0.14716   0.15084   0.16176   0.16272   0.17353
 Alpha virt. eigenvalues --    0.17655   0.19331   0.19573   0.20792   0.21321
 Alpha virt. eigenvalues --    0.21950   0.22163   0.22938   0.24141   0.25166
 Alpha virt. eigenvalues --    0.25985   0.27077   0.27583   0.28601   0.29261
 Alpha virt. eigenvalues --    0.29565   0.30047   0.30211   0.30529   0.31475
 Alpha virt. eigenvalues --    0.32091   0.32500   0.32962   0.33284   0.33543
 Alpha virt. eigenvalues --    0.33712   0.35148   0.35559   0.35786   0.36094
 Alpha virt. eigenvalues --    0.37043   0.37282   0.37509   0.37557   0.37957
 Alpha virt. eigenvalues --    0.38216   0.38502   0.38995   0.39574   0.40272
 Alpha virt. eigenvalues --    0.40536   0.41050   0.41120   0.41451   0.41579
 Alpha virt. eigenvalues --    0.42593   0.42743   0.43299   0.43853   0.43898
 Alpha virt. eigenvalues --    0.44354   0.45071   0.45340   0.45702   0.45891
 Alpha virt. eigenvalues --    0.46938   0.47325   0.47546   0.48087   0.48672
 Alpha virt. eigenvalues --    0.49390   0.50052   0.50353   0.51732   0.52238
 Alpha virt. eigenvalues --    0.52617   0.53142   0.53819   0.54360   0.55057
 Alpha virt. eigenvalues --    0.56127   0.57063   0.57720   0.58886   0.59233
 Alpha virt. eigenvalues --    0.59732   0.59933   0.61148   0.61644   0.62339
 Alpha virt. eigenvalues --    0.62699   0.64175   0.64595   0.64911   0.66156
 Alpha virt. eigenvalues --    0.67093   0.67357   0.68503   0.69149   0.70576
 Alpha virt. eigenvalues --    0.71313   0.71964   0.72385   0.73111   0.73717
 Alpha virt. eigenvalues --    0.74922   0.75699   0.75910   0.76014   0.76643
 Alpha virt. eigenvalues --    0.76886   0.77934   0.78083   0.78303   0.78600
 Alpha virt. eigenvalues --    0.79333   0.80022   0.80710   0.81374   0.81691
 Alpha virt. eigenvalues --    0.81983   0.82986   0.83131   0.83884   0.84139
 Alpha virt. eigenvalues --    0.84378   0.85733   0.85904   0.86570   0.87388
 Alpha virt. eigenvalues --    0.87613   0.88257   0.89026   0.89536   0.90609
 Alpha virt. eigenvalues --    0.91258   0.92280   0.92941   0.93745   0.94250
 Alpha virt. eigenvalues --    0.95304   0.96463   0.97528   0.97904   0.98576
 Alpha virt. eigenvalues --    0.99001   0.99529   1.00017   1.01404   1.01960
 Alpha virt. eigenvalues --    1.02866   1.03230   1.03759   1.04197   1.04754
 Alpha virt. eigenvalues --    1.05637   1.06363   1.06501   1.06782   1.07414
 Alpha virt. eigenvalues --    1.08684   1.08947   1.09674   1.10845   1.11025
 Alpha virt. eigenvalues --    1.11863   1.12594   1.13885   1.15720   1.16772
 Alpha virt. eigenvalues --    1.20692   1.26869   1.92114   1.95967   2.07953
 Alpha virt. eigenvalues --    2.11641   2.64944   2.72905   7.73016   8.73858
 Alpha virt. eigenvalues --   10.27683  10.94652  11.26601  15.66563
          Condensed to atoms (all electrons):
               1          2          3          4          5          6
     1  Mo  13.700566   0.283091   0.211172   0.145136   0.262913  -0.301443
     2  S    0.283091  15.555242   0.005760   0.013043  -0.014070  -0.057279
     3  S    0.211172   0.005760  15.708784  -0.037020  -0.000690   0.223777
     4  S    0.145136   0.013043  -0.037020  15.497357  -0.020451   0.118371
     5  S    0.262913  -0.014070  -0.000690  -0.020451  15.670178  -0.017559
     6  Mo  -0.301443  -0.057279   0.223777   0.118371  -0.017559  14.337075
     7  S   -0.003330  -0.000014  -0.000995   0.000072   0.000036   0.090808
     8  S   -0.037319  -0.032656   0.012030   0.001403  -0.000171   0.190964
     9  Mo  -0.054497   0.231264  -0.018147   0.098131  -0.022234  -0.316250
    10  S    0.004065  -0.003850  -0.000187  -0.035646  -0.000072  -0.008504
    11  S   -0.007100  -0.030478  -0.000075  -0.010650  -0.000032  -0.025114
    12  Mo  -0.080549  -0.055015  -0.001960  -0.019543   0.221171   0.024239
    13  Mo   0.007545   0.000454  -0.001147  -0.024013   0.000150  -0.102445
    14  S   -0.011570   0.000338  -0.000002  -0.000281  -0.002163   0.000156
    15  S   -0.013280  -0.000650  -0.000002  -0.003192  -0.005522  -0.000288
    16  S   -0.000117  -0.000004  -0.000009  -0.000128  -0.000000  -0.000208
    17  S    0.000149   0.000000   0.000000  -0.000065   0.000000  -0.016242
    18  Mo  -0.030709   0.002402   0.006901   0.008186  -0.000139  -0.219130
    19  S    0.000090   0.000001   0.000103  -0.000032  -0.000000   0.004879
    20  H   -0.000038   0.000000   0.000001   0.000000   0.000000  -0.001004
    21  H   -0.000054   0.000000   0.000003  -0.000000  -0.000000   0.003458
               7          8          9         10         11         12
     1  Mo  -0.003330  -0.037319  -0.054497   0.004065  -0.007100  -0.080549
     2  S   -0.000014  -0.032656   0.231264  -0.003850  -0.030478  -0.055015
     3  S   -0.000995   0.012030  -0.018147  -0.000187  -0.000075  -0.001960
     4  S    0.000072   0.001403   0.098131  -0.035646  -0.010650  -0.019543
     5  S    0.000036  -0.000171  -0.022234  -0.000072  -0.000032   0.221171
     6  Mo   0.090808   0.190964  -0.316250  -0.008504  -0.025114   0.024239
     7  S   15.709294  -0.011047  -0.013867   0.000189  -0.000080   0.000563
     8  S   -0.011047  15.451817   0.136438   0.000578  -0.002069   0.000789
     9  Mo  -0.013867   0.136438  14.025314   0.180209   0.277944  -0.087740
    10  S    0.000189   0.000578   0.180209  15.770846  -0.044509   0.002962
    11  S   -0.000080  -0.002069   0.277944  -0.044509  15.593829   0.250789
    12  Mo   0.000563   0.000789  -0.087740   0.002962   0.250789  12.775300
    13  Mo   0.158683  -0.034126  -0.041608   0.288979   0.001097   0.000286
    14  S   -0.000000  -0.000003  -0.010118  -0.000008  -0.001844   0.363148
    15  S    0.000001  -0.000001  -0.014573   0.000627  -0.008098   0.372700
    16  S   -0.010018  -0.005569  -0.008544   0.001188   0.000021  -0.000088
    17  S    0.004977   0.000034  -0.006757   0.023345   0.000013   0.000100
    18  Mo   0.145434   0.235621   0.002603  -0.063177   0.000279  -0.001088
    19  S   -0.025059   0.000586  -0.000915   0.000002  -0.000000  -0.000019
    20  H    0.000929  -0.000030   0.000126  -0.000000  -0.000000   0.000001
    21  H   -0.002086  -0.000028  -0.000118   0.000000  -0.000000   0.000001
              13         14         15         16         17         18
     1  Mo   0.007545  -0.011570  -0.013280  -0.000117   0.000149  -0.030709
     2  S    0.000454   0.000338  -0.000650  -0.000004   0.000000   0.002402
     3  S   -0.001147  -0.000002  -0.000002  -0.000009   0.000000   0.006901
     4  S   -0.024013  -0.000281  -0.003192  -0.000128  -0.000065   0.008186
     5  S    0.000150  -0.002163  -0.005522  -0.000000   0.000000  -0.000139
     6  Mo  -0.102445   0.000156  -0.000288  -0.000208  -0.016242  -0.219130
     7  S    0.158683  -0.000000   0.000001  -0.010018   0.004977   0.145434
     8  S   -0.034126  -0.000003  -0.000001  -0.005569   0.000034   0.235621
     9  Mo  -0.041608  -0.010118  -0.014573  -0.008544  -0.006757   0.002603
    10  S    0.288979  -0.000008   0.000627   0.001188   0.023345  -0.063177
    11  S    0.001097  -0.001844  -0.008098   0.000021   0.000013   0.000279
    12  Mo   0.000286   0.363148   0.372700  -0.000088   0.000100  -0.001088
    13  Mo  13.049328  -0.000023   0.000154   0.206447   0.357881  -0.244674
    14  S   -0.000023  15.779432   0.014606  -0.000000  -0.000000   0.000011
    15  S    0.000154   0.014606  15.794138  -0.000000  -0.000000  -0.000123
    16  S    0.206447  -0.000000  -0.000000  15.618400   0.000280   0.240644
    17  S    0.357881  -0.000000  -0.000000   0.000280  15.876157  -0.025936
    18  Mo  -0.244674   0.000011  -0.000123   0.240644  -0.025936  14.001145
    19  S   -0.003083  -0.000000   0.000000   0.000625  -0.000039   0.157408
    20  H   -0.001146  -0.000000   0.000000   0.000092  -0.000001  -0.015652
    21  H    0.001448  -0.000000   0.000000  -0.001378   0.000039  -0.037962
              19         20         21
     1  Mo   0.000090  -0.000038  -0.000054
     2  S    0.000001   0.000000   0.000000
     3  S    0.000103   0.000001   0.000003
     4  S   -0.000032   0.000000  -0.000000
     5  S   -0.000000   0.000000  -0.000000
     6  Mo   0.004879  -0.001004   0.003458
     7  S   -0.025059   0.000929  -0.002086
     8  S    0.000586  -0.000030  -0.000028
     9  Mo  -0.000915   0.000126  -0.000118
    10  S    0.000002  -0.000000   0.000000
    11  S   -0.000000  -0.000000  -0.000000
    12  Mo  -0.000019   0.000001   0.000001
    13  Mo  -0.003083  -0.001146   0.001448
    14  S   -0.000000  -0.000000  -0.000000
    15  S    0.000000   0.000000   0.000000
    16  S    0.000625   0.000092  -0.001378
    17  S   -0.000039  -0.000001   0.000039
    18  Mo   0.157408  -0.015652  -0.037962
    19  S   15.259203   0.277385   0.310107
    20  H    0.277385   0.634985  -0.025303
    21  H    0.310107  -0.025303   0.598035
 Mulliken charges:
               1
     1  Mo  -0.074719
     2  S    0.102420
     3  S   -0.108297
     4  S    0.269323
     5  S   -0.071344
     6  Mo   0.071738
     7  S   -0.044489
     8  S    0.092759
     9  Mo  -0.356658
    10  S   -0.117037
    11  S    0.006075
    12  Mo   0.233954
    13  Mo   0.379813
    14  S   -0.131678
    15  S   -0.136499
    16  S   -0.041634
    17  S   -0.213936
    18  Mo  -0.162044
    19  S    0.018757
    20  H    0.129655
    21  H    0.153840
 Sum of Mulliken charges =  -0.00000
 Mulliken charges with hydrogens summed into heavy atoms:
               1
     1  Mo  -0.074719
     2  S    0.102420
     3  S   -0.108297
     4  S    0.269323
     5  S   -0.071344
     6  Mo   0.071738
     7  S   -0.044489
     8  S    0.092759
     9  Mo  -0.356658
    10  S   -0.117037
    11  S    0.006075
    12  Mo   0.233954
    13  Mo   0.379813
    14  S   -0.131678
    15  S   -0.136499
    16  S   -0.041634
    17  S   -0.213936
    18  Mo  -0.162044
    19  S    0.302252
 Electronic spatial extent (au):  <R**2>=         125276.4926
 Charge=             -0.0000 electrons
 Dipole moment (field-independent basis, Debye):
    X=            -11.6394    Y=              0.7839    Z=              1.5821  Tot=             11.7725
 Quadrupole moment (field-independent basis, Debye-Ang):
   XX=           -247.3727   YY=           -306.8381   ZZ=           -290.5558
   XY=            -36.7972   XZ=           -118.3624   YZ=             17.6961
 Traceless Quadrupole moment (field-independent basis, Debye-Ang):
   XX=             34.2162   YY=            -25.2493   ZZ=             -8.9669
   XY=            -36.7972   XZ=           -118.3624   YZ=             17.6961
 Octapole moment (field-independent basis, Debye-Ang**2):
  XXX=            102.6403  YYY=          -2375.3688  ZZZ=          -9067.1461  XYY=            105.1089
  XXY=           -555.4884  XXZ=          -2457.2206  XZZ=           -953.6301  YZZ=           -564.7443
  YYZ=          -2990.2969  XYZ=           -393.2021
 Hexadecapole moment (field-independent basis, Debye-Ang**3):
 XXXX=         -12419.6340 YYYY=         -16040.5192 ZZZZ=        -188369.7767 XXXY=           1141.5101
 XXXZ=           -490.5879 YYYX=           2678.9119 YYYZ=         -22272.8118 ZZZX=          -6498.8180
 ZZZY=         -20096.0520 XXYY=          -4527.1084 XXZZ=         -28182.0736 YYZZ=         -32991.6005
 XXYZ=          -5079.1758 YYXZ=            354.2310 ZZXY=          -3081.0832
 N-N= 5.071818733654D+03 E-N=-2.327635017046D+04  KE= 5.301247726571D+03
   1 Symmetry operations used in ECPInt.
 ECPInt:  NShTT=    7140 NPrTT=   56124 LenC2=    6338 LenP2D=   31307.
 LDataN:  DoStor=T MaxTD1= 6 Len=  172
 Calling FoFJK, ICntrl=      2127 FMM=F ISym2X=0 I1Cent= 0 IOpClX= 0 NMat=1 NMatS=1 NMatT=0.
 Defaulting to unpruned grid for atomic number  42.
 Defaulting to unpruned grid for atomic number  42.
 Defaulting to unpruned grid for atomic number  42.
 Defaulting to unpruned grid for atomic number  42.
 Defaulting to unpruned grid for atomic number  42.
 Defaulting to unpruned grid for atomic number  42.
 Defaulting to unpruned grid for atomic number  42.
 Defaulting to unpruned grid for atomic number  42.
 Defaulting to unpruned grid for atomic number  42.
 Defaulting to unpruned grid for atomic number  42.
 Defaulting to unpruned grid for atomic number  42.
 Defaulting to unpruned grid for atomic number  42.
 Defaulting to unpruned grid for atomic number  42.
 Defaulting to unpruned grid for atomic number  42.
 Defaulting to unpruned grid for atomic number  42.
 Defaulting to unpruned grid for atomic number  42.
 Defaulting to unpruned grid for atomic number  42.
 Defaulting to unpruned grid for atomic number  42.
 Defaulting to unpruned grid for atomic number  42.
 Defaulting to unpruned grid for atomic number  42.
 Defaulting to unpruned grid for atomic number  42.
 Defaulting to unpruned grid for atomic number  42.
 Defaulting to unpruned grid for atomic number  42.
 Defaulting to unpruned grid for atomic number  42.
 Defaulting to unpruned grid for atomic number  42.
 Defaulting to unpruned grid for atomic number  42.
 Defaulting to unpruned grid for atomic number  42.
 Defaulting to unpruned grid for atomic number  42.
 Defaulting to unpruned grid for atomic number  42.
 Defaulting to unpruned grid for atomic number  42.
 Defaulting to unpruned grid for atomic number  42.
 Defaulting to unpruned grid for atomic number  42.
 Defaulting to unpruned grid for atomic number  42.
 Defaulting to unpruned grid for atomic number  42.
 Defaulting to unpruned grid for atomic number  42.
 Defaulting to unpruned grid for atomic number  42.
 Defaulting to unpruned grid for atomic number  42.
 Defaulting to unpruned grid for atomic number  42.
 Defaulting to unpruned grid for atomic number  42.
 Defaulting to unpruned grid for atomic number  42.
 Defaulting to unpruned grid for atomic number  42.
 Defaulting to unpruned grid for atomic number  42.
 Defaulting to unpruned grid for atomic number  42.
 Defaulting to unpruned grid for atomic number  42.
 Defaulting to unpruned grid for atomic number  42.
 Defaulting to unpruned grid for atomic number  42.
 -------------------------------------------------------------------
 Center     Atomic                   Forces (Hartrees/Bohr)
 Number     Number              X              Y              Z
 -------------------------------------------------------------------
      1       42           0.000415686    0.000549147   -0.001021706
      2       16          -0.000585057    0.000147328    0.000230381
      3       16          -0.000654840    0.000334381    0.000021074
      4       16          -0.000692766    0.000152247   -0.000994555
      5       16          -0.000412576   -0.000637191    0.000494499
      6       42          -0.000385460   -0.006173240    0.006159333
      7       16          -0.003207707   -0.000431031    0.000859791
      8       16          -0.007301482    0.004469704    0.000130112
      9       42           0.005326127    0.000341372   -0.001709573
     10       16          -0.001835188   -0.000675772    0.000679216
     11       16          -0.001282522    0.001118206   -0.000268290
     12       42          -0.000280722   -0.000318133    0.000474871
     13       42           0.001921698    0.002826633   -0.002216034
     14       16           0.000040635    0.000070728    0.000019234
     15       16          -0.000139889   -0.000050416   -0.000135379
     16       16          -0.002161611    0.006054460    0.000851725
     17       16          -0.000477043    0.000227709   -0.001150967
     18       42           0.015160501   -0.008528305   -0.005103216
     19       16          -0.002543229    0.000767825    0.006322897
     20        1          -0.001622779    0.001512063    0.003550858
     21        1           0.000718225   -0.001757718   -0.007194270
 -------------------------------------------------------------------
 Cartesian Forces:  Max     0.015160501 RMS     0.003365120

 GradGradGradGradGradGradGradGradGradGradGradGradGradGradGradGradGradGrad
 Berny optimization.
 FormGI is forming the generalized inverse of G from B-inverse, IUseBI=4.
 Internal  Forces:  Max     0.006503823 RMS     0.001188125
 Search for a local minimum.
 Step number   1 out of a maximum of  126
 All quantities printed in internal units (Hartrees-Bohrs-Radians)
 Mixed Optimization -- RFO/linear search
 Second derivative matrix not updated -- first step.
 ITU=  0
     Eigenvalues ---    0.00230   0.00239   0.02018   0.02276   0.02716
     Eigenvalues ---    0.03258   0.03885   0.03958   0.04079   0.04498
     Eigenvalues ---    0.04635   0.05352   0.05985   0.06184   0.06664
     Eigenvalues ---    0.07439   0.07728   0.07973   0.08214   0.08522
     Eigenvalues ---    0.08862   0.10109   0.10301   0.10348   0.11043
     Eigenvalues ---    0.11137   0.11780   0.12026   0.12188   0.12558
     Eigenvalues ---    0.13059   0.13387   0.13494   0.13701   0.14014
     Eigenvalues ---    0.14418   0.14799   0.14896   0.15359   0.16000
     Eigenvalues ---    0.16000   0.16034   0.16801   0.17066   0.17853
     Eigenvalues ---    0.18212   0.18850   0.19206   0.19957   0.22255
     Eigenvalues ---    0.22441   0.22725   0.25713   0.25738   0.25748
     Eigenvalues ---    0.25803   0.26496
 RFO step:  Lambda=-2.56981207D-03 EMin= 2.30000000D-03
 Linear search not attempted -- first point.
 Iteration  1 RMS(Cart)=  0.01450605 RMS(Int)=  0.00023308
 Iteration  2 RMS(Cart)=  0.00024785 RMS(Int)=  0.00011956
 Iteration  3 RMS(Cart)=  0.00000004 RMS(Int)=  0.00011956
 Variable       Old X    -DE/DX   Delta X   Delta X   Delta X     New X
                                 (Linear)    (Quad)   (Total)
    R1        4.31370   0.00016   0.00000   0.00180   0.00181   4.31550
    R2        4.44540   0.00019   0.00000   0.00528   0.00529   4.45069
    R3        4.53391   0.00096   0.00000   0.00216   0.00215   4.53605
    R4        4.28502  -0.00047   0.00000  -0.00262  -0.00262   4.28240
    R5        5.41341  -0.00147   0.00000  -0.01014  -0.01014   5.40327
    R6        4.90682   0.00113   0.00000   0.00092   0.00092   4.90774
    R7        4.49798   0.00008   0.00000  -0.00048  -0.00049   4.49749
    R8        4.37940  -0.00034   0.00000  -0.00504  -0.00504   4.37436
    R9        4.51302  -0.00063   0.00000  -0.00154  -0.00153   4.51149
   R10        4.46108   0.00058   0.00000   0.00306   0.00307   4.46415
   R11        4.63033   0.00037   0.00000   0.00327   0.00326   4.63359
   R12        4.51238   0.00204   0.00000   0.02347   0.02334   4.53572
   R13        4.34267   0.00224   0.00000   0.01827   0.01830   4.36097
   R14        5.30637   0.00018   0.00000   0.01293   0.01292   5.31929
   R15        5.27550  -0.00170   0.00000  -0.02325  -0.02319   5.25230
   R16        4.55539   0.00356   0.00000   0.03322   0.03308   4.58848
   R17        4.61681  -0.00141   0.00000  -0.02230  -0.02219   4.59462
   R18        5.06333   0.00227   0.00000   0.02682   0.02683   5.09016
   R19        4.51010  -0.00437   0.00000  -0.03538  -0.03535   4.47475
   R20        5.16220   0.00064   0.00000   0.00937   0.00930   5.17150
   R21        4.40121  -0.00131   0.00000  -0.00895  -0.00895   4.39226
   R22        4.17373  -0.00088   0.00000  -0.00608  -0.00610   4.16764
   R23        4.47796   0.00080   0.00000   0.00590   0.00589   4.48385
   R24        4.00507   0.00006   0.00000   0.00023   0.00023   4.00530
   R25        4.00570   0.00009   0.00000   0.00033   0.00033   4.00603
   R26        4.38115   0.00279   0.00000   0.02065   0.02071   4.40186
   R27        4.00482   0.00122   0.00000   0.00469   0.00469   4.00951
   R28        5.20631  -0.00169   0.00000  -0.02708  -0.02704   5.17927
   R29        4.28267   0.00277   0.00000   0.01450   0.01452   4.29719
   R30        4.81103   0.00318   0.00000   0.03486   0.03486   4.84589
   R31        2.54710   0.00296   0.00000   0.01137   0.01137   2.55847
   R32        2.53049   0.00650   0.00000   0.02431   0.02431   2.55480
    A1        1.86531  -0.00011   0.00000  -0.00182  -0.00182   1.86349
    A2        1.99071  -0.00024   0.00000   0.00018   0.00017   1.99088
    A3        1.86648   0.00031   0.00000   0.00122   0.00122   1.86770
    A4        1.71463  -0.00016   0.00000   0.00120   0.00119   1.71582
    A5        1.68473   0.00018   0.00000   0.00237   0.00236   1.68708
    A6        2.34367  -0.00024   0.00000  -0.00271  -0.00271   2.34096
    A7        1.88829   0.00022   0.00000   0.00314   0.00313   1.89143
    A8        1.69054   0.00003   0.00000   0.00180   0.00180   1.69235
    A9        2.57130  -0.00008   0.00000   0.00092   0.00090   2.57220
   A10        2.01712   0.00003   0.00000   0.00062   0.00062   2.01775
   A11        1.52203  -0.00069   0.00000  -0.00350  -0.00352   1.51851
   A12        2.62549   0.00034   0.00000   0.00134   0.00129   2.62678
   A13        1.64432   0.00056   0.00000   0.00337   0.00338   1.64770
   A14        2.59675  -0.00052   0.00000  -0.00410  -0.00417   2.59258
   A15        1.70666   0.00072   0.00000   0.00600   0.00600   1.71266
   A16        2.35811   0.00012   0.00000   0.00694   0.00689   2.36500
   A17        1.75768   0.00022   0.00000   0.00005   0.00007   1.75775
   A18        1.79032   0.00059   0.00000   0.00218   0.00217   1.79249
   A19        2.27201   0.00034   0.00000   0.00216   0.00218   2.27420
   A20        1.72606  -0.00022   0.00000  -0.00307  -0.00307   1.72299
   A21        2.01435   0.00044   0.00000   0.00151   0.00148   2.01583
   A22        2.29060  -0.00113   0.00000  -0.00906  -0.00910   2.28151
   A23        1.90178  -0.00096   0.00000  -0.00940  -0.00941   1.89237
   A24        2.10730  -0.00052   0.00000  -0.00754  -0.00750   2.09980
   A25        1.76397  -0.00113   0.00000  -0.00685  -0.00689   1.75707
   A26        1.61872   0.00059   0.00000   0.00385   0.00374   1.62246
   A27        2.04261  -0.00133   0.00000  -0.00996  -0.01002   2.03259
   A28        1.60911  -0.00010   0.00000  -0.00153  -0.00151   1.60760
   A29        2.37300   0.00028   0.00000   0.00222   0.00221   2.37521
   A30        1.95421   0.00053   0.00000   0.00384   0.00383   1.95804
   A31        1.95327  -0.00007   0.00000   0.00065   0.00064   1.95391
   A32        1.70143  -0.00056   0.00000  -0.00414  -0.00413   1.69729
   A33        1.45185  -0.00033   0.00000  -0.00214  -0.00211   1.44974
   A34        1.70920   0.00047   0.00000   0.00379   0.00378   1.71298
   A35        1.80558   0.00003   0.00000  -0.00224  -0.00225   1.80332
   A36        1.36999   0.00030   0.00000   0.00247   0.00246   1.37245
   A37        1.79352   0.00034   0.00000   0.00262   0.00262   1.79614
   A38        1.54359   0.00022   0.00000   0.00145   0.00144   1.54503
   A39        2.72314   0.00015   0.00000   0.00062   0.00062   2.72375
   A40        1.64665  -0.00035   0.00000  -0.00421  -0.00425   1.64240
   A41        2.63865  -0.00046   0.00000  -0.00143  -0.00144   2.63721
   A42        1.38514   0.00001   0.00000   0.00071   0.00073   1.38586
   A43        1.87286   0.00097   0.00000   0.00620   0.00608   1.87893
   A44        1.54283  -0.00085   0.00000  -0.00480  -0.00481   1.53802
   A45        2.36979   0.00096   0.00000   0.00298   0.00295   2.37274
   A46        1.75944  -0.00016   0.00000   0.00070   0.00070   1.76013
   A47        1.80274  -0.00031   0.00000  -0.00202  -0.00200   1.80074
   A48        1.79688  -0.00035   0.00000  -0.00023  -0.00024   1.79664
   A49        1.81644  -0.00037   0.00000  -0.00223  -0.00221   1.81423
   A50        1.88310   0.00020   0.00000   0.00097   0.00097   1.88407
   A51        2.10340  -0.00113   0.00000  -0.01199  -0.01188   2.09151
   A52        1.84217   0.00008   0.00000   0.00353   0.00336   1.84553
   A53        1.86281   0.00048   0.00000   0.00486   0.00483   1.86764
   A54        1.81978  -0.00001   0.00000  -0.00066  -0.00054   1.81925
   A55        1.96027   0.00103   0.00000   0.00563   0.00561   1.96589
   A56        1.99488  -0.00153   0.00000  -0.00393  -0.00400   1.99088
   A57        1.85737  -0.00052   0.00000  -0.00072  -0.00077   1.85660
   A58        2.30852   0.00062   0.00000  -0.00006  -0.00002   2.30850
   A59        1.35329   0.00196   0.00000   0.02071   0.02076   1.37405
   A60        2.13400   0.00275   0.00000   0.01901   0.01886   2.15286
   A61        1.82968  -0.00094   0.00000   0.00664   0.00629   1.83597
   A62        1.82074   0.00198   0.00000   0.01976   0.01987   1.84061
   A63        1.85240   0.00160   0.00000   0.02226   0.02220   1.87460
   A64        1.45246  -0.00055   0.00000   0.01204   0.01196   1.46442
   A65        1.68621   0.00233   0.00000   0.01645   0.01639   1.70260
   A66        1.75438   0.00143   0.00000  -0.00735  -0.00764   1.74674
   A67        2.22165  -0.00162   0.00000  -0.00861  -0.00929   2.21236
   A68        2.21230   0.00031   0.00000   0.01615   0.01599   2.22829
   A69        2.23151  -0.00106   0.00000  -0.00634  -0.00693   2.22458
   A70        1.83783   0.00189   0.00000   0.01833   0.01841   1.85624
   A71        1.81979  -0.00549   0.00000  -0.02668  -0.02659   1.79320
   A72        1.60036   0.00266   0.00000   0.04176   0.04204   1.64240
   A73        3.32326   0.00023   0.00000   0.00311   0.00310   3.32636
   A74        3.13713  -0.00067   0.00000  -0.00649  -0.00650   3.13062
    D1       -1.00579   0.00006   0.00000  -0.00648  -0.00646  -1.01225
    D2        2.90143   0.00009   0.00000  -0.00096  -0.00097   2.90046
    D3        1.04966  -0.00010   0.00000  -0.00519  -0.00517   1.04448
    D4        1.41683   0.00027   0.00000   0.00237   0.00240   1.41923
    D5        0.07697   0.00000   0.00000  -0.00643  -0.00642   0.07055
    D6        2.39834  -0.00069   0.00000  -0.01570  -0.01568   2.38267
    D7       -0.08343  -0.00014   0.00000   0.00058   0.00061  -0.08283
    D8        0.05083   0.00123   0.00000   0.01306   0.01305   0.06388
    D9       -0.05317  -0.00099   0.00000  -0.02421  -0.02420  -0.07736
   D10       -2.53494  -0.00044   0.00000  -0.00793  -0.00791  -2.54286
   D11       -2.40067   0.00094   0.00000   0.00455   0.00453  -2.39615
   D12        0.32985   0.00006   0.00000  -0.00265  -0.00267   0.32718
   D13       -1.39024   0.00062   0.00000   0.00464   0.00468  -1.38556
   D14       -3.09223  -0.00013   0.00000  -0.00187  -0.00187  -3.09410
   D15       -3.04896   0.00005   0.00000   0.00049   0.00048  -3.04848
   D16        1.51414   0.00061   0.00000   0.00779   0.00782   1.52196
   D17       -0.18785  -0.00014   0.00000   0.00127   0.00127  -0.18658
   D18        1.21382   0.00017   0.00000  -0.00055  -0.00056   1.21326
   D19        0.05523   0.00005   0.00000   0.01327   0.01328   0.06851
   D20        2.17684   0.00009   0.00000   0.01635   0.01635   2.19319
   D21       -2.16031   0.00015   0.00000   0.01702   0.01702  -2.14329
   D22       -1.51191   0.00030   0.00000   0.00664   0.00666  -1.50525
   D23       -3.11259  -0.00091   0.00000  -0.01413  -0.01416  -3.12675
   D24       -1.18275   0.00000   0.00000  -0.00472  -0.00472  -1.18747
   D25        0.92683   0.00001   0.00000  -0.00819  -0.00814   0.91869
   D26       -0.26890   0.00018   0.00000  -0.00581  -0.00581  -0.27471
   D27       -0.37153   0.00016   0.00000   0.00163   0.00162  -0.36991
   D28        2.92002   0.00069   0.00000   0.00743   0.00744   2.92745
   D29        1.89097   0.00029   0.00000   0.00244   0.00243   1.89340
   D30        2.98393  -0.00061   0.00000  -0.00567  -0.00566   2.97828
   D31       -0.00771  -0.00008   0.00000   0.00014   0.00016  -0.00755
   D32       -1.03676  -0.00048   0.00000  -0.00485  -0.00484  -1.04160
   D33        1.99902   0.00027   0.00000   0.00164   0.00164   2.00066
   D34       -0.99262   0.00079   0.00000   0.00745   0.00745  -0.98517
   D35       -2.02167   0.00039   0.00000   0.00246   0.00245  -2.01922
   D36        1.73528  -0.00090   0.00000  -0.01705  -0.01701   1.71827
   D37        1.18539  -0.00137   0.00000  -0.03703  -0.03724   1.14815
   D38       -2.36396  -0.00017   0.00000   0.00264   0.00288  -2.36108
   D39       -3.11398  -0.00013   0.00000  -0.01014  -0.01015  -3.12414
   D40        2.61931  -0.00060   0.00000  -0.03012  -0.03038   2.58893
   D41       -0.93004   0.00059   0.00000   0.00955   0.00974  -0.92030
   D42        0.24695   0.00031   0.00000  -0.00382  -0.00382   0.24313
   D43       -0.30295  -0.00016   0.00000  -0.02380  -0.02404  -0.32699
   D44        2.43089   0.00104   0.00000   0.01587   0.01608   2.44697
   D45        1.12538  -0.00004   0.00000  -0.00755  -0.00752   1.11786
   D46        0.57549  -0.00051   0.00000  -0.02753  -0.02775   0.54774
   D47       -2.97386   0.00069   0.00000   0.01214   0.01238  -2.96149
   D48        0.56287  -0.00052   0.00000   0.01003   0.01004   0.57291
   D49       -1.48693   0.00013   0.00000   0.01547   0.01537  -1.47157
   D50        2.82481   0.00047   0.00000   0.01262   0.01264   2.83745
   D51       -1.89354  -0.00002   0.00000   0.00369   0.00369  -1.88985
   D52       -2.83156   0.00012   0.00000   0.00334   0.00334  -2.82822
   D53       -0.89476  -0.00002   0.00000   0.00363   0.00364  -0.89111
   D54        0.48742   0.00021   0.00000   0.00513   0.00514   0.49256
   D55        1.80974  -0.00026   0.00000  -0.00063  -0.00065   1.80909
   D56        0.70958   0.00075   0.00000  -0.00080  -0.00067   0.70891
[...]
 .00066155,0.00039484,-0.00015936,-0.00009618,-0.00386363,-0.00958843,0
 .00288980,0.02373803,0.02097030,0.00009976,0.00038826,-0.00737719,-0.0
 0082468,0.00267364,-0.00450806,0.00033685,0.00098532,0.00069050,-0.000
 94641,0.00187392,-0.00215655,-0.00012459,-0.00065068,0.00063293,-0.000
 45991,-0.00179718,-0.00086655,0.00042264,-0.00221817,0.00115279,-0.001
 39285,0.00163488,-0.00007604,0.00638748,0.00291347,0.00022897,0.025842
 34,-0.00642967,0.03844431,-0.00458998,0.00049118,0.00160675,-0.0032745
 8,-0.00202206,0.00639414,0.00151331,-0.00080243,0.00033037,-0.00202465
 ,-0.00183538,-0.00179844,0.01227713,0.00209298,-0.00346945,-0.00767580
 ,-0.00721386,0.00118434,0.00014088,0.00007991,-0.00026767,-0.00165572,
 0.00160607,-0.00011518,-0.06038885,-0.01911878,0.02393356,-0.00998175,
 0.00176818,-0.00868440,0.10890016,-0.00460151,-0.00162229,0.00302497,0
 .00031765,0.00100822,0.00243422,0.00152272,-0.00126482,0.00073357,-0.0
 0218274,-0.00224826,-0.00040449,-0.00408944,-0.00051165,0.00137720,0.0
 0021383,0.00647265,-0.00160310,-0.00107447,0.00001510,0.00095601,-0.00
 019047,0.00182077,-0.00089190,-0.03857253,-0.02939299,0.01432091,0.003
 49621,0.00163988,0.00169771,0.01591430,0.10116909,0.00322965,-0.001544
 44,-0.00197617,0.00761557,0.00469827,-0.00367640,-0.00073288,0.0017318
 3,-0.00016233,-0.00080422,0.00177094,0.00071944,-0.00108710,0.00160745
 ,0.00018702,0.00188397,-0.00289412,0.00276602,0.00096390,-0.00000652,-
 0.00094266,0.00031999,0.00167220,0.00045311,0.02419503,0.00798809,-0.0
 2140681,-0.00826000,0.00000107,-0.00466599,-0.01855593,-0.04143467,0.0
 5148989,-0.00906957,-0.00955188,0.00831848,0.00072926,0.00094392,0.001
 07377,-0.00218689,0.00159488,-0.00144546,-0.00185423,-0.00114536,-0.00
 268310,-0.02569753,-0.01796925,0.01184711,-0.00046652,-0.00286176,0.00
 198170,0.00084333,0.00008856,-0.00069804,-0.00232878,-0.00130772,0.000
 47408,-0.00420429,0.00959276,-0.00600286,-0.00083649,-0.00036513,-0.00
 022274,-0.02417791,0.02015092,-0.00766071,0.30871870,-0.02114906,0.012
 78722,0.00292123,-0.00314362,-0.00567820,-0.00271393,-0.00144230,0.000
 17934,-0.00144015,-0.00123825,0.00038964,-0.00276424,0.00519454,-0.047
 07614,0.01829383,-0.00353322,-0.00517853,0.00302764,-0.00051473,-0.000
 30818,0.00047659,0.00329820,0.00079123,0.00134575,0.03223194,0.0111398
 7,-0.00487582,-0.00290514,0.00056829,-0.00136229,-0.00468570,-0.070160
 78,0.02650749,0.00136441,0.19762386,0.01522448,-0.00401199,0.00164838,
 -0.00086200,-0.00105723,-0.00686092,0.00003180,0.00045661,0.00018179,-
 0.00205120,-0.00285637,-0.00234783,0.00087972,0.02356516,-0.02662371,0
 .00095036,0.00184902,-0.00079208,-0.00025487,0.00004297,0.00017652,0.0
 0015549,-0.00144230,-0.00158733,-0.01134084,-0.00217851,0.00733616,0.0
 0024554,-0.00047141,0.00020329,0.00655420,0.02168512,-0.02598372,0.016
 59379,0.09112213,0.32941727,0.00180112,-0.00174773,0.00755705,0.000148
 74,-0.00155627,0.00345792,-0.00105197,-0.00097173,-0.00091180,-0.00163
 975,0.00609486,-0.00163661,0.00007927,0.00191859,-0.00060008,0.0064696
 0,0.00911038,-0.00394630,-0.02969644,-0.02272726,0.00540416,0.00582747
 ,-0.00318747,-0.00290610,-0.00555104,0.00412088,-0.02186233,-0.1682763
 5,-0.02919540,-0.01295387,0.00018137,-0.00232551,0.00053348,0.00100963
 ,-0.00015391,-0.00029316,0.29399408,-0.00033835,0.00007072,-0.00111824
 ,-0.00011216,0.00015326,0.00064909,0.00096482,0.00035696,-0.00065140,0
 .00273120,0.00043571,0.00233407,-0.00020262,-0.00026770,0.00061194,0.0
 0015923,-0.00356656,0.00883682,-0.03472770,-0.05739110,0.02003012,-0.0
 0096934,-0.00028611,0.00023697,0.00293445,-0.00387610,-0.00522291,-0.0
 2526799,-0.01290310,-0.00119441,-0.00071961,0.00025768,-0.00039541,-0.
 00066815,0.00001716,0.00082243,0.00635971,0.17787699,-0.00120734,0.001
 62251,-0.00124770,-0.00015088,0.00089701,-0.00043319,-0.00086436,-0.00
 018603,0.00048126,-0.00103859,0.00143506,-0.00089004,0.00065164,-0.001
 08743,-0.00027782,0.00043645,-0.00260398,-0.00181977,0.01491280,0.0263
 5122,-0.01721603,-0.00296384,-0.00021981,-0.00584652,-0.00092970,-0.00
 144200,0.00157774,-0.02855429,-0.00406971,-0.03313350,-0.00084105,0.00
 106280,-0.00129716,-0.00121995,-0.00025260,0.00009697,0.02176976,0.007
 02012,0.38279858,0.00005991,-0.00145183,-0.00050007,-0.00027067,0.0001
 0914,0.00026932,0.00024902,-0.00022613,0.00024227,0.00044315,0.0001177
 1,0.00029680,-0.00452914,-0.00457063,0.00214457,-0.00033205,0.00055732
 ,0.00004429,-0.00022210,-0.00003293,0.00000667,0.00027099,0.00018159,0
 .00014609,0.00186368,0.00101400,-0.00098694,-0.00055123,0.00020990,-0.
 00029655,-0.00584564,0.00622062,-0.00328444,-0.16871169,-0.04873491,-0
 .10645950,0.00023731,0.00000449,0.00035591,0.16233337,0.00044801,-0.00
 107377,0.00052042,0.00036114,0.00029906,0.00032998,0.00010873,-0.00012
 569,0.00016349,0.00059904,0.00003977,0.00034264,-0.00635034,-0.0025356
 3,-0.00166269,-0.00037474,0.00087666,-0.00057348,-0.00008900,-0.000006
 35,0.00006748,0.00025898,0.00013435,0.00005658,-0.00285521,-0.00027328
 ,0.00069535,0.00024340,-0.00000768,0.00002789,0.00602291,0.00361853,0.
 00346472,-0.04678038,-0.03289498,-0.04142392,0.00003250,-0.00002557,0.
 00030678,0.05147973,0.03513444,-0.00135746,0.00037105,0.00081258,-0.00
 006677,0.00022358,0.00082481,-0.00000293,-0.00036383,0.00003429,0.0008
 9051,0.00025302,0.00062571,0.00194434,-0.00194807,0.00401352,0.0002307
 3,0.00091572,0.00004887,-0.00033120,-0.00000298,0.00008372,0.00002263,
 -0.00011858,0.00007340,-0.00050007,0.00181857,-0.00087190,-0.00017848,
 0.00013204,-0.00003879,-0.00550330,0.00431776,-0.00285650,-0.10636273,
 -0.04310266,-0.10200639,0.00010051,-0.00001594,0.00038621,0.11597279,0
 .04462986,0.11268734,0.00068866,-0.00086205,-0.00063879,-0.00001559,0.
 00024592,0.00024331,0.00033438,-0.00003613,0.00023396,-0.00143510,0.00
 026230,0.00013569,-0.00198276,-0.00064925,0.00438910,-0.00011469,-0.00
 014331,0.00006402,-0.00003215,-0.00002006,-0.00008705,0.00024355,0.000
 30902,0.00011381,0.00217392,-0.00000565,0.00013359,-0.00018833,0.00015
 284,-0.00017244,-0.00310432,0.00552937,0.00083320,-0.07199901,0.044674
 23,0.08160437,0.00001103,-0.00001273,0.00024783,0.01487345,-0.00340160
 ,-0.00500050,0.06054610,0.00191421,-0.00011290,-0.00098654,-0.00022829
 ,0.00090020,0.00053161,0.00009801,-0.00001802,-0.00002609,-0.00002156,
 -0.00017030,0.00016001,-0.00199710,0.00435730,0.00399817,0.00077846,0.
 00060815,-0.00008223,0.00018278,0.00006067,-0.00007578,-0.00078111,-0.
 00027309,0.00013106,-0.00172698,-0.00144811,0.00026786,0.00030996,-0.0
 0008128,0.00028848,0.00730418,-0.00804874,-0.00419730,0.04497075,-0.06
 063556,-0.08586525,-0.00009617,-0.00017320,-0.00025601,-0.00453595,-0.
 00278997,-0.00671587,-0.04601367,0.06737009,0.00034275,0.00196977,-0.0
 0041364,-0.00107014,0.00029925,0.00086466,-0.00001048,-0.00031190,0.00
 013721,0.00020607,0.00011527,-0.00004185,0.00438197,0.00256899,-0.0053
 8212,0.00052955,-0.00018530,0.00024118,0.00035692,0.00000944,0.0000139
 7,-0.00075307,0.00016263,0.00014829,0.00117667,-0.00143231,-0.00052652
 ,0.00044791,0.00010234,0.00032692,0.00050632,-0.00421560,0.00630846,0.
 08238392,-0.08480632,-0.17317978,0.00005372,-0.00031167,-0.00053289,-0
 .00703800,-0.00664037,-0.01306716,-0.08144904,0.09209855,0.18393111,-0
 .00045857,0.00065745,-0.00274594,-0.00003632,0.00035123,-0.00005126,-0
 .00015746,-0.00011885,0.00053069,0.00019152,-0.00070638,0.00094010,-0.
 00004897,-0.00064080,0.00030672,0.00594759,-0.00482290,0.00046898,0.00
 095750,-0.00111394,0.00101833,-0.00101049,0.00250823,-0.00177503,0.001
 56887,-0.00117335,0.00208039,-0.01036940,0.00652944,-0.00032386,0.0002
 0294,0.00054453,-0.00022855,-0.00065165,0.00046175,0.00003163,-0.02527
 711,0.03640953,0.01520010,0.00006878,0.00003088,0.00007066,0.00006737,
 -0.00013681,-0.00015620,0.04329410,-0.00082963,0.00061421,-0.00287744,
 -0.00037888,0.00086442,0.00033789,-0.00037644,-0.00022917,0.00042865,-
 0.00139022,0.00100926,0.00137937,-0.00046938,-0.00127023,0.00018885,0.
 00332306,-0.00825316,-0.00018849,0.00227024,-0.00200143,0.00489971,-0.
 00306887,0.00190224,0.00252193,0.00442618,-0.00102215,-0.00129579,0.00
 497143,0.00327992,0.00143024,0.00059247,0.00076436,0.00052263,-0.00141
 139,0.00138867,-0.00058305,0.03911141,-0.08574925,-0.03588036,0.000512
 48,0.00028857,0.00045484,0.00013870,-0.00038551,-0.00048660,-0.0147372
 6,0.17563228,-0.00071852,-0.00116605,0.00189251,0.00041432,-0.00013232
 ,-0.00023311,0.00036015,-0.00011435,0.00031063,-0.00039499,0.00010742,
 0.00098460,0.00025110,0.00035039,-0.00029564,-0.00211398,0.00404596,-0
 .00310304,0.00052884,-0.00075471,0.00124715,-0.00103065,0.00331467,-0.
 00361948,-0.00113214,0.00132426,-0.00244878,0.00552379,0.00202196,0.00
 220109,0.00013098,-0.00069068,0.00049894,0.00068557,0.00000956,-0.0001
 9094,0.00749460,-0.03231337,-0.02274510,-0.00008997,-0.00006447,-0.000
 20419,-0.00000964,0.00006751,0.00017410,-0.02976613,-0.02392930,0.0703
 6923,0.00003451,-0.00026970,0.00024938,0.00006602,-0.00006573,-0.00024
 986,-0.00006521,0.00015485,-0.00034773,0.00009883,-0.00020776,-0.00009
 160,-0.00004030,0.00019246,-0.00002295,0.00041523,-0.00038271,0.000864
 55,0.00072391,-0.00021055,0.00246471,0.00009686,-0.00002173,0.00037601
 ,-0.00024647,0.00007783,0.00068396,0.00155985,0.00091144,-0.00793688,-
 0.00031229,-0.00030303,0.00016969,0.00038301,-0.00014526,-0.00005499,-
 0.03419956,0.00282043,-0.04490127,-0.00012314,-0.00005588,-0.00011830,
 -0.00008489,0.00015031,0.00018129,0.00139267,-0.00149107,0.00392646,0.
 02463750,-0.00000777,-0.00022269,-0.00005544,0.00000951,0.00017166,-0.
 00016088,0.00005221,-0.00001370,-0.00004392,-0.00002345,-0.00032775,-0
 .00034798,-0.00007850,0.00002439,-0.00002497,-0.00040236,0.00030527,-0
 .00020701,0.00295003,0.00129467,0.00265833,-0.00009376,0.00013433,0.00
 012367,0.00000293,0.00099585,0.00058388,0.00076731,-0.00074112,-0.0012
 8198,0.00002615,-0.00005184,0.00023120,-0.00000242,0.00002880,-0.00014
 709,0.00224424,-0.01701941,0.00665245,0.00002873,0.00001219,0.00002308
 ,-0.00001150,0.00002760,0.00004065,-0.00333317,0.00179568,-0.00467891,
 -0.00157314,0.01144044,0.00035581,-0.00077865,0.00002487,0.00013741,0.
 00011352,-0.00055616,0.00016157,0.00005383,-0.00043592,-0.00003557,-0.
 00037524,0.00000468,-0.00048226,0.00049548,0.00007444,0.00041410,0.000
 50030,-0.00088796,0.00094473,0.00253400,-0.00142709,0.00066686,0.00009
 255,0.00069155,0.00052317,0.00067588,0.00205231,-0.01485933,-0.0020358
 2,0.00176142,-0.00035433,-0.00015706,0.00007325,0.00120606,-0.00054247
 ,-0.00021356,-0.04491609,0.00901038,-0.25652803,-0.00043354,-0.0001677
 2,-0.00039307,-0.00033211,0.00041074,0.00071834,0.00336233,-0.00528943
 ,-0.00522127,0.04941034,-0.00350540,0.26487698,-0.00068256,-0.00060850
 ,-0.00065460,-0.00050901,0.00043798,-0.00064181,-0.00026800,0.00180020
 ,-0.00630157,0.00080475,-0.00000525,-0.00005974,-0.00066102,-0.0002550
 7,-0.00044172,-0.03977837,0.02504696,-0.00155235,-0.00278785,0.0125076
 9,0.01406475,-0.04845142,-0.01150295,-0.04563902,-0.00516907,0.0050189
 5,-0.00355298,0.00196830,-0.00147108,0.00125276,-0.00011753,-0.0007032
 6,0.00087210,0.00088772,0.00024263,-0.00094484,-0.04517662,0.01172668,
 0.02841102,0.00006722,0.00025430,0.00007411,-0.00001159,-0.00007548,0.
 00004460,-0.01589815,-0.02827148,0.01188212,0.00583469,-0.00079744,0.0
 0435434,0.18601840,0.00246190,-0.00308703,0.01033606,0.00142208,-0.002
 21654,-0.00115387,0.00382781,0.00111687,0.00105283,0.00395618,-0.00099
 354,-0.00501443,0.00154819,0.00298218,-0.00025674,0.00910532,-0.014948
 08,0.00524978,0.01742181,-0.07363328,-0.04579415,0.00572313,-0.0032375
 5,0.00329499,-0.02003642,0.00547805,-0.00228132,0.00490350,-0.00035316
 ,0.00050914,0.00076027,-0.00323389,0.00030443,0.00332444,-0.00298800,0
 .00041738,-0.00548493,0.00077317,-0.00232255,-0.00088714,-0.00068031,-
 0.00087686,-0.00014931,0.00079479,0.00102547,-0.02021606,-0.08959953,0
 .05225693,0.00046713,0.00232085,-0.00100790,0.00174875,0.20122596,0.00
 353031,-0.00146416,0.00271067,-0.00049363,-0.00230541,0.00049537,-0.00
 100727,-0.00127402,0.00087648,-0.00029929,-0.00014888,0.00041697,-0.00
 001043,0.00241325,0.00023819,-0.01077591,0.02042229,-0.02411331,0.0075
 0691,-0.04395832,-0.02336607,-0.03394994,-0.00462162,-0.06238646,-0.01
 190484,0.00582846,0.00119892,0.00438653,-0.00097021,0.00739997,-0.0011
 9423,-0.00245867,0.00019752,0.00210502,-0.00186376,0.00091592,0.042346
 57,-0.00821421,-0.04288780,-0.00048055,-0.00014693,-0.00023331,-0.0003
 4603,0.00037885,0.00039483,0.01244877,0.05732117,-0.04011512,-0.004654
 53,-0.00004255,-0.00510276,-0.00966280,-0.01775896,0.19593578,0.000327
 17,0.00096184,-0.00115544,-0.00030328,0.00031207,0.00060677,-0.0006663
 4,-0.00013941,-0.00024999,-0.00017660,0.00014831,0.00025285,-0.0001209
 7,-0.00045148,0.00012229,0.00262865,-0.00200798,0.00102926,-0.00377250
 ,0.00310611,0.00318911,-0.00221614,0.00010048,-0.00155592,0.00251938,-
 0.00118003,0.00045023,-0.00040543,0.00000023,0.00020693,-0.00014471,0.
 00028253,-0.00016564,-0.00080157,0.00039573,-0.00000554,0.00055769,-0.
 00022990,0.00206135,0.00025273,0.00013356,0.00025405,0.00006602,-0.000
 16835,-0.00026681,-0.00080138,-0.00165429,0.00358390,-0.00030312,0.000
 04847,-0.00056771,-0.02296664,-0.01567763,-0.00022358,0.20446775,0.000
 44646,0.00031935,0.00003649,-0.00011341,0.00001387,0.00026481,-0.00092
 930,0.00021292,-0.00051586,0.00021899,-0.00018238,-0.00029272,0.000000
 11,0.00016002,-0.00008626,0.00372978,-0.00087164,0.00114083,0.00115688
 ,0.00217033,-0.00005940,-0.00057385,0.00038275,-0.00077826,0.00006615,
 0.00042889,-0.00045958,0.00057437,0.00035376,0.00089593,-0.00027968,-0
 .00053765,0.00012987,0.00031505,-0.00014156,0.00006639,-0.00251649,0.0
 0175696,0.00298102,-0.00005848,-0.00001559,-0.00006774,-0.00003162,0.0
 0007246,0.00009165,-0.00048576,0.00200291,-0.00012848,-0.00008110,-0.0
 0031132,-0.00008781,-0.01285598,-0.02535177,-0.00057577,-0.10396327,0.
 16614884,0.00012455,0.00039435,-0.00099799,-0.00014828,0.00036737,0.00
 014301,-0.00004016,0.00014626,-0.00028322,0.00044716,0.00005469,-0.000
 27232,-0.00009910,-0.00021566,0.00013942,-0.00353465,-0.00175182,0.002
 68426,0.00481402,0.00111362,-0.00281845,-0.00067621,-0.00120363,0.0008
 2419,0.00081522,-0.00024203,-0.00023917,-0.00040592,0.00002634,-0.0001
 8817,0.00013056,0.00013687,0.00030258,-0.00034824,-0.00002616,-0.00020
 260,0.00151992,-0.00065857,-0.00065772,0.00008360,0.00006452,0.0000696
 0,0.00003533,-0.00012004,-0.00010436,-0.00161417,0.00062360,0.00115710
 ,0.00005388,0.00024557,0.00059581,0.00697879,0.00451566,-0.01602650,0.
 04239177,0.05808188,0.26637588,-0.00000871,-0.00015417,0.00013927,0.00
 000926,-0.00006770,-0.00010732,0.00025657,-0.00002035,-0.00000506,-0.0
 0009454,-0.00003100,0.00014427,0.00000467,0.00004982,0.00002381,-0.000
 09980,0.00076284,-0.00093667,-0.00071239,-0.00180118,0.00022829,0.0005
 1347,-0.00017348,-0.00013483,-0.00016107,0.00015757,0.00020196,-0.0001
 9064,-0.00005187,-0.00022644,-0.00006558,0.00004556,-0.00000310,0.0000
 8897,-0.00007674,0.00004802,-0.00015432,-0.00057518,-0.00080562,-0.000
 05187,-0.00002156,-0.00004714,-0.00002077,0.00002293,0.00003210,0.0007
 5690,-0.00103957,-0.00009884,0.00017003,0.00006101,0.00011729,-0.00437
 034,0.00653148,0.00730083,-0.05894527,0.06951016,0.06215253,0.05720530
 ,-0.00008925,-0.00013575,0.00029288,0.00010292,-0.00012481,-0.00008733
 ,0.00021256,-0.00009030,0.00014373,-0.00012680,0.00000367,0.00006404,0
 .00007365,0.00003481,-0.00001718,-0.00048290,0.00062233,-0.00082753,-0
 .00037024,-0.00009332,0.00013132,0.00034657,-0.00004740,0.00013907,-0.
 00047767,0.00014910,0.00001431,0.00003103,-0.00000908,-0.00006215,0.00
 005675,0.00000135,-0.00001455,0.00007411,-0.00002334,0.00004081,0.0002
 0793,-0.00024331,-0.00007465,-0.00002365,-0.00002517,-0.00003481,0.000
 00273,0.00002083,0.00002165,0.00022719,-0.00050307,0.00008484,-0.00003
 743,0.00001724,-0.00004872,0.00031338,0.00395192,0.00287972,0.06432225
 ,-0.11460371,-0.11275306,-0.06246618,0.10876130,-0.00003950,0.00006665
 ,-0.00007458,-0.00001200,0.00003127,-0.00001511,-0.00014630,0.00007678
 ,-0.00013573,0.00003007,-0.00000615,-0.00003454,-0.00000805,-0.0000038
 3,-0.00001752,0.00046372,-0.00024864,0.00052189,0.00023189,0.00033454,
 0.00007961,-0.00022098,0.00007751,-0.00015215,0.00014280,0.00001336,0.
 00000173,-0.00002246,-0.00000757,0.00000263,-0.00000369,-0.00000852,0.
 00000973,0.00001983,-0.00000290,-0.00000821,-0.00025031,0.00010565,0.0
 0005535,-0.00000865,0.00000016,-0.00000591,-0.00000128,0.00000429,0.00
 000656,-0.00000113,0.00006265,-0.00001770,0.00006611,-0.00000119,0.000
 08871,0.00254096,-0.00067542,-0.00161922,0.04675429,-0.09178839,-0.117
 90591,-0.05636096,0.10474791,0.13337533,-0.00023351,-0.00029128,0.0003
 1105,0.00010491,-0.00001172,-0.00020518,0.00017332,0.00024518,-0.00009
 527,0.00016485,-0.00008082,-0.00021885,0.00004865,0.00013982,-0.000080
 62,-0.00176994,-0.00027184,0.00069329,0.00123888,0.00081380,0.00007203
 ,0.00070478,-0.00023705,0.00091915,-0.00106190,0.00055050,-0.00039760,
 0.00013726,-0.00002811,0.00001687,0.00014353,-0.00019529,0.00016599,0.
 00032549,-0.00014061,-0.00005244,0.00070583,-0.00028680,-0.00056998,-0
 .00008206,-0.00004447,-0.00009144,-0.00001529,0.00004989,0.00009995,0.
 00026127,-0.00022747,0.00057304,-0.00003812,0.00013292,0.00032694,-0.0
 0873293,-0.00075052,-0.00462189,-0.11919545,0.04587099,-0.11268060,0.0
 0587014,-0.00189694,0.00682562,0.12125028,0.00002594,0.00022175,-0.000
 47659,-0.00009670,0.00010543,0.00011462,0.00009987,-0.00007397,0.00007
 204,-0.00006438,0.00008303,0.00013331,-0.00010576,-0.00017305,0.000095
 73,0.00027526,-0.00051609,0.00019701,0.00041825,-0.00010054,-0.0002972
 4,-0.00059311,0.00000765,-0.00003069,0.00102758,-0.00060441,0.00037793
 ,-0.00040560,-0.00009566,-0.00032237,-0.00003783,0.00030526,-0.0001431
 7,-0.00035637,0.00017120,-0.00003089,0.00076235,-0.00019718,0.00006617
 ,0.00008593,0.00005041,0.00010782,0.00002176,-0.00007542,-0.00011558,-
 0.00023498,-0.00052903,0.00038912,0.00007065,0.00011886,0.00010955,-0.
 00255102,0.00167889,-0.00344029,0.05566074,-0.03200747,0.05120023,-0.0
 1066240,0.00233670,-0.01277818,-0.04334017,0.02929364,-0.00004331,0.00
 000855,-0.00000819,-0.00002665,0.00005482,-0.00006515,-0.00003737,0.00
 006198,0.00003104,-0.00009003,0.00006667,0.00009354,-0.00003274,-0.000
 02961,-0.00002837,0.00006710,-0.00017615,0.00001089,-0.00016298,-0.000
 26881,0.00014662,0.00028095,0.00017274,-0.00052125,0.00023864,-0.00019
 447,0.00007535,0.00003131,-0.00005812,-0.00003398,0.00001642,0.0001175
 3,-0.00003819,-0.00004550,0.00004910,0.00002078,0.00003895,0.00043854,
 0.00011718,0.00001589,0.00000972,0.00001717,0.00000269,-0.00001202,-0.
 00001732,0.00020358,0.00035895,-0.00064097,-0.00006824,-0.00006152,-0.
 00019653,-0.00102410,-0.00182047,0.00506994,-0.09671215,0.03115141,-0.
 13259546,-0.01166242,0.00535969,-0.01415494,0.10900995,-0.03522853,0.1
 4271785\\0.00000350,0.00001969,0.00001705,-0.00000031,-0.00000046,-0.0
 0000378,-0.00001268,-0.00000745,-0.00000955,-0.00000662,-0.00000018,-0
 .00001065,-0.00000025,0.00000094,-0.00000788,0.00001012,0.00001293,-0.
 00000267,-0.00000627,-0.00001509,0.00000680,0.00000729,-0.00000495,0.0
 0001194,0.00001764,0.00000450,0.00002950,-0.00000641,0.00000352,-0.000
 00622,-0.00001051,0.00000183,-0.00000827,0.00000247,-0.00001605,0.0000
 0367,0.00001275,-0.00000818,-0.00000777,-0.00000087,0.00000133,-0.0000
 0194,0.00000008,0.00000387,-0.00000092,-0.00000054,-0.00000483,-0.0000
 0072,-0.00001101,0.00000639,0.00000256,0.00000070,0.00000719,-0.000009
 44,0.00000190,-0.00000212,-0.00000806,-0.00000098,-0.00000136,-0.00000
 252,0.,-0.00000152,0.00000888\\\@
 The archive entry for this job was punched.


 A leading authority is anyone who has guessed right more than once.
 -- Frank A. Clark
 Job cpu time:       0 days  2 hours 32 minutes 28.7 seconds.
 Elapsed time:       0 days  0 hours  3 minutes 20.3 seconds.
 File lengths (MBytes):  RWF=    526 Int=      0 D2E=      0 Chk=     14 Scr=      2
 Normal termination of Gaussian 16 at Fri Dec  9 13:37:09 2022.
