 Entering Gaussian System, Link 0=g16
 Initial command:
 /home/chesagar/softwares/G16_AVX2//g16/l1.exe "/home/chesagar/scratch/Gau-38814.inp" -scrdir="/home/chesagar/scratch/"
 Entering Link 1 = /home/chesagar/softwares/G16_AVX2//g16/l1.exe PID=     38815.
  
 Copyright (c) 1988-2019, Gaussian, Inc.  All Rights Reserved.
  
 This is part of the Gaussian(R) 16 program.  It is based on
 the Gaussian(R) 09 system (copyright 2009, Gaussian, Inc.),
 the Gaussian(R) 03 system (copyright 2003, Gaussian, Inc.),
 the Gaussian(R) 98 system (copyright 1998, Gaussian, Inc.),
 the Gaussian(R) 94 system (copyright 1995, Gaussian, Inc.),
 the Gaussian 92(TM) system (copyright 1992, Gaussian, Inc.),
 the Gaussian 90(TM) system (copyright 1990, Gaussian, Inc.),
 the Gaussian 88(TM) system (copyright 1988, Gaussian, Inc.),
 the Gaussian 86(TM) system (copyright 1986, Carnegie Mellon
 University), and the Gaussian 82(TM) system (copyright 1983,
 Carnegie Mellon University). Gaussian is a federally registered
 trademark of Gaussian, Inc.
  
 This software contains proprietary and confidential information,
 including trade secrets, belonging to Gaussian, Inc.
  
 This software is provided under written license and may be
 used, copied, transmitted, or stored only in accord with that
 written license.
  
 The following legend is applicable only to US Government
 contracts under FAR:
  
                    RESTRICTED RIGHTS LEGEND
  
 Use, reproduction and disclosure by the US Government is
 subject to restrictions as set forth in subparagraphs (a)
 and (c) of the Commercial Computer Software - Restricted
 Rights clause in FAR 52.227-19.
  
 Gaussian, Inc.
 340 Quinnipiac St., Bldg. 40, Wallingford CT 06492
  
  
 ---------------------------------------------------------------
 Warning -- This program may not be used in any manner that
 competes with the business of Gaussian, Inc. or will provide
 assistance to any competitor of Gaussian, Inc.  The licensee
 of this program is prohibited from giving any competitor of
 Gaussian, Inc. access to this program.  By using this program,
 the user acknowledges that Gaussian, Inc. is engaged in the
 business of creating and licensing software in the field of
 computational chemistry and represents and warrants to the
 licensee that it is not a competitor of Gaussian, Inc. and that
 it will not use this program in any manner prohibited above.
 ---------------------------------------------------------------
  

 Cite this work as:
 Gaussian 16, Revision C.01,
 M. J. Frisch, G. W. Trucks, H. B. Schlegel, G. E. Scuseria, 
 M. A. Robb, J. R. Cheeseman, G. Scalmani, V. Barone, 
 G. A. Petersson, H. Nakatsuji, X. Li, M. Caricato, A. V. Marenich, 
 J. Bloino, B. G. Janesko, R. Gomperts, B. Mennucci, H. P. Hratchian, 
 J. V. Ortiz, A. F. Izmaylov, J. L. Sonnenberg, D. Williams-Young, 
 F. Ding, F. Lipparini, F. Egidi, J. Goings, B. Peng, A. Petrone, 
 T. Henderson, D. Ranasinghe, V. G. Zakrzewski, J. Gao, N. Rega, 
 G. Zheng, W. Liang, M. Hada, M. Ehara, K. Toyota, R. Fukuda, 
 J. Hasegawa, M. Ishida, T. Nakajima, Y. Honda, O. Kitao, H. Nakai, 
 T. Vreven, K. Throssell, J. A. Montgomery, Jr., J. E. Peralta, 
 F. Ogliaro, M. J. Bearpark, J. J. Heyd, E. N. Brothers, K. N. Kudin, 
 V. N. Staroverov, T. A. Keith, R. Kobayashi, J. Normand, 
 K. Raghavachari, A. P. Rendell, J. C. Burant, S. S. Iyengar, 
 J. Tomasi, M. Cossi, J. M. Millam, M. Klene, C. Adamo, R. Cammi, 
 J. W. Ochterski, R. L. Martin, K. Morokuma, O. Farkas, 
 J. B. Foresman, and D. J. Fox, Gaussian, Inc., Wallingford CT, 2019.
 
 ******************************************
 Gaussian 16:  ES64L-G16RevC.01  3-Jul-2019
                 9-Dec-2022 
 ******************************************
 %nprocshared=46
 Will use up to   46 processors via shared memory.
 %mem=100GB
 -----------------------------------------------------------
 # opt=(calcfc,ts,noeigen) freq b3lyp/gen nosymm pseudo=read
 -----------------------------------------------------------
 1/5=1,10=4,11=1,18=20,26=3,38=1/1,3;
 2/9=110,12=2,15=1,17=6,18=5,40=1/2;
 3/5=7,11=2,16=1,17=8,25=1,30=1,71=2,74=-5,140=1/1,2,3;
 4//1;
 5/5=2,38=5/2;
 8/6=4,10=90,11=11/1;
 11/6=1,8=1,9=11,15=111,16=1,31=1/1,2,10;
 10/6=1,13=1,31=1/2;
 6/7=2,8=2,9=2,10=2,28=1/1;
 7/10=1,25=1,30=1/1,2,3,16;
 1/5=1,10=4,11=1,18=20,26=3/3(2);
 2/9=110,15=1/2;
 99//99;
 2/9=110,15=1/2;
 3/5=7,6=1,11=2,16=1,17=8,25=1,30=1,71=1,74=-5,82=7/1,2,3;
 4/5=5,16=3,69=1/1;
 5/5=2,38=5/2;
 7/30=1/1,2,3,16;
 1/5=1,11=1,18=20,26=3/3(-5);
 2/9=110,15=1/2;
 6/7=2,8=2,9=2,10=2,19=2,28=1/1;
 99/9=1/99;
 -------------------
 Title Card Required
 -------------------
 Symbolic Z-matrix:
 Charge =  0 Multiplicity = 1
 42                    0.09343   1.1787    11.80767 
 16                    0.68355   3.19284   12.66901 
 16                   -2.16604   0.82931   12.35744 
 16                   -0.25846   1.2066    9.42984 
 16                    1.99505  -0.04848   11.85143 
 42                   -2.30884   2.0439    10.36801 
 16                   -3.45337   1.84499   8.29914 
 16                   -2.07393   4.17757   11.22171 
 42                    0.14666   3.33412   10.33744 
 16                   -0.36759   4.21615   7.83156 
 16                    2.31798   3.75949   9.57384 
 42                    3.02883   1.68837   10.48201 
 42                   -2.45741   3.70835   7.30323 
 16                    4.70766   2.2079    11.66209 
 16                    3.72851   0.62038   8.7939 
 16                   -3.82007   5.44585   7.94566 
 16                   -2.71762   3.53009   5.20961 
 42                   -4.10569   4.11713   9.83029 
 16                   -6.22756   3.04854   10.23175 
 1                    -6.44555   4.40494   11.27371 
 16                   -4.71212   5.81589   11.31293 
 1                    -6.16413   4.94778   11.49423 
 
 Add virtual bond connecting atoms H20        and S19        Dist= 3.26D+00.
 Add virtual bond connecting atoms H22        and S21        Dist= 3.22D+00.

 GradGradGradGradGradGradGradGradGradGradGradGradGradGradGradGradGradGrad
 Berny optimization.
 Initialization pass.
                           ----------------------------
                           !    Initial Parameters    !
                           ! (Angstroms and Degrees)  !
 --------------------------                            --------------------------
 ! Name  Definition              Value          Derivative Info.                !
 --------------------------------------------------------------------------------
 ! R1    R(1,2)                  2.2687         calculate D2E/DX2 analytically  !
 ! R2    R(1,3)                  2.3515         calculate D2E/DX2 analytically  !
 ! R3    R(1,4)                  2.4039         calculate D2E/DX2 analytically  !
 ! R4    R(1,5)                  2.2636         calculate D2E/DX2 analytically  !
 ! R5    R(1,6)                  2.9312         calculate D2E/DX2 analytically  !
 ! R6    R(1,9)                  2.6096         calculate D2E/DX2 analytically  !
 ! R7    R(2,9)                  2.3968         calculate D2E/DX2 analytically  !
 ! R8    R(3,6)                  2.3353         calculate D2E/DX2 analytically  !
 ! R9    R(4,6)                  2.4053         calculate D2E/DX2 analytically  !
 ! R10   R(4,9)                  2.3482         calculate D2E/DX2 analytically  !
 ! R11   R(5,12)                 2.4414         calculate D2E/DX2 analytically  !
 ! R12   R(6,7)                  2.3727         calculate D2E/DX2 analytically  !
 ! R13   R(6,8)                  2.3101         calculate D2E/DX2 analytically  !
 ! R14   R(6,9)                  2.774          calculate D2E/DX2 analytically  !
 ! R15   R(6,18)                 2.7957         calculate D2E/DX2 analytically  !
 ! R16   R(7,13)                 2.3358         calculate D2E/DX2 analytically  !
 ! R17   R(8,9)                  2.5346         calculate D2E/DX2 analytically  !
 ! R18   R(8,18)                 2.4633         calculate D2E/DX2 analytically  !
 ! R19   R(9,10)                 2.7059         calculate D2E/DX2 analytically  !
 ! R20   R(9,11)                 2.3407         calculate D2E/DX2 analytically  !
 ! R21   R(10,13)                2.2146         calculate D2E/DX2 analytically  !
 ! R22   R(11,12)                2.3706         calculate D2E/DX2 analytically  !
 ! R23   R(12,14)                2.1168         calculate D2E/DX2 analytically  !
 ! R24   R(12,15)                2.1166         calculate D2E/DX2 analytically  !
 ! R25   R(13,16)                2.2997         calculate D2E/DX2 analytically  !
 ! R26   R(13,17)                2.1172         calculate D2E/DX2 analytically  !
 ! R27   R(13,18)                3.0447         calculate D2E/DX2 analytically  !
 ! R28   R(16,18)                2.3236         calculate D2E/DX2 analytically  !
 ! R29   R(18,19)                2.4094         calculate D2E/DX2 analytically  !
 ! R30   R(18,21)                2.3349         calculate D2E/DX2 analytically  !
 ! R31   R(19,20)                1.7242         calculate D2E/DX2 analytically  !
 ! R32   R(20,22)                0.65           calculate D2E/DX2 analytically  !
 ! R33   R(21,22)                1.7014         calculate D2E/DX2 analytically  !
 ! A1    A(2,1,3)              107.0426         calculate D2E/DX2 analytically  !
 ! A2    A(2,1,4)              113.7861         calculate D2E/DX2 analytically  !
 ! A3    A(2,1,5)              104.8003         calculate D2E/DX2 analytically  !
 ! A4    A(2,1,6)               97.909          calculate D2E/DX2 analytically  !
 ! A5    A(3,1,4)               95.2977         calculate D2E/DX2 analytically  !
 ! A6    A(3,1,5)              136.2303         calculate D2E/DX2 analytically  !
 ! A7    A(3,1,9)              105.9045         calculate D2E/DX2 analytically  !
 ! A8    A(4,1,5)               98.5334         calculate D2E/DX2 analytically  !
 ! A9    A(5,1,6)              149.0914         calculate D2E/DX2 analytically  !
 ! A10   A(5,1,9)              116.2013         calculate D2E/DX2 analytically  !
 ! A11   A(1,5,12)              87.6616         calculate D2E/DX2 analytically  !
 ! A12   A(1,6,7)              143.019          calculate D2E/DX2 analytically  !
 ! A13   A(1,6,8)               90.4457         calculate D2E/DX2 analytically  !
 ! A14   A(1,6,18)             147.1486         calculate D2E/DX2 analytically  !
 ! A15   A(3,6,4)               95.6874         calculate D2E/DX2 analytically  !
 ! A16   A(3,6,7)              136.7787         calculate D2E/DX2 analytically  !
 ! A17   A(3,6,8)               99.1686         calculate D2E/DX2 analytically  !
 ! A18   A(3,6,9)              101.3712         calculate D2E/DX2 analytically  !
 ! A19   A(3,6,18)             126.0755         calculate D2E/DX2 analytically  !
 ! A20   A(4,6,7)               92.4027         calculate D2E/DX2 analytically  !
 ! A21   A(4,6,8)              112.2705         calculate D2E/DX2 analytically  !
 ! A22   A(4,6,18)             136.9714         calculate D2E/DX2 analytically  !
 ! A23   A(7,6,8)              116.6611         calculate D2E/DX2 analytically  !
 ! A24   A(7,6,9)              117.1534         calculate D2E/DX2 analytically  !
 ! A25   A(7,6,18)              65.4451         calculate D2E/DX2 analytically  !
 ! A26   A(9,6,18)             102.8197         calculate D2E/DX2 analytically  !
 ! A27   A(6,7,13)              95.694          calculate D2E/DX2 analytically  !
 ! A28   A(9,8,18)             121.1573         calculate D2E/DX2 analytically  !
 ! A29   A(1,9,8)               93.4646         calculate D2E/DX2 analytically  !
 ! A30   A(1,9,10)             141.9147         calculate D2E/DX2 analytically  !
 ! A31   A(1,9,11)             110.6597         calculate D2E/DX2 analytically  !
 ! A32   A(2,9,4)              111.1759         calculate D2E/DX2 analytically  !
 ! A33   A(2,9,6)               99.2158         calculate D2E/DX2 analytically  !
 ! A34   A(2,9,8)               82.9049         calculate D2E/DX2 analytically  !
 ! A35   A(2,9,10)             164.2979         calculate D2E/DX2 analytically  !
 ! A36   A(2,9,11)              96.9078         calculate D2E/DX2 analytically  !
 ! A37   A(4,9,8)              106.5702         calculate D2E/DX2 analytically  !
 ! A38   A(4,9,10)              84.5262         calculate D2E/DX2 analytically  !
 ! A39   A(4,9,11)             101.4551         calculate D2E/DX2 analytically  !
 ! A40   A(6,9,10)              89.6326         calculate D2E/DX2 analytically  !
 ! A41   A(6,9,11)             155.404          calculate D2E/DX2 analytically  !
 ! A42   A(8,9,10)              92.7578         calculate D2E/DX2 analytically  !
 ! A43   A(8,9,11)             150.0037         calculate D2E/DX2 analytically  !
 ! A44   A(10,9,11)             79.3353         calculate D2E/DX2 analytically  !
 ! A45   A(9,10,13)            108.9978         calculate D2E/DX2 analytically  !
 ! A46   A(9,11,12)             89.68           calculate D2E/DX2 analytically  !
 ! A47   A(5,12,11)            135.19           calculate D2E/DX2 analytically  !
 ! A48   A(5,12,14)            101.4041         calculate D2E/DX2 analytically  !
 ! A49   A(5,12,15)            103.201          calculate D2E/DX2 analytically  !
 ! A50   A(11,12,14)           103.7075         calculate D2E/DX2 analytically  !
 ! A51   A(11,12,15)           103.5575         calculate D2E/DX2 analytically  !
 ! A52   A(14,12,15)           107.836          calculate D2E/DX2 analytically  !
 ! A53   A(7,13,10)            118.9192         calculate D2E/DX2 analytically  !
 ! A54   A(7,13,16)            103.3538         calculate D2E/DX2 analytically  !
 ! A55   A(7,13,17)            107.5806         calculate D2E/DX2 analytically  !
 ! A56   A(7,13,18)             61.4702         calculate D2E/DX2 analytically  !
 ! A57   A(10,13,16)           108.6188         calculate D2E/DX2 analytically  !
 ! A58   A(10,13,17)           111.789          calculate D2E/DX2 analytically  !
 ! A59   A(10,13,18)           106.3838         calculate D2E/DX2 analytically  !
 ! A60   A(16,13,17)           105.4877         calculate D2E/DX2 analytically  !
 ! A61   A(17,13,18)           139.952          calculate D2E/DX2 analytically  !
 ! A62   A(6,18,13)             73.2695         calculate D2E/DX2 analytically  !
 ! A63   A(6,18,16)            120.0705         calculate D2E/DX2 analytically  !
 ! A64   A(6,18,19)            101.8333         calculate D2E/DX2 analytically  !
 ! A65   A(6,18,21)            125.7556         calculate D2E/DX2 analytically  !
 ! A66   A(8,18,13)             91.4671         calculate D2E/DX2 analytically  !
 ! A67   A(8,18,16)            110.0439         calculate D2E/DX2 analytically  !
 ! A68   A(8,18,19)            130.0262         calculate D2E/DX2 analytically  !
 ! A69   A(8,18,21)             80.659          calculate D2E/DX2 analytically  !
 ! A70   A(13,18,19)           123.7454         calculate D2E/DX2 analytically  !
 ! A71   A(13,18,21)           139.9363         calculate D2E/DX2 analytically  !
 ! A72   A(16,18,19)           119.8029         calculate D2E/DX2 analytically  !
 ! A73   A(16,18,21)            97.5225         calculate D2E/DX2 analytically  !
 ! A74   A(19,18,21)            89.3206         calculate D2E/DX2 analytically  !
 ! A75   A(18,19,20)            82.1338         calculate D2E/DX2 analytically  !
 ! A76   A(19,20,22)           143.8281         calculate D2E/DX2 analytically  !
 ! A77   A(18,21,22)            85.3021         calculate D2E/DX2 analytically  !
 ! A78   A(20,22,21)           139.4154         calculate D2E/DX2 analytically  !
 ! D1    D(2,1,5,12)           -57.5488         calculate D2E/DX2 analytically  !
 ! D2    D(3,1,5,12)           166.8875         calculate D2E/DX2 analytically  !
 ! D3    D(4,1,5,12)            59.9338         calculate D2E/DX2 analytically  !
 ! D4    D(6,1,5,12)            78.3732         calculate D2E/DX2 analytically  !
 ! D5    D(9,1,5,12)             4.1038         calculate D2E/DX2 analytically  !
 ! D6    D(2,1,6,7)            134.9611         calculate D2E/DX2 analytically  !
 ! D7    D(2,1,6,8)             -4.1762         calculate D2E/DX2 analytically  !
 ! D8    D(2,1,6,18)            -6.5791         calculate D2E/DX2 analytically  !
 ! D9    D(5,1,6,7)             -2.272          calculate D2E/DX2 analytically  !
 ! D10   D(5,1,6,8)           -141.4093         calculate D2E/DX2 analytically  !
 ! D11   D(5,1,6,18)          -143.8122         calculate D2E/DX2 analytically  !
 ! D12   D(3,1,9,8)             21.9307         calculate D2E/DX2 analytically  !
 ! D13   D(3,1,9,10)           -77.0091         calculate D2E/DX2 analytically  !
 ! D14   D(3,1,9,11)          -176.2454         calculate D2E/DX2 analytically  !
 ! D15   D(5,1,9,8)           -170.3615         calculate D2E/DX2 analytically  !
 ! D16   D(5,1,9,10)            90.6987         calculate D2E/DX2 analytically  !
 ! D17   D(5,1,9,11)            -8.5376         calculate D2E/DX2 analytically  !
 ! D18   D(1,4,6,9)             69.8804         calculate D2E/DX2 analytically  !
 ! D19   D(1,5,12,11)            1.2101         calculate D2E/DX2 analytically  !
 ! D20   D(1,5,12,14)          124.3071         calculate D2E/DX2 analytically  !
 ! D21   D(1,5,12,15)         -124.0847         calculate D2E/DX2 analytically  !
 ! D22   D(1,6,7,13)           -91.5482         calculate D2E/DX2 analytically  !
 ! D23   D(3,6,7,13)          -175.9869         calculate D2E/DX2 analytically  !
 ! D24   D(4,6,7,13)           -75.0639         calculate D2E/DX2 analytically  !
 ! D25   D(8,6,7,13)            41.392          calculate D2E/DX2 analytically  !
 ! D26   D(9,6,7,13)           -25.6041         calculate D2E/DX2 analytically  !
 ! D27   D(18,6,7,13)           66.6783         calculate D2E/DX2 analytically  !
 ! D28   D(3,6,9,2)            -20.7954         calculate D2E/DX2 analytically  !
 ! D29   D(3,6,9,10)           172.2351         calculate D2E/DX2 analytically  !
 ! D30   D(3,6,9,11)           109.5347         calculate D2E/DX2 analytically  !
 ! D31   D(7,6,9,2)            179.3996         calculate D2E/DX2 analytically  !
 ! D32   D(7,6,9,10)            12.4301         calculate D2E/DX2 analytically  !
 ! D33   D(7,6,9,11)           -50.2703         calculate D2E/DX2 analytically  !
 ! D34   D(18,6,9,2)           110.6389         calculate D2E/DX2 analytically  !
 ! D35   D(18,6,9,10)          -56.3306         calculate D2E/DX2 analytically  !
 ! D36   D(18,6,9,11)         -119.0311         calculate D2E/DX2 analytically  !
 ! D37   D(1,6,18,13)          108.6561         calculate D2E/DX2 analytically  !
 ! D38   D(1,6,18,16)           95.5594         calculate D2E/DX2 analytically  !
 ! D39   D(1,6,18,19)         -129.3606         calculate D2E/DX2 analytically  !
 ! D40   D(1,6,18,21)          -31.548          calculate D2E/DX2 analytically  !
 ! D41   D(3,6,18,13)         -178.2313         calculate D2E/DX2 analytically  !
 ! D42   D(3,6,18,16)          168.6721         calculate D2E/DX2 analytically  !
 ! D43   D(3,6,18,19)          -56.2479         calculate D2E/DX2 analytically  !
 ! D44   D(3,6,18,21)           41.5646         calculate D2E/DX2 analytically  !
 ! D45   D(4,6,18,13)           17.9901         calculate D2E/DX2 analytically  !
 ! D46   D(4,6,18,16)            4.8935         calculate D2E/DX2 analytically  !
 ! D47   D(4,6,18,19)          139.9735         calculate D2E/DX2 analytically  !
 ! D48   D(4,6,18,21)         -122.214          calculate D2E/DX2 analytically  !
 ! D49   D(7,6,18,13)          -47.0546         calculate D2E/DX2 analytically  !
 ! D50   D(7,6,18,16)          -60.1513         calculate D2E/DX2 analytically  !
 ! D51   D(7,6,18,19)           74.9287         calculate D2E/DX2 analytically  !
 ! D52   D(7,6,18,21)          172.7413         calculate D2E/DX2 analytically  !
 ! D53   D(9,6,18,13)           67.1885         calculate D2E/DX2 analytically  !
 ! D54   D(9,6,18,16)           54.0919         calculate D2E/DX2 analytically  !
 ! D55   D(9,6,18,19)         -170.8281         calculate D2E/DX2 analytically  !
 ! D56   D(9,6,18,21)          -73.0155         calculate D2E/DX2 analytically  !
 ! D57   D(6,7,13,10)           33.0057         calculate D2E/DX2 analytically  !
 ! D58   D(6,7,13,16)          -87.3944         calculate D2E/DX2 analytically  !
 ! D59   D(6,7,13,17)          161.3141         calculate D2E/DX2 analytically  !
 ! D60   D(6,7,13,18)          -60.8048         calculate D2E/DX2 analytically  !
 ! D61   D(18,8,9,1)          -107.01           calculate D2E/DX2 analytically  !
 ! D62   D(18,8,9,2)          -159.754          calculate D2E/DX2 analytically  !
 ! D63   D(18,8,9,4)           -49.7092         calculate D2E/DX2 analytically  !
 ! D64   D(18,8,9,10)           35.3972         calculate D2E/DX2 analytically  !
 ! D65   D(18,8,9,11)          108.7099         calculate D2E/DX2 analytically  !
 ! D66   D(9,8,18,13)          -16.1328         calculate D2E/DX2 analytically  !
 ! D67   D(9,8,18,16)          -61.977          calculate D2E/DX2 analytically  !
 ! D68   D(9,8,18,19)          122.2143         calculate D2E/DX2 analytically  !
 ! D69   D(9,8,18,21)         -156.6355         calculate D2E/DX2 analytically  !
 ! D70   D(1,9,10,13)           55.4874         calculate D2E/DX2 analytically  !
 ! D71   D(2,9,10,13)         -117.0998         calculate D2E/DX2 analytically  !
 ! D72   D(4,9,10,13)           62.6989         calculate D2E/DX2 analytically  !
 ! D73   D(6,9,10,13)            7.5787         calculate D2E/DX2 analytically  !
 ! D74   D(8,9,10,13)          -43.6934         calculate D2E/DX2 analytically  !
 ! D75   D(11,9,10,13)         165.4703         calculate D2E/DX2 analytically  !
 ! D76   D(1,9,11,12)            6.6643         calculate D2E/DX2 analytically  !
 ! D77   D(2,9,11,12)           60.3778         calculate D2E/DX2 analytically  !
 ! D78   D(4,9,11,12)          -52.9392         calculate D2E/DX2 analytically  !
 ! D79   D(6,9,11,12)          -70.3348         calculate D2E/DX2 analytically  !
 ! D80   D(8,9,11,12)          148.1429         calculate D2E/DX2 analytically  !
 ! D81   D(10,9,11,12)        -135.0534         calculate D2E/DX2 analytically  !
 ! D82   D(9,10,13,7)          -27.9219         calculate D2E/DX2 analytically  !
 ! D83   D(9,10,13,16)          89.7603         calculate D2E/DX2 analytically  !
 ! D84   D(9,10,13,17)        -154.2547         calculate D2E/DX2 analytically  !
 ! D85   D(9,10,13,18)          38.1041         calculate D2E/DX2 analytically  !
 ! D86   D(9,11,12,5)           -5.8261         calculate D2E/DX2 analytically  !
 ! D87   D(9,11,12,14)        -128.1239         calculate D2E/DX2 analytically  !
 ! D88   D(9,11,12,15)         119.3486         calculate D2E/DX2 analytically  !
 ! D89   D(7,13,18,6)           50.3363         calculate D2E/DX2 analytically  !
 ! D90   D(7,13,18,8)           99.3477         calculate D2E/DX2 analytically  !
 ! D91   D(7,13,18,19)         -42.9142         calculate D2E/DX2 analytically  !
 ! D92   D(7,13,18,21)         176.5326         calculate D2E/DX2 analytically  !
 ! D93   D(10,13,18,6)         -64.1124         calculate D2E/DX2 analytically  !
 ! D94   D(10,13,18,8)         -15.101          calculate D2E/DX2 analytically  !
 ! D95   D(10,13,18,19)       -157.3628         calculate D2E/DX2 analytically  !
 ! D96   D(10,13,18,21)         62.084          calculate D2E/DX2 analytically  !
 ! D97   D(17,13,18,6)         133.8793         calculate D2E/DX2 analytically  !
 ! D98   D(17,13,18,8)        -177.1093         calculate D2E/DX2 analytically  !
 ! D99   D(17,13,18,19)         40.6289         calculate D2E/DX2 analytically  !
 ! D100  D(17,13,18,21)        -99.9243         calculate D2E/DX2 analytically  !
 ! D101  D(6,18,19,20)         126.4823         calculate D2E/DX2 analytically  !
 ! D102  D(8,18,19,20)          77.1773         calculate D2E/DX2 analytically  !
 ! D103  D(13,18,19,20)       -155.8597         calculate D2E/DX2 analytically  !
 ! D104  D(16,18,19,20)        -98.2845         calculate D2E/DX2 analytically  !
 ! D105  D(21,18,19,20)          0.0            calculate D2E/DX2 analytically  !
 ! D106  D(6,18,21,22)        -104.1329         calculate D2E/DX2 analytically  !
 ! D107  D(8,18,21,22)        -130.8269         calculate D2E/DX2 analytically  !
 ! D108  D(13,18,21,22)        148.106          calculate D2E/DX2 analytically  !
 ! D109  D(16,18,21,22)        119.9869         calculate D2E/DX2 analytically  !
 ! D110  D(19,18,21,22)          0.0            calculate D2E/DX2 analytically  !
 ! D111  D(18,19,20,22)          0.0            calculate D2E/DX2 analytically  !
 ! D112  D(19,20,22,21)          0.0            calculate D2E/DX2 analytically  !
 ! D113  D(18,21,22,20)          0.0            calculate D2E/DX2 analytically  !
 --------------------------------------------------------------------------------
 Trust Radius=3.00D-01 FncErr=1.00D-07 GrdErr=1.00D-06 EigMax=2.50D+02 EigMin=1.00D-04
 Number of steps in this run=    132 maximum allowed number of steps=    132.
 Search for a saddle point of order  1.
 GradGradGradGradGradGradGradGradGradGradGradGradGradGradGradGradGradGrad

                          Input orientation:                          
 ---------------------------------------------------------------------
 Center     Atomic      Atomic             Coordinates (Angstroms)
 Number     Number       Type             X           Y           Z
 ---------------------------------------------------------------------
      1         42           0        0.093433    1.178702   11.807672
      2         16           0        0.683551    3.192841   12.669013
      3         16           0       -2.166041    0.829310   12.357444
      4         16           0       -0.258457    1.206603    9.429844
      5         16           0        1.995047   -0.048482   11.851428
      6         42           0       -2.308844    2.043896   10.368005
      7         16           0       -3.453372    1.844985    8.299141
      8         16           0       -2.073933    4.177571   11.221710
      9         42           0        0.146658    3.334119   10.337441
     10         16           0       -0.367590    4.216152    7.831558
     11         16           0        2.317978    3.759492    9.573838
     12         42           0        3.028833    1.688369   10.482012
     13         42           0       -2.457409    3.708347    7.303225
     14         16           0        4.707661    2.207895   11.662085
     15         16           0        3.728505    0.620375    8.793899
     16         16           0       -3.820067    5.445852    7.945659
     17         16           0       -2.717615    3.530089    5.209613
     18         42           0       -4.105690    4.117131    9.830287
     19         16           0       -6.227556    3.048536   10.231752
     20          1           0       -6.445551    4.404940   11.273710
     21         16           0       -4.712124    5.815894   11.312926
     22          1           0       -6.164131    4.947777   11.494233
 ---------------------------------------------------------------------
                    Distance matrix (angstroms):
                    1          2          3          4          5
     1  Mo   0.000000
     2  S    2.268679   0.000000
     3  S    2.351499   3.715310   0.000000
     4  S    2.403887   3.914682   3.514551   0.000000
     5  S    2.263632   3.590911   4.282666   3.538020   0.000000
     6  Mo   2.931235   3.945775   2.335269   2.405263   5.010196
     7  S    5.033244   6.166574   4.377058   3.448696   6.774159
     8  S    3.746204   3.266205   3.536839   3.915787   5.900226
     9  Mo   2.609643   2.396756   3.962708   2.348228   4.141339
    10  S    5.024751   5.055001   5.932012   3.409371   6.318901
    11  S    4.074198   3.545780   6.036626   3.629875   4.448861
    12  Mo   3.260937   3.542140   5.589449   3.485030   2.441447
    13  Mo   5.761592   6.238835   5.823992   3.951787   7.390824
    14  S    4.729856   4.263506   7.044984   5.536047   3.533463
    15  S    4.754819   5.559302   6.891167   4.079700   3.577811
    16  S    6.959827   6.904253   6.596371   5.732286   8.902712
    17  S    7.547542   8.205140   7.660935   5.408918   8.895452
    18  Mo   5.493364   5.643537   4.578048   4.840736   7.658742
    19  S    6.777515   7.329697   5.093077   6.298088   8.934544
    20  H    7.311090   7.364791   5.681005   7.204813   9.560880
    21  S    6.696395   6.150828   5.695575   6.680323   8.925639
    22  H    7.311722   7.165937   5.804449   7.289380   9.574047
                    6          7          8          9         10
     6  Mo   0.000000
     7  S    2.372701   0.000000
     8  S    2.310101   3.985627   0.000000
     9  Mo   2.774004   4.396863   2.534634   0.000000
    10  S    3.862736   3.919581   3.795553   2.705898   0.000000
    11  S    4.998145   6.212783   4.709475   2.340654   3.233629
    12  Mo   5.350719   6.841669   5.725513   3.322097   4.995026
    13  Mo   3.490751   2.335789   3.965066   4.015928   2.214576
    14  S    7.136728   8.834226   7.075562   4.881169   6.668149
    15  S    6.399516   7.302316   7.226078   4.751479   5.534773
    16  S    4.441268   3.636710   3.923013   5.090672   3.666712
    17  S    5.383760   3.595288   6.081025   5.876826   3.587185
    18  Mo   2.795729   2.816483   2.463280   4.353479   4.240061
    19  S    4.047736   3.588818   4.416709   6.381484   6.439213
    20  H    4.848420   4.935035   4.377836   6.743921   6.987536
    21  S    4.571280   5.141544   3.106843   5.542431   5.792588
    22  H    4.956223   5.213842   4.170995   6.615747   6.895676
                   11         12         13         14         15
    11  S    0.000000
    12  Mo   2.370579   0.000000
    13  Mo   5.287969   6.654611   0.000000
    14  S    3.532536   2.116824   8.519932   0.000000
    15  S    3.528732   2.116572   7.072709   3.421324   0.000000
    16  S    6.570417   8.213355   2.299670   9.849788   8.999204
    17  S    6.667554   8.013226   2.117237   9.925589   7.928809
    18  Mo   6.438725   7.564724   3.044664   9.201947   8.641528
    19  S    8.600259   9.359136   4.819298  11.060357  10.348263
    20  H    8.950174   9.887896   5.670562  11.374180  11.134802
    21  S    7.528317   8.811884   5.059960  10.093162  10.226589
    22  H    8.777591   9.806065   5.730665  11.212983  11.130250
                   16         17         18         19         20
    16  S    0.000000
    17  S    3.517314   0.000000
    18  Mo   2.323554   4.860247   0.000000
    19  S    4.095039   6.146012   2.409437   0.000000
    20  H    4.364927   7.171900   2.764282   1.724248   0.000000
    21  S    3.503025   6.815673   2.334904   3.335227   2.235419
    22  H    4.281950   7.306488   2.774143   2.281447   0.650000
                   21         22
    21  S    0.000000
    22  H    1.701418   0.000000
 Symmetry turned off by external request.
 Stoichiometry    H2Mo6S14
 Framework group  C1[X(H2Mo6S14)]
 Deg. of freedom    60
 Full point group                 C1      NOp   1
 Rotational constants (GHZ):           0.1318956           0.0503912           0.0438593
 General basis read from cards:  (5D, 7F)
 ======================================================================================================
                                       Pseudopotential Parameters
 ======================================================================================================
  Center     Atomic      Valence      Angular      Power
  Number     Number     Electrons     Momentum     of R      Exponent        Coefficient   SO-Coeffient
 ======================================================================================================
    1         42           14
                                      F and up 
                                                     0      537.9667807       -0.04694920    0.00000000
                                                     1      147.8982938      -20.20800840    0.00000000
                                                     2       45.7358898     -106.21163020    0.00000000
                                                     2       13.2911467      -41.81073680    0.00000000
                                                     2        4.7059961       -4.20541030    0.00000000
                                      S - F
                                                     0      110.2991760        2.80637170    0.00000000
                                                     1       23.2014645       44.51620120    0.00000000
                                                     2        5.3530131       82.77852270    0.00000000
                                      P - F
                                                     0       63.2901397        4.94208760    0.00000000
                                                     1       23.3315302       25.86049760    0.00000000
                                                     2       24.6759423      132.47087420    0.00000000
                                                     2        4.6493040       57.31497940    0.00000000
                                      D - F
                                                     0      104.4839977        3.00545910    0.00000000
                                                     1       66.2307245       26.36378510    0.00000000
                                                     2       39.1283176      183.38491990    0.00000000
                                                     2       13.1164437       98.44530680    0.00000000
                                                     2        3.6280263       22.49013770    0.00000000
    2         16
                                   No pseudopotential on this center.
    3         16
                                   No pseudopotential on this center.
    4         16
                                   No pseudopotential on this center.
    5         16
                                   No pseudopotential on this center.
    6         42           14
                                      F and up 
                                                     0      537.9667807       -0.04694920    0.00000000
                                                     1      147.8982938      -20.20800840    0.00000000
                                                     2       45.7358898     -106.21163020    0.00000000
                                                     2       13.2911467      -41.81073680    0.00000000
                                                     2        4.7059961       -4.20541030    0.00000000
                                      S - F
                                                     0      110.2991760        2.80637170    0.00000000
                                                     1       23.2014645       44.51620120    0.00000000
                                                     2        5.3530131       82.77852270    0.00000000
                                      P - F
                                                     0       63.2901397        4.94208760    0.00000000
                                                     1       23.3315302       25.86049760    0.00000000
                                                     2       24.6759423      132.47087420    0.00000000
                                                     2        4.6493040       57.31497940    0.00000000
                                      D - F
                                                     0      104.4839977        3.00545910    0.00000000
                                                     1       66.2307245       26.36378510    0.00000000
                                                     2       39.1283176      183.38491990    0.00000000
                                                     2       13.1164437       98.44530680    0.00000000
                                                     2        3.6280263       22.49013770    0.00000000
    7         16
                                   No pseudopotential on this center.
    8         16
                                   No pseudopotential on this center.
    9         42           14
                                      F and up 
                                                     0      537.9667807       -0.04694920    0.00000000
                                                     1      147.8982938      -20.20800840    0.00000000
                                                     2       45.7358898     -106.21163020    0.00000000
                                                     2       13.2911467      -41.81073680    0.00000000
                                                     2        4.7059961       -4.20541030    0.00000000
                                      S - F
                                                     0      110.2991760        2.80637170    0.00000000
                                                     1       23.2014645       44.51620120    0.00000000
                                                     2        5.3530131       82.77852270    0.00000000
                                      P - F
                                                     0       63.2901397        4.94208760    0.00000000
                                                     1       23.3315302       25.86049760    0.00000000
                                                     2       24.6759423      132.47087420    0.00000000
                                                     2        4.6493040       57.31497940    0.00000000
                                      D - F
                                                     0      104.4839977        3.00545910    0.00000000
                                                     1       66.2307245       26.36378510    0.00000000
                                                     2       39.1283176      183.38491990    0.00000000
                                                     2       13.1164437       98.44530680    0.00000000
                                                     2        3.6280263       22.49013770    0.00000000
   10         16
                                   No pseudopotential on this center.
   11         16
                                   No pseudopotential on this center.
   12         42           14
                                      F and up 
                                                     0      537.9667807       -0.04694920    0.00000000
                                                     1      147.8982938      -20.20800840    0.00000000
                                                     2       45.7358898     -106.21163020    0.00000000
                                                     2       13.2911467      -41.81073680    0.00000000
                                                     2        4.7059961       -4.20541030    0.00000000
                                      S - F
                                                     0      110.2991760        2.80637170    0.00000000
                                                     1       23.2014645       44.51620120    0.00000000
                                                     2        5.3530131       82.77852270    0.00000000
                                      P - F
                                                     0       63.2901397        4.94208760    0.00000000
                                                     1       23.3315302       25.86049760    0.00000000
                                                     2       24.6759423      132.47087420    0.00000000
                                                     2        4.6493040       57.31497940    0.00000000
                                      D - F
                                                     0      104.4839977        3.00545910    0.00000000
                                                     1       66.2307245       26.36378510    0.00000000
                                                     2       39.1283176      183.38491990    0.00000000
                                                     2       13.1164437       98.44530680    0.00000000
                                                     2        3.6280263       22.49013770    0.00000000
   13         42           14
                                      F and up 
                                                     0      537.9667807       -0.04694920    0.00000000
                                                     1      147.8982938      -20.20800840    0.00000000
                                                     2       45.7358898     -106.21163020    0.00000000
                                                     2       13.2911467      -41.81073680    0.00000000
                                                     2        4.7059961       -4.20541030    0.00000000
                                      S - F
                                                     0      110.2991760        2.80637170    0.00000000
                                                     1       23.2014645       44.51620120    0.00000000
                                                     2        5.3530131       82.77852270    0.00000000
                                      P - F
                                                     0       63.2901397        4.94208760    0.00000000
                                                     1       23.3315302       25.86049760    0.00000000
                                                     2       24.6759423      132.47087420    0.00000000
                                                     2        4.6493040       57.31497940    0.00000000
                                      D - F
                                                     0      104.4839977        3.00545910    0.00000000
                                                     1       66.2307245       26.36378510    0.00000000
                                                     2       39.1283176      183.38491990    0.00000000
                                                     2       13.1164437       98.44530680    0.00000000
                                                     2        3.6280263       22.49013770    0.00000000
   14         16
                                   No pseudopotential on this center.
   15         16
                                   No pseudopotential on this center.
   16         16
                                   No pseudopotential on this center.
   17         16
                                   No pseudopotential on this center.
   18         42           14
                                      F and up 
                                                     0      537.9667807       -0.04694920    0.00000000
                                                     1      147.8982938      -20.20800840    0.00000000
                                                     2       45.7358898     -106.21163020    0.00000000
                                                     2       13.2911467      -41.81073680    0.00000000
                                                     2        4.7059961       -4.20541030    0.00000000
                                      S - F
                                                     0      110.2991760        2.80637170    0.00000000
                                                     1       23.2014645       44.51620120    0.00000000
                                                     2        5.3530131       82.77852270    0.00000000
                                      P - F
                                                     0       63.2901397        4.94208760    0.00000000
                                                     1       23.3315302       25.86049760    0.00000000
                                                     2       24.6759423      132.47087420    0.00000000
                                                     2        4.6493040       57.31497940    0.00000000
                                      D - F
                                                     0      104.4839977        3.00545910    0.00000000
                                                     1       66.2307245       26.36378510    0.00000000
                                                     2       39.1283176      183.38491990    0.00000000
                                                     2       13.1164437       98.44530680    0.00000000
                                                     2        3.6280263       22.49013770    0.00000000
   19         16
                                   No pseudopotential on this center.
   20          1
                                   No pseudopotential on this center.
   21         16
                                   No pseudopotential on this center.
   22          1
                                   No pseudopotential on this center.
 ======================================================================================================
   394 basis functions,  1036 primitive gaussians,   420 cartesian basis functions
   155 alpha electrons      155 beta electrons
       nuclear repulsion energy      5534.0179256304 Hartrees.
 NAtoms=   22 NActive=   22 NUniq=   22 SFac= 1.00D+00 NAtFMM=   60 NAOKFM=F Big=F
 Integral buffers will be    131072 words long.
 Raffenetti 2 integral format.
 Two-electron integral symmetry is turned off.
 One-electron integrals computed using PRISM.
   1 Symmetry operations used in ECPInt.
 ECPInt:  NShTT=    7750 NPrTT=   61971 LenC2=    6833 LenP2D=   33625.
 LDataN:  DoStor=T MaxTD1= 5 Len=  102
 NBasis=   394 RedAO= T EigKep=  8.41D-04  NBF=   394
 NBsUse=   394 1.00D-06 EigRej= -1.00D+00 NBFU=   394
 Defaulting to unpruned grid for atomic number  42.
 Defaulting to unpruned grid for atomic number  42.
 Defaulting to unpruned grid for atomic number  42.
 Defaulting to unpruned grid for atomic number  42.
 Defaulting to unpruned grid for atomic number  42.
 Defaulting to unpruned grid for atomic number  42.
 ExpMin= 2.47D-02 ExpMax= 2.19D+04 ExpMxC= 3.30D+03 IAcc=3 IRadAn=         5 AccDes= 0.00D+00
 Harris functional with IExCor=  402 and IRadAn=       5 diagonalized for initial guess.
 HarFok:  IExCor=  402 AccDes= 0.00D+00 IRadAn=         5 IDoV= 1 UseB2=F ITyADJ=14
 ICtDFT=  3500011 ScaDFX=  1.000000  1.000000  1.000000  1.000000
 Defaulting to unpruned grid for atomic number  42.
 FoFCou: FMM=F IPFlag=           0 FMFlag=      100000 FMFlg1=           0
         NFxFlg=           0 DoJE=T BraDBF=F KetDBF=T FulRan=T
         wScrn=  0.000000 ICntrl=       500 IOpCl=  0 I1Cent=   200000004 NGrid=           0
         NMat0=    1 NMatS0=      1 NMatT0=    0 NMatD0=    1 NMtDS0=    0 NMtDT0=    0
 Symmetry not used in FoFCou.
 Requested convergence on RMS density matrix=1.00D-08 within 128 cycles.
 Requested convergence on MAX density matrix=1.00D-06.
 Requested convergence on             energy=1.00D-06.
 No special actions if energy rises.
 Defaulting to unpruned grid for atomic number  42.
 Defaulting to unpruned grid for atomic number  42.
 Defaulting to unpruned grid for atomic number  42.
 Defaulting to unpruned grid for atomic number  42.
 Defaulting to unpruned grid for atomic number  42.
 Defaulting to unpruned grid for atomic number  42.
 Defaulting to unpruned grid for atomic number  42.
 Defaulting to unpruned grid for atomic number  42.
 Defaulting to unpruned grid for atomic number  42.
 Defaulting to unpruned grid for atomic number  42.
 Defaulting to unpruned grid for atomic number  42.
 Defaulting to unpruned grid for atomic number  42.
 Defaulting to unpruned grid for atomic number  42.
 Defaulting to unpruned grid for atomic number  42.
 Defaulting to unpruned grid for atomic number  42.
 Defaulting to unpruned grid for atomic number  42.
 Defaulting to unpruned grid for atomic number  42.
 Defaulting to unpruned grid for atomic number  42.
 Defaulting to unpruned grid for atomic number  42.
 Defaulting to unpruned grid for atomic number  42.
 Defaulting to unpruned grid for atomic number  42.
 Defaulting to unpruned grid for atomic number  42.
 Defaulting to unpruned grid for atomic number  42.
 Defaulting to unpruned grid for atomic number  42.
 Defaulting to unpruned grid for atomic number  42.
 Defaulting to unpruned grid for atomic number  42.
 Defaulting to unpruned grid for atomic number  42.
 Defaulting to unpruned grid for atomic number  42.
 Defaulting to unpruned grid for atomic number  42.
 Defaulting to unpruned grid for atomic number  42.
 Defaulting to unpruned grid for atomic number  42.
 Defaulting to unpruned grid for atomic number  42.
 Defaulting to unpruned grid for atomic number  42.
 Defaulting to unpruned grid for atomic number  42.
 Defaulting to unpruned grid for atomic number  42.
 Defaulting to unpruned grid for atomic number  42.
 Defaulting to unpruned grid for atomic number  42.
 Defaulting to unpruned grid for atomic number  42.
 Defaulting to unpruned grid for atomic number  42.
 Defaulting to unpruned grid for atomic number  42.
 Defaulting to unpruned grid for atomic number  42.
 Defaulting to unpruned grid for atomic number  42.
 Defaulting to unpruned grid for atomic number  42.
 Defaulting to unpruned grid for atomic number  42.
 Defaulting to unpruned grid for atomic number  42.
 Defaulting to unpruned grid for atomic number  42.
 EnCoef did     4 forward-backward iterations
 EnCoef did   100 forward-backward iterations
 EnCoef did     9 forward-backward iterations
 EnCoef did     2 forward-backward iterations
 EnCoef did     4 forward-backward iterations
 EnCoef did     5 forward-backward iterations
 EnCoef did     3 forward-backward iterations
 EnCoef did     9 forward-backward iterations
 EnCoef did     4 forward-backward iterations
 EnCoef did     7 forward-backward iterations
 Restarting incremental Fock formation.
 SCF Done:  E(RB3LYP) =  -5981.62892874     A.U. after   33 cycles
            NFock= 33  Conv=0.29D-08     -V/T= 2.0497
 DoSCS=F DFT=T ScalE2(SS,OS)=  1.000000  1.000000
 Range of M.O.s used for correlation:     1   394
 NBasis=   394 NAE=   155 NBE=   155 NFC=     0 NFV=     0
 NROrb=    394 NOA=   155 NOB=   155 NVA=   239 NVB=   239

 **** Warning!!: The smallest alpha delta epsilon is  0.59685182D-01

   1 Symmetry operations used in ECPInt.
 ECPInt:  NShTT=    7750 NPrTT=   61971 LenC2=    6833 LenP2D=   33625.
 LDataN:  DoStor=T MaxTD1= 6 Len=  172
 Number of processors reduced to  45 by ecpmxn.
 Symmetrizing basis deriv contribution to polar:
 IMax=3 JMax=2 DiffMx= 0.00D+00
 G2DrvN: will do    23 centers at a time, making    1 passes.
 Calling FoFCou, ICntrl=  3107 FMM=F I1Cent=   0 AccDes= 0.00D+00.
 Defaulting to unpruned grid for atomic number  42.
 Defaulting to unpruned grid for atomic number  42.
 Defaulting to unpruned grid for atomic number  42.
 Defaulting to unpruned grid for atomic number  42.
 Defaulting to unpruned grid for atomic number  42.
 Defaulting to unpruned grid for atomic number  42.
 Defaulting to unpruned grid for atomic number  42.
 Defaulting to unpruned grid for atomic number  42.
 Defaulting to unpruned grid for atomic number  42.
 Defaulting to unpruned grid for atomic number  42.
 Defaulting to unpruned grid for atomic number  42.
 Defaulting to unpruned grid for atomic number  42.
 Defaulting to unpruned grid for atomic number  42.
 Defaulting to unpruned grid for atomic number  42.
 Defaulting to unpruned grid for atomic number  42.
 Defaulting to unpruned grid for atomic number  42.
 Defaulting to unpruned grid for atomic number  42.
 Defaulting to unpruned grid for atomic number  42.
 Defaulting to unpruned grid for atomic number  42.
 Defaulting to unpruned grid for atomic number  42.
 Defaulting to unpruned grid for atomic number  42.
 Defaulting to unpruned grid for atomic number  42.
 Defaulting to unpruned grid for atomic number  42.
 Defaulting to unpruned grid for atomic number  42.
 Defaulting to unpruned grid for atomic number  42.
 Defaulting to unpruned grid for atomic number  42.
 Defaulting to unpruned grid for atomic number  42.
 Defaulting to unpruned grid for atomic number  42.
 Defaulting to unpruned grid for atomic number  42.
 Defaulting to unpruned grid for atomic number  42.
 Defaulting to unpruned grid for atomic number  42.
 Defaulting to unpruned grid for atomic number  42.
 Defaulting to unpruned grid for atomic number  42.
 Defaulting to unpruned grid for atomic number  42.
 Defaulting to unpruned grid for atomic number  42.
 Defaulting to unpruned grid for atomic number  42.
 Defaulting to unpruned grid for atomic number  42.
 Defaulting to unpruned grid for atomic number  42.
 Defaulting to unpruned grid for atomic number  42.
 Defaulting to unpruned grid for atomic number  42.
 Defaulting to unpruned grid for atomic number  42.
 Defaulting to unpruned grid for atomic number  42.
 Defaulting to unpruned grid for atomic number  42.
 Defaulting to unpruned grid for atomic number  42.
 Defaulting to unpruned grid for atomic number  42.
 Defaulting to unpruned grid for atomic number  42.
 End of G2Drv F.D. properties file   721 does not exist.
 End of G2Drv F.D. properties file   722 does not exist.
 End of G2Drv F.D. properties file   788 does not exist.
          IDoAtm=1111111111111111111111
          Differentiating once with respect to nuclear coordinates.
 Defaulting to unpruned grid for atomic number  42.
 Defaulting to unpruned grid for atomic number  42.
 Defaulting to unpruned grid for atomic number  42.
 Defaulting to unpruned grid for atomic number  42.
 Defaulting to unpruned grid for atomic number  42.
 Defaulting to unpruned grid for atomic number  42.
 CalDSu exits because no D1Ps are significant.
 Defaulting to unpruned grid for atomic number  42.
 Defaulting to unpruned grid for atomic number  42.
 Defaulting to unpruned grid for atomic number  42.
 Defaulting to unpruned grid for atomic number  42.
 Defaulting to unpruned grid for atomic number  42.
 Defaulting to unpruned grid for atomic number  42.
 Defaulting to unpruned grid for atomic number  42.
 Defaulting to unpruned grid for atomic number  42.
 Defaulting to unpruned grid for atomic number  42.
 Defaulting to unpruned grid for atomic number  42.
 Defaulting to unpruned grid for atomic number  42.
 Defaulting to unpruned grid for atomic number  42.
 Defaulting to unpruned grid for atomic number  42.
 Defaulting to unpruned grid for atomic number  42.
 Defaulting to unpruned grid for atomic number  42.
 Defaulting to unpruned grid for atomic number  42.
 Defaulting to unpruned grid for atomic number  42.
 Defaulting to unpruned grid for atomic number  42.
 Defaulting to unpruned grid for atomic number  42.
 Defaulting to unpruned grid for atomic number  42.
 Defaulting to unpruned grid for atomic number  42.
 Defaulting to unpruned grid for atomic number  42.
 Defaulting to unpruned grid for atomic number  42.
 Defaulting to unpruned grid for atomic number  42.
 Defaulting to unpruned grid for atomic number  42.
 Defaulting to unpruned grid for atomic number  42.
 Defaulting to unpruned grid for atomic number  42.
 Defaulting to unpruned grid for atomic number  42.
 Defaulting to unpruned grid for atomic number  42.
 Defaulting to unpruned grid for atomic number  42.
 Defaulting to unpruned grid for atomic number  42.
 Defaulting to unpruned grid for atomic number  42.
 Defaulting to unpruned grid for atomic number  42.
 Defaulting to unpruned grid for atomic number  42.
 Defaulting to unpruned grid for atomic number  42.
 Defaulting to unpruned grid for atomic number  42.
 Defaulting to unpruned grid for atomic number  42.
 Defaulting to unpruned grid for atomic number  42.
 Defaulting to unpruned grid for atomic number  42.
 Defaulting to unpruned grid for atomic number  42.
 Defaulting to unpruned grid for atomic number  42.
 Defaulting to unpruned grid for atomic number  42.
 Defaulting to unpruned grid for atomic number  42.
 Defaulting to unpruned grid for atomic number  42.
 Defaulting to unpruned grid for atomic number  42.
 Defaulting to unpruned grid for atomic number  42.
          There are    69 degrees of freedom in the 1st order CPHF.  IDoFFX=6 NUNeed=     0.
     63 vectors produced by pass  0 Test12= 5.37D-14 1.45D-09 XBig12= 2.91D-01 1.36D-01.
 AX will form    63 AO Fock derivatives at one time.
     63 vectors produced by pass  1 Test12= 5.37D-14 1.45D-09 XBig12= 3.27D-01 1.10D-01.
     63 vectors produced by pass  2 Test12= 5.37D-14 1.45D-09 XBig12= 2.91D-02 1.60D-02.
     63 vectors produced by pass  3 Test12= 5.37D-14 1.45D-09 XBig12= 2.27D-03 5.64D-03.
     63 vectors produced by pass  4 Test12= 5.37D-14 1.45D-09 XBig12= 3.61D-05 4.98D-04.
     63 vectors produced by pass  5 Test12= 5.37D-14 1.45D-09 XBig12= 3.90D-07 6.94D-05.
     63 vectors produced by pass  6 Test12= 5.37D-14 1.45D-09 XBig12= 3.49D-09 6.41D-06.
     61 vectors produced by pass  7 Test12= 5.37D-14 1.45D-09 XBig12= 2.23D-11 4.48D-07.
     35 vectors produced by pass  8 Test12= 5.37D-14 1.45D-09 XBig12= 1.18D-13 2.67D-08.
      2 vectors produced by pass  9 Test12= 5.37D-14 1.45D-09 XBig12= 6.61D-16 2.26D-09.
 InvSVY:  IOpt=1 It=  1 EMax= 7.77D-16
 Solved reduced A of dimension   539 with    69 vectors.
 End of Minotr F.D. properties file   721 does not exist.
 End of Minotr F.D. properties file   722 does not exist.
 End of Minotr F.D. properties file   788 does not exist.

 **********************************************************************

            Population analysis using the SCF Density.

 **********************************************************************

 Alpha  occ. eigenvalues --  -88.93629 -88.91928 -88.91893 -88.91486 -88.90905
 Alpha  occ. eigenvalues --  -88.90543 -88.90101 -88.89807 -88.89654 -88.89628
 Alpha  occ. eigenvalues --  -88.89214 -88.89106 -88.88507 -88.88002  -8.01168
 Alpha  occ. eigenvalues --   -7.99490  -7.99484  -7.99212  -7.98682  -7.98416
 Alpha  occ. eigenvalues --   -7.97998  -7.97626  -7.97567  -7.97395  -7.97120
 Alpha  occ. eigenvalues --   -7.96877  -7.96044  -7.95394  -5.97216  -5.97115
 Alpha  occ. eigenvalues --   -5.97050  -5.95588  -5.95507  -5.95468  -5.95460
 Alpha  occ. eigenvalues --   -5.95384  -5.95273  -5.95240  -5.95149  -5.95090
 Alpha  occ. eigenvalues --   -5.94700  -5.94630  -5.94556  -5.94459  -5.94393
 Alpha  occ. eigenvalues --   -5.94216  -5.94076  -5.93971  -5.93746  -5.93691
 Alpha  occ. eigenvalues --   -5.93597  -5.93572  -5.93563  -5.93508  -5.93438
 Alpha  occ. eigenvalues --   -5.93369  -5.93338  -5.93146  -5.93142  -5.93079
 Alpha  occ. eigenvalues --   -5.92956  -5.92942  -5.92840  -5.92682  -5.92282
 Alpha  occ. eigenvalues --   -5.91896  -5.91834  -5.91668  -5.91319  -5.91116
 Alpha  occ. eigenvalues --   -2.58647  -2.58018  -2.57506  -2.57348  -2.56407
 Alpha  occ. eigenvalues --   -2.55259  -1.61653  -1.61209  -1.61087  -1.60701
 Alpha  occ. eigenvalues --   -1.60470  -1.60319  -1.60191  -1.60013  -1.59908
 Alpha  occ. eigenvalues --   -1.59421  -1.59320  -1.59202  -1.58634  -1.58160
 Alpha  occ. eigenvalues --   -1.58100  -1.57694  -1.56953  -1.56389  -0.77201
 Alpha  occ. eigenvalues --   -0.75469  -0.74546  -0.74235  -0.73496  -0.73106
 Alpha  occ. eigenvalues --   -0.72762  -0.72424  -0.72161  -0.71482  -0.71002
 Alpha  occ. eigenvalues --   -0.70635  -0.70230  -0.68303  -0.52443  -0.44525
 Alpha  occ. eigenvalues --   -0.44076  -0.43377  -0.42265  -0.41976  -0.41408
 Alpha  occ. eigenvalues --   -0.41274  -0.40830  -0.39995  -0.39382  -0.39341
 Alpha  occ. eigenvalues --   -0.39062  -0.38642  -0.38489  -0.38242  -0.38057
 Alpha  occ. eigenvalues --   -0.37827  -0.37500  -0.37260  -0.36913  -0.36657
 Alpha  occ. eigenvalues --   -0.35967  -0.35530  -0.35256  -0.34730  -0.34678
 Alpha  occ. eigenvalues --   -0.34128  -0.33675  -0.32814  -0.32120  -0.31800
 Alpha  occ. eigenvalues --   -0.31694  -0.31489  -0.31433  -0.30687  -0.30077
 Alpha  occ. eigenvalues --   -0.29923  -0.29381  -0.28829  -0.28353  -0.27858
 Alpha  occ. eigenvalues --   -0.27180  -0.26776  -0.26500  -0.25436  -0.24550
 Alpha virt. eigenvalues --   -0.18581  -0.17527  -0.16992  -0.16864  -0.16021
 Alpha virt. eigenvalues --   -0.15340  -0.15086  -0.14900  -0.14421  -0.14119
 Alpha virt. eigenvalues --   -0.13960  -0.12999  -0.12760  -0.11947  -0.11675
 Alpha virt. eigenvalues --   -0.11033  -0.10938  -0.10541  -0.09820  -0.09386
 Alpha virt. eigenvalues --   -0.09220  -0.08589  -0.07948  -0.07319  -0.06311
 Alpha virt. eigenvalues --   -0.05186  -0.01776  -0.00023   0.00453   0.01117
 Alpha virt. eigenvalues --    0.02237   0.02342   0.02884   0.03503   0.03660
 Alpha virt. eigenvalues --    0.04472   0.04588   0.05006   0.05107   0.05626
 Alpha virt. eigenvalues --    0.05953   0.06395   0.06948   0.07097   0.07742
 Alpha virt. eigenvalues --    0.08574   0.09305   0.09584   0.10339   0.12304
 Alpha virt. eigenvalues --    0.12766   0.13646   0.14169   0.15070   0.16443
 Alpha virt. eigenvalues --    0.17391   0.17460   0.18226   0.18801   0.19246
 Alpha virt. eigenvalues --    0.20023   0.20891   0.21161   0.22033   0.23012
 Alpha virt. eigenvalues --    0.23864   0.24398   0.25434   0.26590   0.26851
 Alpha virt. eigenvalues --    0.27605   0.28104   0.28683   0.29183   0.29961
 Alpha virt. eigenvalues --    0.30373   0.30768   0.31441   0.31894   0.32133
 Alpha virt. eigenvalues --    0.32802   0.33093   0.33307   0.33671   0.34069
 Alpha virt. eigenvalues --    0.34495   0.34668   0.35332   0.35771   0.35906
 Alpha virt. eigenvalues --    0.36400   0.36915   0.37116   0.37389   0.37850
 Alpha virt. eigenvalues --    0.38221   0.38675   0.39251   0.39439   0.39985
 Alpha virt. eigenvalues --    0.40250   0.40585   0.40889   0.41203   0.41364
 Alpha virt. eigenvalues --    0.41836   0.42131   0.42513   0.43305   0.43696
 Alpha virt. eigenvalues --    0.43817   0.44007   0.44276   0.44872   0.45530
 Alpha virt. eigenvalues --    0.46508   0.47013   0.47244   0.48470   0.49129
 Alpha virt. eigenvalues --    0.49406   0.49757   0.50865   0.51219   0.52230
 Alpha virt. eigenvalues --    0.52283   0.53295   0.53661   0.54017   0.54831
 Alpha virt. eigenvalues --    0.55430   0.56338   0.57036   0.57793   0.58561
 Alpha virt. eigenvalues --    0.59212   0.59808   0.60737   0.61242   0.61732
 Alpha virt. eigenvalues --    0.62607   0.62875   0.63637   0.64921   0.65956
 Alpha virt. eigenvalues --    0.66199   0.66747   0.67400   0.68416   0.69062
 Alpha virt. eigenvalues --    0.70396   0.71567   0.71863   0.72333   0.73429
 Alpha virt. eigenvalues --    0.73653   0.73899   0.73952   0.74617   0.75052
 Alpha virt. eigenvalues --    0.75652   0.76119   0.76205   0.76673   0.76821
 Alpha virt. eigenvalues --    0.77487   0.77921   0.78403   0.78763   0.79526
 Alpha virt. eigenvalues --    0.79998   0.80538   0.81069   0.81526   0.82256
 Alpha virt. eigenvalues --    0.82579   0.82987   0.83520   0.84028   0.84177
 Alpha virt. eigenvalues --    0.85176   0.85396   0.86475   0.87325   0.88058
 Alpha virt. eigenvalues --    0.88739   0.89011   0.89848   0.89921   0.90803
 Alpha virt. eigenvalues --    0.91627   0.92992   0.94490   0.94659   0.95202
 Alpha virt. eigenvalues --    0.96355   0.96750   0.97383   0.97965   0.98410
 Alpha virt. eigenvalues --    0.98894   1.00082   1.00412   1.00687   1.01357
 Alpha virt. eigenvalues --    1.01860   1.02039   1.02467   1.03447   1.03940
 Alpha virt. eigenvalues --    1.04551   1.04878   1.05683   1.06559   1.06673
 Alpha virt. eigenvalues --    1.08197   1.08796   1.09201   1.09297   1.11968
 Alpha virt. eigenvalues --    1.12816   1.14817   1.16517   1.18760   1.20072
 Alpha virt. eigenvalues --    1.22677   1.24626   1.65525   1.88210   2.61329
 Alpha virt. eigenvalues --    2.67406   2.87608   4.68817   8.72793   8.93353
 Alpha virt. eigenvalues --    9.79965  10.27542  11.30097  15.30073
          Condensed to atoms (all electrons):
               1          2          3          4          5          6
     1  Mo  13.730418   0.279876   0.197150   0.145066   0.258837  -0.310935
     2  S    0.279876  15.512245   0.009496   0.010300  -0.027677  -0.051165
     3  S    0.197150   0.009496  15.629747  -0.038594  -0.002516   0.237651
     4  S    0.145066   0.010300  -0.038594  15.440493  -0.017708   0.141664
     5  S    0.258837  -0.027677  -0.002516  -0.017708  15.653183  -0.015630
     6  Mo  -0.310935  -0.051165   0.237651   0.141664  -0.015630  14.264814
     7  S    0.006019  -0.000037  -0.000560  -0.013366   0.000047   0.214718
     8  S   -0.053471  -0.038636   0.004888   0.002973  -0.000179   0.189316
     9  Mo  -0.062927   0.228247  -0.023906   0.095319  -0.019494  -0.282543
    10  S   -0.001108  -0.003366  -0.000159  -0.021469  -0.000012  -0.001116
    11  S   -0.004468  -0.033241  -0.000062  -0.009568  -0.000314  -0.029926
    12  Mo  -0.075812  -0.050122  -0.001531  -0.016033   0.223242   0.030410
    13  Mo   0.007997   0.000218  -0.002385  -0.017112   0.000184  -0.138573
    14  S   -0.011519   0.000466  -0.000002  -0.000253  -0.001647   0.000281
    15  S   -0.013013  -0.000722  -0.000004  -0.002225  -0.003687   0.000020
    16  S    0.000165   0.000003   0.000025  -0.000287  -0.000000  -0.026435
    17  S    0.000348   0.000000  -0.000000   0.000082  -0.000000  -0.011177
    18  Mo  -0.024404   0.002664   0.020531  -0.005515  -0.000283  -0.154622
    19  S   -0.001087   0.000000   0.000093  -0.000034  -0.000000   0.010050
    20  H   -0.000076   0.000000   0.000013   0.000000  -0.000000   0.003323
    21  S    0.000686   0.000035   0.000572  -0.000038  -0.000000  -0.000902
    22  H    0.000121   0.000000  -0.000009  -0.000000   0.000000   0.002414
               7          8          9         10         11         12
     1  Mo   0.006019  -0.053471  -0.062927  -0.001108  -0.004468  -0.075812
     2  S   -0.000037  -0.038636   0.228247  -0.003366  -0.033241  -0.050122
     3  S   -0.000560   0.004888  -0.023906  -0.000159  -0.000062  -0.001531
     4  S   -0.013366   0.002973   0.095319  -0.021469  -0.009568  -0.016033
     5  S    0.000047  -0.000179  -0.019494  -0.000012  -0.000314   0.223242
     6  Mo   0.214718   0.189316  -0.282543  -0.001116  -0.029926   0.030410
     7  S   15.577985  -0.010511  -0.006500  -0.001666  -0.000082   0.000457
     8  S   -0.010511  15.474982   0.123828  -0.006667  -0.002354   0.000348
     9  Mo  -0.006500   0.123828  14.071602   0.190072   0.261443  -0.106464
    10  S   -0.001666  -0.006667   0.190072  15.721417  -0.038434   0.002901
    11  S   -0.000082  -0.002354   0.261443  -0.038434  15.573992   0.253573
    12  Mo   0.000457   0.000348  -0.106464   0.002901   0.253573  12.788495
    13  Mo   0.215549  -0.021378  -0.017020   0.283090   0.002084  -0.000452
    14  S   -0.000000  -0.000007  -0.008795   0.000001  -0.001526   0.365986
    15  S   -0.000001  -0.000001  -0.012621   0.000266  -0.007956   0.367557
    16  S   -0.029069  -0.001720  -0.005930   0.008225   0.000003  -0.000049
    17  S    0.009027   0.000011  -0.004547   0.016336   0.000008   0.000038
    18  Mo   0.013806   0.182863  -0.023505  -0.045871  -0.000258  -0.001750
    19  S   -0.008078   0.002867  -0.001541  -0.000007   0.000000  -0.000033
    20  H    0.000309  -0.000049   0.000423   0.000000  -0.000000   0.000000
    21  S   -0.004283  -0.051800  -0.001909   0.000076  -0.000003  -0.000059
    22  H    0.000262   0.000896   0.000260  -0.000000   0.000000   0.000001
              13         14         15         16         17         18
     1  Mo   0.007997  -0.011519  -0.013013   0.000165   0.000348  -0.024404
     2  S    0.000218   0.000466  -0.000722   0.000003   0.000000   0.002664
     3  S   -0.002385  -0.000002  -0.000004   0.000025  -0.000000   0.020531
     4  S   -0.017112  -0.000253  -0.002225  -0.000287   0.000082  -0.005515
     5  S    0.000184  -0.001647  -0.003687  -0.000000  -0.000000  -0.000283
     6  Mo  -0.138573   0.000281   0.000020  -0.026435  -0.011177  -0.154622
     7  S    0.215549  -0.000000  -0.000001  -0.029069   0.009027   0.013806
     8  S   -0.021378  -0.000007  -0.000001  -0.001720   0.000011   0.182863
     9  Mo  -0.017020  -0.008795  -0.012621  -0.005930  -0.004547  -0.023505
    10  S    0.283090   0.000001   0.000266   0.008225   0.016336  -0.045871
    11  S    0.002084  -0.001526  -0.007956   0.000003   0.000008  -0.000258
    12  Mo  -0.000452   0.365986   0.367557  -0.000049   0.000038  -0.001750
    13  Mo  12.956220  -0.000016  -0.000062   0.211948   0.356435  -0.132652
    14  S   -0.000016  15.737420   0.013729  -0.000000  -0.000000   0.000016
    15  S   -0.000062   0.013729  15.757531  -0.000000  -0.000000  -0.000070
    16  S    0.211948  -0.000000  -0.000000  15.547026   0.003105   0.272214
    17  S    0.356435  -0.000000  -0.000000   0.003105  15.784250  -0.007372
    18  Mo  -0.132652   0.000016  -0.000070   0.272214  -0.007372  13.554696
    19  S   -0.007603  -0.000000   0.000000   0.014883   0.000012   0.381188
    20  H    0.000221  -0.000000   0.000000  -0.000305   0.000000  -0.051706
    21  S   -0.009784  -0.000000   0.000000   0.001552   0.000017   0.365332
    22  H   -0.000114  -0.000000  -0.000000   0.000337   0.000000  -0.051450
              19         20         21         22
     1  Mo  -0.001087  -0.000076   0.000686   0.000121
     2  S    0.000000   0.000000   0.000035   0.000000
     3  S    0.000093   0.000013   0.000572  -0.000009
     4  S   -0.000034   0.000000  -0.000038  -0.000000
     5  S   -0.000000  -0.000000  -0.000000   0.000000
     6  Mo   0.010050   0.003323  -0.000902   0.002414
     7  S   -0.008078   0.000309  -0.004283   0.000262
     8  S    0.002867  -0.000049  -0.051800   0.000896
     9  Mo  -0.001541   0.000423  -0.001909   0.000260
    10  S   -0.000007   0.000000   0.000076  -0.000000
    11  S    0.000000  -0.000000  -0.000003   0.000000
    12  Mo  -0.000033   0.000000  -0.000059   0.000001
    13  Mo  -0.007603   0.000221  -0.009784  -0.000114
    14  S   -0.000000  -0.000000  -0.000000  -0.000000
    15  S    0.000000   0.000000   0.000000  -0.000000
    16  S    0.014883  -0.000305   0.001552   0.000337
    17  S    0.000012   0.000000   0.000017   0.000000
    18  Mo   0.381188  -0.051706   0.365332  -0.051450
    19  S   15.637177   0.177814  -0.073092  -0.121162
    20  H    0.177814   0.730313  -0.134247   0.251549
    21  S   -0.073092  -0.134247  15.717945   0.164006
    22  H   -0.121162   0.251549   0.164006   0.725578
 Mulliken charges:
               1
     1  Mo  -0.067862
     2  S    0.161415
     3  S   -0.030438
     4  S    0.306308
     5  S   -0.046345
     6  Mo  -0.071638
     7  S    0.035973
     8  S    0.203803
     9  Mo  -0.393491
    10  S   -0.102510
    11  S    0.037088
    12  Mo   0.219299
    13  Mo   0.313205
    14  S   -0.094134
    15  S   -0.098741
    16  S    0.004309
    17  S   -0.146573
    18  Mo  -0.293849
    19  S   -0.011447
    20  H    0.022418
    21  S    0.025898
    22  H    0.027312
 Sum of Mulliken charges =  -0.00000
 Mulliken charges with hydrogens summed into heavy atoms:
               1
     1  Mo  -0.067862
     2  S    0.161415
     3  S   -0.030438
     4  S    0.306308
     5  S   -0.046345
     6  Mo  -0.071638
     7  S    0.035973
     8  S    0.203803
     9  Mo  -0.393491
    10  S   -0.102510
    11  S    0.037088
    12  Mo   0.219299
    13  Mo   0.313205
    14  S   -0.094134
    15  S   -0.098741
    16  S    0.004309
    17  S   -0.146573
    18  Mo  -0.293849
    19  S    0.010971
    21  S    0.053210
 APT charges:
               1
     1  Mo  -1.133927
     2  S   -0.012716
     3  S    0.499756
     4  S    0.270424
     5  S   -0.131161
     6  Mo   0.623818
     7  S   -0.321571
     8  S    0.405729
     9  Mo   0.346664
    10  S   -0.213406
    11  S   -0.337406
    12  Mo  -0.023269
    13  Mo   3.020837
    14  S    1.790165
    15  S   -1.500967
    16  S   -0.208443
    17  S   -1.457668
    18  Mo  -1.920848
    19  S    0.234895
    20  H   -0.380071
    21  S    0.498123
    22  H   -0.048958
 Sum of APT charges =  -0.00000
 APT charges with hydrogens summed into heavy atoms:
               1
     1  Mo  -1.133927
     2  S   -0.012716
     3  S    0.499756
     4  S    0.270424
     5  S   -0.131161
     6  Mo   0.623818
     7  S   -0.321571
     8  S    0.405729
     9  Mo   0.346664
    10  S   -0.213406
    11  S   -0.337406
    12  Mo  -0.023269
    13  Mo   3.020837
    14  S    1.790165
    15  S   -1.500967
    16  S   -0.208443
    17  S   -1.457668
    18  Mo  -1.920848
    19  S   -0.145177
    21  S    0.449165
 Electronic spatial extent (au):  <R**2>=         136120.7920
 Charge=              0.0000 electrons
 Dipole moment (field-independent basis, Debye):
    X=              1.7559    Y=             -2.0661    Z=              1.5349  Tot=              3.1157
 Quadrupole moment (field-independent basis, Debye-Ang):
   XX=           -340.6275   YY=           -333.6043   ZZ=           -292.2227
   XY=              9.6467   XZ=             17.8562   YZ=            -17.2464
 Traceless Quadrupole moment (field-independent basis, Debye-Ang):
   XX=            -18.4760   YY=            -11.4528   ZZ=             29.9288
   XY=              9.6467   XZ=             17.8562   YZ=            -17.2464
 Octapole moment (field-independent basis, Debye-Ang**2):
  XXX=           1000.6707  YYY=          -2761.7996  ZZZ=          -9165.3231  XYY=            354.0325
  XXY=           -951.9092  XXZ=          -3376.0129  XZZ=            494.6204  YZZ=          -1051.0295
  YYZ=          -3311.8652  XYZ=             96.8634
 Hexadecapole moment (field-independent basis, Debye-Ang**3):
 XXXX=         -18384.3291 YYYY=         -20249.9834 ZZZZ=        -191701.7962 XXXY=           4955.8770
 XXXZ=           8593.4744 YYYX=           5036.4261 YYYZ=         -26621.7815 ZZZX=           9937.9622
 ZZZY=         -27407.8481 XXYY=          -6490.7895 XXZZ=         -37539.2831 YYZZ=         -37338.1822
 XXYZ=          -9116.0923 YYXZ=           3124.4722 ZZXY=           2572.7306
 N-N= 5.534017925630D+03 E-N=-2.514254179722D+04  KE= 5.698235141691D+03
  Exact polarizability:       0.000       0.000       0.000       0.000       0.000       0.000
 Approx polarizability:    2556.115    -206.915    1603.887      48.696      14.289    1722.682
   1 Symmetry operations used in ECPInt.
 ECPInt:  NShTT=    7750 NPrTT=   61971 LenC2=    6833 LenP2D=   33625.
 LDataN:  DoStor=T MaxTD1= 7 Len=  274
 Calling FoFJK, ICntrl=    100127 FMM=F ISym2X=0 I1Cent= 0 IOpClX= 0 NMat=1 NMatS=1 NMatT=0.
 Defaulting to unpruned grid for atomic number  42.
 Defaulting to unpruned grid for atomic number  42.
 Defaulting to unpruned grid for atomic number  42.
 Defaulting to unpruned grid for atomic number  42.
 Defaulting to unpruned grid for atomic number  42.
 Defaulting to unpruned grid for atomic number  42.
 Defaulting to unpruned grid for atomic number  42.
 Defaulting to unpruned grid for atomic number  42.
 Defaulting to unpruned grid for atomic number  42.
 Defaulting to unpruned grid for atomic number  42.
 Defaulting to unpruned grid for atomic number  42.
 Defaulting to unpruned grid for atomic number  42.
 Defaulting to unpruned grid for atomic number  42.
 Defaulting to unpruned grid for atomic number  42.
 Defaulting to unpruned grid for atomic number  42.
 Defaulting to unpruned grid for atomic number  42.
 Defaulting to unpruned grid for atomic number  42.
 Defaulting to unpruned grid for atomic number  42.
 Defaulting to unpruned grid for atomic number  42.
 Defaulting to unpruned grid for atomic number  42.
 Defaulting to unpruned grid for atomic number  42.
 Defaulting to unpruned grid for atomic number  42.
 Defaulting to unpruned grid for atomic number  42.
 Defaulting to unpruned grid for atomic number  42.
 Defaulting to unpruned grid for atomic number  42.
 Defaulting to unpruned grid for atomic number  42.
 Defaulting to unpruned grid for atomic number  42.
 Defaulting to unpruned grid for atomic number  42.
 Defaulting to unpruned grid for atomic number  42.
 Defaulting to unpruned grid for atomic number  42.
 Defaulting to unpruned grid for atomic number  42.
 Defaulting to unpruned grid for atomic number  42.
 Defaulting to unpruned grid for atomic number  42.
 Defaulting to unpruned grid for atomic number  42.
 Defaulting to unpruned grid for atomic number  42.
 Defaulting to unpruned grid for atomic number  42.
 Defaulting to unpruned grid for atomic number  42.
 Defaulting to unpruned grid for atomic number  42.
 Defaulting to unpruned grid for atomic number  42.
 Defaulting to unpruned grid for atomic number  42.
 Defaulting to unpruned grid for atomic number  42.
 Defaulting to unpruned grid for atomic number  42.
 Defaulting to unpruned grid for atomic number  42.
 Defaulting to unpruned grid for atomic number  42.
 Defaulting to unpruned grid for atomic number  42.
 Defaulting to unpruned grid for atomic number  42.
 -------------------------------------------------------------------
 Center     Atomic                   Forces (Hartrees/Bohr)
 Number     Number              X              Y              Z
 -------------------------------------------------------------------
      1       42           0.001251355   -0.004149551    0.001562049
      2       16          -0.000942977   -0.000384719   -0.001613824
      3       16          -0.000701213    0.001381630   -0.003071388
      4       16          -0.001721172   -0.002167935   -0.002220057
      5       16          -0.000350294    0.000778898   -0.000852381
      6       42           0.012363575    0.001455437    0.009927203
      7       16          -0.002483664    0.009778532    0.004113377
      8       16           0.008627489    0.001206970   -0.000841466
      9       42          -0.002367035    0.002461156    0.000055630
     10       16           0.001520710   -0.000892310    0.002457844
     11       16          -0.002579995   -0.000350871   -0.001867036
     12       42           0.002452269   -0.001424436    0.001168958
     13       42          -0.003391479   -0.004808693    0.000078681
     14       16          -0.000891475   -0.000277455   -0.000372558
     15       16          -0.000198238    0.000536311    0.000630941
     16       16          -0.001958041    0.000042091    0.005297162
     17       16           0.000856533    0.000542935    0.002744759
     18       42          -0.037271887   -0.005021023   -0.000415797
     19       16           0.034594087    0.019808889   -0.005947458
     20        1          -0.081079846   -0.144187405   -0.056939939
     21       16           0.006075908   -0.018209370   -0.011740717
     22        1           0.068195387    0.143880918    0.057846018
 -------------------------------------------------------------------
 Cartesian Forces:  Max     0.144187405 RMS     0.031009999
 FormGI is forming the generalized inverse of G from B-inverse, IUseBI=4.

 GradGradGradGradGradGradGradGradGradGradGradGradGradGradGradGradGradGrad
 Berny optimization.
 Internal  Forces:  Max     0.152475928 RMS     0.011180758
 Search for a saddle point.
 Step number   1 out of a maximum of  132
 All quantities printed in internal units (Hartrees-Bohrs-Radians)
 Swapping is turned off.
 Second derivative matrix not updated -- analytic derivatives used.
 ITU=  0
     Eigenvalues ---   -0.03335  -0.00021   0.00367   0.00381   0.00487
     Eigenvalues ---    0.00545   0.00686   0.00727   0.00739   0.00800
     Eigenvalues ---    0.01053   0.01302   0.01433   0.01486   0.01734
     Eigenvalues ---    0.01921   0.02008   0.02221   0.02310   0.02681
     Eigenvalues ---    0.02740   0.03092   0.03280   0.03607   0.03918
     Eigenvalues ---    0.04199   0.04307   0.04664   0.04961   0.05624
[...]
 030,-0.00017096,-0.00108926,-0.00719591,-0.06344662,0.03220828,0.00361
 958,0.22077690,0.01584997,-0.00624793,-0.00263423,-0.00070665,0.000415
 56,-0.00540410,0.00004243,-0.00055499,0.00103984,-0.00169369,-0.003274
 17,-0.00198737,0.00569237,0.02940359,-0.03740648,0.00419872,0.00369658
 ,-0.00064663,-0.00071824,-0.00051311,-0.00076244,-0.00121488,-0.001425
 22,-0.00026271,-0.01543263,0.00066524,0.01166478,0.00067038,0.00069121
 ,0.00015435,0.00948124,0.01986193,-0.03160078,0.02915429,0.09812096,0.
 30521139,-0.00222944,-0.00063336,0.00480270,0.00055351,-0.00020415,0.0
 0321160,-0.00044166,0.00002921,-0.00112209,0.00055745,0.00360202,-0.00
 157987,0.00057813,0.00032329,-0.00070883,0.00424002,0.00510586,0.00134
 300,-0.03129970,-0.02708655,0.00893569,-0.00079354,-0.00218347,-0.0018
 0436,-0.00539291,0.00627572,-0.02174245,-0.13835436,-0.03246206,-0.006
 11482,0.00007369,-0.00180331,0.00101147,0.00019796,0.00088574,-0.00059
 606,0.26242854,0.00053891,-0.00083392,-0.00023957,-0.00045339,0.000456
 08,0.00054165,0.00056319,0.00108339,-0.00025103,0.00104313,0.00073850,
 0.00129362,-0.00090697,0.00008474,0.00042239,-0.00052819,-0.00461280,0
 .01218723,-0.03375385,-0.07874275,0.02865188,0.00108680,0.00020292,-0.
 00183316,-0.00054036,-0.00380113,-0.00671117,-0.02928973,-0.01945754,-
 0.00115408,0.00205779,0.00073185,0.00039033,-0.00070535,0.00153602,-0.
 00027048,0.01652087,0.19666063,-0.00028045,0.00128635,-0.00040880,0.00
 036299,-0.00043974,-0.00026644,-0.00028283,-0.00049653,0.00075929,-0.0
 0102230,0.00118592,-0.00035092,0.00085815,-0.00078384,-0.00031962,0.00
 252521,0.00523095,-0.00933510,0.02060672,0.03649259,-0.03234345,0.0024
 4585,-0.00257244,-0.00038750,-0.00561214,0.00073102,0.00410977,-0.0247
 1206,-0.00688568,-0.02998516,-0.00007314,0.00063771,-0.00057031,-0.000
 91141,-0.00011947,0.00090924,0.01626738,0.00137714,0.38727268,-0.00001
 314,-0.00183869,-0.00040625,0.00009962,0.00037768,0.00018396,0.0000942
 4,-0.00018025,0.00026905,0.00058364,0.00019698,0.00056343,-0.00625684,
 -0.00428385,0.00385924,0.00031557,-0.00026069,0.00000173,-0.00014288,-
 0.00004950,0.00022357,-0.00025869,0.00050272,-0.00032668,0.00230356,-0
 .00029522,-0.00147597,-0.00068876,0.00013910,-0.00033299,-0.00497597,0
 .00819217,-0.00314793,-0.21029122,-0.04290972,-0.09499030,0.00054173,0
 .00019903,0.00025924,0.20749390,0.00026600,-0.00058622,0.00051632,0.00
 033537,0.00034748,0.00030835,-0.00000564,-0.00010605,0.00012238,0.0004
 6258,-0.00006759,0.00037975,-0.00622823,-0.00168787,-0.00072464,0.0002
 6257,0.00020330,-0.00050826,-0.00009068,-0.00000708,0.00013818,-0.0001
 0310,0.00029276,0.00003239,-0.00181332,-0.00038626,0.00070834,0.000153
 98,-0.00002625,0.00001539,0.00689210,0.00312373,0.00251111,-0.04151759
 ,-0.02827980,-0.02778512,0.00005306,-0.00003504,0.00014290,0.04887646,
 0.03015388,-0.00148473,0.00041406,0.00070546,-0.00026466,0.00013192,0.
 00046557,-0.00000476,-0.00014155,0.00011642,0.00076710,0.00021812,0.00
 075771,0.00325849,-0.00124832,0.00431995,0.00050292,0.00009102,0.00003
 504,-0.00005313,-0.00002088,0.00018526,-0.00035592,0.00022378,-0.00006
 388,0.00118750,0.00055810,-0.00147693,-0.00030495,0.00004047,-0.000089
 90,-0.00545952,0.00444551,-0.00235008,-0.09513801,-0.02894006,-0.06990
 241,0.00013940,0.00011203,0.00012201,0.10600671,0.03032758,0.07748819,
 0.00072880,-0.00080921,-0.00058445,0.00009183,0.00048921,0.00033148,0.
 00028699,-0.00008640,0.00015078,-0.00108672,0.00041946,0.00020217,-0.0
 0105482,0.00133066,0.00406606,-0.00010663,-0.00003781,0.00006517,0.000
 11204,-0.00000827,-0.00003804,0.00024896,0.00013348,-0.00014633,0.0013
 6095,-0.00060746,0.00009421,-0.00024141,0.00013093,-0.00017675,-0.0012
 5209,0.00386664,0.00085845,-0.04440191,0.03805169,0.05007937,0.0002291
 5,-0.00005711,0.00013742,0.01138255,-0.00760680,-0.00867235,0.03388203
 ,0.00087449,-0.00003820,-0.00080771,-0.00007937,0.00080695,0.00062254,
 0.00031251,-0.00006231,0.00002474,0.00037338,-0.00043452,-0.00005328,0
 .00072671,0.00561496,0.00180622,0.00005571,0.00107303,-0.00044564,0.00
 034219,0.00002656,-0.00029671,-0.00000841,-0.00024795,0.00049924,-0.00
 252148,-0.00062536,0.00093135,0.00042661,0.00000057,0.00025910,0.00581
 721,-0.01041583,-0.00324508,0.03814555,-0.09693279,-0.11228450,-0.0003
 8672,-0.00044145,-0.00036811,-0.00876922,-0.00288559,-0.00621070,-0.03
 535331,0.10443174,0.00009361,0.00213559,-0.00012068,-0.00065904,0.0001
 5841,0.00083801,-0.00006614,-0.00020533,0.00012585,0.00031665,-0.00009
 993,-0.00040821,0.00470578,0.00084659,-0.00732666,-0.00046792,-0.00005
 610,0.00003125,0.00035423,0.00004826,-0.00003256,0.00031461,0.00013468
 ,0.00024075,-0.00043114,-0.00075291,-0.00018445,0.00062803,-0.00005557
 ,0.00032622,0.00072258,-0.00316626,0.00693926,0.05108514,-0.11169174,-
 0.16792023,-0.00025806,-0.00035828,-0.00054735,-0.01036387,-0.00609481
 ,-0.01009422,-0.04614051,0.11904087,0.17747550,0.00064040,0.00036899,-
 0.00091367,-0.00021437,-0.00011473,-0.00015900,-0.00013588,-0.00008938
 ,0.00010297,-0.00041645,-0.00019849,0.00045441,-0.00001522,-0.00000569
 ,0.00012815,0.00262938,-0.00282071,-0.00450832,0.00426645,0.00070419,0
 .00024911,-0.00195162,0.00241586,-0.00165133,0.00164051,-0.00102051,0.
 00193002,-0.00793857,0.00302984,-0.00075131,-0.00051561,0.00012813,-0.
 00070630,0.00003405,-0.00023877,0.00050734,-0.04303096,0.04771778,0.01
 315160,-0.00007626,0.00000792,0.00001012,-0.00002118,0.00006954,-0.000
 01780,0.06055076,-0.00072765,0.00001466,0.00042233,0.00021570,-0.00016
 063,0.00011849,0.00030615,0.00016983,-0.00022802,0.00003434,-0.0000774
 1,0.00002892,0.00012752,0.00000798,-0.00010801,0.00093212,-0.00157351,
 -0.00056695,0.00282135,-0.00777837,0.00253013,-0.00041468,0.00016868,0
 .00212059,-0.00084439,0.00130268,-0.00167246,0.00652848,0.00505380,0.0
 0431007,-0.00005004,-0.00064469,0.00005630,0.00023052,-0.00000308,-0.0
 0004339,0.04477150,-0.08784621,-0.02049062,0.00006416,0.00000436,0.000
 03817,0.00006609,0.00004497,0.00003235,-0.04515519,0.14867696,-0.00105
 765,0.00039231,0.00088798,0.00042956,-0.00019582,0.00030869,0.00023589
 ,-0.00024047,-0.00038458,0.00060623,-0.00069499,-0.00057351,0.00029786
 ,0.00007710,-0.00014136,-0.00253801,0.00369316,0.00333549,-0.00344437,
 0.00027590,-0.00028079,-0.00207439,0.00119644,-0.00401653,-0.00115728,
 0.00126387,-0.00202799,0.00649948,0.00247610,0.00240667,-0.00016951,-0
 .00088851,0.00033921,0.00045201,-0.00002753,-0.00040457,0.00509988,-0.
 00958397,-0.02044066,-0.00000680,-0.00006161,-0.00003903,0.00009167,0.
 00011206,0.00013672,-0.02217327,-0.03001567,0.07965756,0.00048018,-0.0
 0012309,0.00003372,-0.00003142,-0.00006615,-0.00001518,-0.00007194,0.0
 0000944,0.00002741,-0.00021593,0.00015059,0.00039246,-0.00011127,0.000
 15051,0.00005082,0.00088864,-0.00071907,-0.00129062,0.00077633,0.00064
 470,0.00257894,0.00043749,0.00002388,0.00019507,0.00011855,-0.00063546
 ,0.00023534,-0.00036949,0.00011584,-0.00928886,-0.00019189,-0.00017394
 ,0.00029692,0.00023274,-0.00003772,-0.00006020,-0.02760103,-0.00262848
 ,-0.03411981,-0.00007532,-0.00003256,-0.00005128,-0.00004994,0.0000936
 8,0.00008739,0.00066108,-0.00054944,0.00632436,0.02231477,-0.00004857,
 -0.00014677,0.00004589,0.00003321,0.00008109,-0.00027363,0.00000495,0.
 00001385,-0.00014813,0.00012935,-0.00028597,-0.00023868,-0.00003902,0.
 00001324,-0.00001818,-0.00018299,0.00053364,0.00045866,0.00297846,0.00
 294599,0.00403687,-0.00019569,0.00019592,0.00032636,0.00014871,0.00033
 730,0.00048597,-0.00035003,-0.00040603,-0.00219529,-0.00011045,-0.0000
 8575,0.00024850,0.00007121,-0.00006102,-0.00008127,-0.00323155,-0.0197
 6105,-0.01818188,-0.00001836,-0.00001740,-0.00000906,-0.00000270,0.000
 07695,0.00007600,-0.00207543,0.00090238,-0.00779463,0.00210901,0.01560
 368,0.00042165,-0.00080837,-0.00026846,-0.00012023,0.00023857,-0.00042
 815,-0.00000446,0.00017350,-0.00030933,-0.00005738,-0.00006805,0.00043
 833,-0.00042096,0.00038835,0.00013995,0.00098568,-0.00046950,-0.000782
 31,0.00117121,0.00457571,-0.00278203,0.00024206,0.00042326,0.00079940,
 0.00194817,-0.00060750,0.00144439,-0.01452429,-0.00173043,0.00115905,-
 0.00053806,0.00036703,0.00006549,0.00070711,-0.00066675,-0.00030550,-0
 .03463873,-0.01869796,-0.27903791,-0.00034174,-0.00007005,-0.00023161,
 -0.00020112,0.00045407,0.00058661,0.00660658,-0.00657201,-0.00434314,0
 .03736608,0.02414349,0.28478947,-0.00338839,-0.00031597,-0.00347021,-0
 .00004062,-0.00004912,-0.00071856,-0.00062037,-0.00025569,0.00218657,0
 .00045805,0.00113680,-0.00007721,-0.00025913,-0.00072523,0.00013028,-0
 .01780679,0.02054652,0.00705216,0.00266308,0.00572760,0.00075364,0.000
 83543,-0.01565576,-0.01256793,0.00072276,0.00150025,0.00462114,0.00066
 486,0.00033702,0.00035561,0.00133250,0.00130147,0.00026081,-0.00100367
 ,0.00061781,-0.00042167,-0.02585861,0.00067665,0.00981439,0.00025804,0
 .00017433,0.00011142,-0.00003135,-0.00034714,-0.00015449,-0.01154390,-
 0.00297303,-0.00015973,0.00354177,0.00042388,0.00080046,0.27895258,-0.
 00094783,0.00104803,0.00007051,0.00006228,0.00017493,-0.00011667,0.000
 38741,-0.00009443,-0.00048226,0.00157192,-0.00106543,-0.00071814,0.000
 54669,-0.00012281,-0.00008275,0.01030350,-0.01178236,0.01200237,0.0054
 3235,-0.02847276,-0.01564535,0.00301728,-0.00351020,-0.00095472,-0.002
 67123,0.00024697,0.00111993,-0.00015311,0.00059057,-0.00269975,0.00086
 695,-0.00003612,0.00114555,-0.00004920,-0.00016822,-0.00066763,-0.0134
 5022,0.01704152,0.00528837,0.00006565,-0.00006016,-0.00007939,0.000124
 82,-0.00004746,0.00000688,0.00267093,-0.06196640,0.03838375,0.00189229
 ,-0.00033014,-0.00165647,0.01855035,0.21181301,-0.00028989,-0.00096752
 ,0.00182025,-0.00068598,0.00047084,-0.00131084,0.00162192,-0.00093686,
 0.00032744,-0.00345581,0.00089613,0.00212135,-0.00057194,0.00041651,-0
 .00030534,-0.00476724,0.00128385,-0.01714861,-0.00229274,-0.01150699,0
 .00469076,-0.00851836,0.00021236,-0.00581022,0.00096425,0.00117681,0.0
 0191984,-0.00286000,0.00031179,-0.00016064,0.00012324,0.00015477,-0.00
 003271,0.00076754,0.00022305,0.00031618,0.02690153,-0.00340907,-0.0177
 8611,-0.00011985,0.00000555,-0.00005888,-0.00010216,0.00005662,0.00005
 750,0.00195006,0.05047521,-0.05257562,-0.00261627,-0.00109885,-0.00102
 877,-0.03694291,0.05125213,0.22839532,0.00032843,-0.00001964,0.0009965
 2,0.00019181,-0.00014215,0.00007635,0.00044691,-0.00023388,-0.00040849
 ,-0.00029576,-0.00045683,-0.00053127,0.00003428,0.00018170,-0.00005225
 ,-0.00265001,0.00002690,-0.00298064,-0.01191929,0.00005800,0.00223563,
 -0.00615725,0.00421856,0.00172671,-0.00209441,0.00175052,-0.00154564,-
 0.00025266,-0.00037085,-0.00024849,-0.00036755,-0.00076371,0.00019005,
 0.00057010,-0.00037680,-0.00000417,0.00279222,-0.00155828,0.00283633,-
 0.00013645,-0.00005623,-0.00007459,-0.00001335,0.00017360,0.00018154,-
 0.00412485,-0.00363390,0.01040215,-0.00049341,0.00033636,0.00051221,-0
 .13935818,-0.06794265,-0.03769132,0.16485795,0.00111045,-0.00046840,0.
 00030973,-0.00001618,0.00011971,-0.00010342,-0.00009501,0.00023590,-0.
 00056216,-0.00009337,-0.00009503,0.00005911,-0.00007036,0.00018871,0.0
 0003011,-0.00102592,0.00256373,-0.00187449,0.00165395,-0.00055178,-0.0
 0179371,-0.00218587,0.00300590,0.00176153,-0.00009128,0.00004880,-0.00
 016549,-0.00048535,-0.00010619,-0.00009271,-0.00053877,0.00006492,-0.0
 0028808,0.00012464,-0.00043871,0.00033910,0.00098445,-0.00177603,0.000
 57164,-0.00015078,0.00000049,-0.00005878,-0.00007502,0.00009507,0.0000
 7920,-0.00462576,-0.00225862,0.00117453,0.00014004,0.00020296,0.000607
 77,-0.04861916,-0.04916758,-0.01110416,0.07126446,0.07864108,-0.000133
 74,-0.00014080,0.00034980,0.00020583,-0.00028867,0.00007216,0.00002621
 ,0.00003040,-0.00007920,0.00010539,-0.00005916,-0.00017715,0.00000037,
 0.00008674,-0.00005943,0.00096913,-0.00166028,0.00017701,0.00416152,0.
 00058442,-0.00101337,0.00206033,-0.00077990,0.00038679,-0.00106489,0.0
 0142907,-0.00050064,0.00040621,-0.00005408,0.00026657,-0.00025984,-0.0
 0030340,0.00028306,0.00038180,-0.00023785,0.00001355,0.00080716,-0.000
 26488,-0.00073605,-0.00012071,-0.00004388,-0.00008346,-0.00002111,0.00
 011495,0.00012092,0.00379311,0.00035590,0.00364785,0.,0.00004393,0.000
 35528,-0.01958816,-0.00607437,-0.02381955,0.02849408,0.03429732,0.0478
 0992,-0.00006180,0.00007147,-0.00015208,-0.00007238,0.00004091,-0.0000
 2449,-0.00002039,0.00006095,-0.00004346,-0.00006811,0.00019903,0.00013
 311,-0.00005229,-0.00000523,0.00001855,0.00031794,-0.00081564,0.000513
 78,0.00021512,0.00011317,0.00073641,0.00038406,-0.00032190,-0.00078204
 ,0.00058453,-0.00030724,0.00017450,0.00006103,0.00000255,-0.00000441,-
 0.00003038,0.00014711,-0.00000008,0.00001327,0.00002397,0.00000133,0.0
 0042228,0.00022143,-0.00044002,-0.00003747,-0.00001006,-0.00002753,-0.
 00001378,0.00001573,0.00001978,0.00035319,-0.00010006,-0.00012311,-0.0
 0005700,0.00004062,0.00005348,-0.02185583,-0.00315802,0.00319878,-0.00
 356357,0.00370552,0.00131688,0.06279347,0.00042747,0.00012258,0.000256
 08,0.00009535,-0.00006836,0.00002977,-0.00001482,-0.00012823,0.0000474
 9,-0.00006306,-0.00019170,-0.00032338,0.00008531,0.00000241,-0.0000152
 4,-0.00130776,0.00122163,-0.00162058,-0.00313686,-0.00115282,-0.000504
 54,-0.00170287,0.00144030,0.00086002,-0.00096172,0.00049493,0.00000857
 ,-0.00006805,-0.00018125,-0.00025667,-0.00001436,-0.00023072,-0.000041
 20,-0.00004823,-0.00008087,0.00007435,0.00025447,0.00023378,0.00258610
 ,0.00005106,0.00001251,0.00004325,0.00001859,-0.00001992,-0.00004130,-
 0.00127668,0.00097131,0.00127089,-0.00023660,-0.00006342,-0.00019838,0
 .02924975,-0.00095934,-0.01454504,-0.02004171,-0.00362893,0.01738698,0
 .03574484,0.04398017,0.00038468,0.00002467,0.00039110,0.00022801,-0.00
 018148,0.00004349,0.00004758,-0.00014297,0.00001220,-0.00002387,-0.000
 30354,-0.00024343,0.00013513,-0.00002416,-0.00002255,-0.00181471,0.002
 12095,-0.00202965,-0.00388985,-0.00221540,-0.00045059,-0.00228164,0.00
 219203,0.00233048,-0.00156635,0.00103420,-0.00045685,-0.00001551,-0.00
 024519,-0.00026461,-0.00001724,-0.00040459,-0.00003462,-0.00002669,-0.
 00008800,0.00008101,-0.00015691,0.00025628,0.00342096,0.00006133,0.000
 01737,0.00004776,0.00002416,-0.00003106,-0.00005061,-0.00113691,0.0000
 4830,0.00132414,-0.00027782,-0.00000871,-0.00043773,0.04240132,-0.0053
 2681,-0.01471532,-0.02528076,0.00850470,0.00782006,0.02708636,0.012214
 69,0.02754886,0.00098492,-0.00038761,0.00051974,0.00020712,-0.00021674
 ,0.00024174,0.00001484,0.00004177,0.00012296,-0.00007200,-0.00002155,-
 0.00000273,0.00010111,0.00006667,-0.00002672,-0.00039017,0.00057848,-0
 .00331254,-0.00231689,0.00190398,0.00248611,-0.01168453,0.00395737,0.0
 0323649,-0.00115020,0.00135823,-0.00081443,0.00013677,-0.00023868,0.00
 002313,-0.00060314,-0.00049656,0.00014412,0.00011585,-0.00033392,0.000
 29191,0.00164979,0.00009159,0.00214435,-0.00004447,-0.00000115,-0.0000
 3488,-0.00002360,0.00000930,-0.00000437,-0.00213930,-0.00108502,0.0034
 8736,-0.00035297,-0.00015597,-0.00039422,-0.02183711,0.02997917,0.0371
 1871,-0.02350595,-0.00322779,0.00741202,-0.01468595,-0.04651108,-0.047
 29432,0.05230863,-0.00021652,0.00005701,0.00039994,0.00006734,-0.00015
 862,0.00021320,0.00007939,-0.00026209,0.00015447,0.00004185,0.00033851
 ,-0.00017365,0.00003744,-0.00001443,-0.00003682,-0.00053409,-0.0015054
 3,0.00029156,0.00394048,0.00139909,-0.00147174,0.00350430,-0.00108621,
 -0.00113900,-0.00077746,0.00084184,-0.00107030,0.00157247,-0.00032217,
 0.00124062,0.00008533,-0.00030116,0.00014830,0.00003086,0.00005404,-0.
 00010329,0.00254188,-0.00086507,-0.00379176,0.00008927,0.00000161,0.00
 006466,0.00002218,0.00000566,-0.00000965,0.00046318,0.00435359,-0.0005
 5222,-0.00028146,0.00014971,-0.00012659,0.00928207,-0.07656535,-0.0684
 7553,-0.00877453,-0.00812660,-0.01479859,-0.00227639,-0.00817780,-0.00
 794868,-0.00707498,0.09816228,0.00079630,0.00023837,-0.00111979,-0.000
 34688,0.00045443,0.00049468,-0.00091564,-0.00003163,0.00061743,0.00005
 446,0.00082625,0.00020522,-0.00020938,-0.00008878,0.00021489,0.0013852
 3,-0.00088706,0.00178032,0.00725892,-0.00140519,-0.00289792,0.00345681
 ,-0.00201747,-0.00242249,0.00233838,-0.00240801,0.00074312,0.00108747,
 0.00019975,0.00105647,0.00031801,0.00068442,-0.00014176,-0.00082468,0.
 00048475,-0.00017317,-0.00012146,-0.00248913,-0.00316289,0.00019999,0.
 00005846,0.00014100,-0.00001487,-0.00016997,-0.00017711,0.00266195,-0.
 00011527,-0.00679476,0.00007640,0.00011830,-0.00000677,0.01124160,-0.0
 7229176,-0.10670187,0.00053816,-0.01659761,-0.01181877,0.00279295,0.00
 549106,0.00653586,-0.01857841,0.09339405,0.13474864,-0.00053130,-0.000
 02820,-0.00046400,-0.00023848,0.00018491,-0.00004927,-0.00005688,0.000
 19411,-0.00007968,0.00004188,0.00037044,0.00036424,-0.00015313,0.00001
 444,0.00003434,0.00201913,-0.00245857,0.00269300,0.00392889,0.00191540
 ,0.00073001,0.00219242,-0.00215109,-0.00215148,0.00166544,-0.00105625,
 0.00022042,0.00011103,0.00021293,0.00033030,0.00003584,0.00042433,0.00
 006389,0.00004957,0.00013462,-0.00013086,0.00073775,-0.00029545,-0.003
 95547,-0.00007540,-0.00001900,-0.00005735,-0.00002650,0.00002943,0.000
 05401,0.00134835,-0.00056452,-0.00102233,0.00017006,0.00013501,0.00042
 649,-0.04582511,0.01290067,0.02826845,0.02571099,-0.01768290,-0.028951
 60,-0.02462596,0.00945697,0.01341400,0.02328724,-0.00182260,-0.0131953
 0,0.01023419,-0.00009625,0.00015291,-0.00055891,-0.00020096,0.00019037
 ,-0.00003893,-0.00022365,0.00013463,-0.00003182,0.00000038,0.00017749,
 0.00019741,-0.00006790,-0.00003617,0.00005158,0.00125483,-0.00070250,0
 .00177910,0.00177413,0.00104682,0.00023558,0.00200214,-0.00123669,-0.0
 0182839,0.00132345,-0.00118892,0.00071937,-0.00026826,0.00019294,0.000
 03846,0.00012154,0.00042161,-0.00007935,-0.00015878,0.00013299,-0.0000
 1738,0.00009333,-0.00059644,-0.00140064,0.00000200,0.00000515,0.000000
 08,-0.00000966,-0.00002509,-0.00002694,0.00004499,0.00063773,-0.000260
 69,0.00015400,0.00010084,0.00030033,-0.02058339,0.00343373,0.00510839,
 0.02636106,-0.01854939,-0.02962383,-0.03339276,-0.03359622,-0.00949262
 ,0.02176447,-0.00797840,-0.00344798,0.00010531,0.05728262,-0.00000898,
 0.00010453,-0.00014796,-0.00003918,0.00000708,-0.00001915,-0.00007796,
 -0.00002075,-0.00003889,-0.00001718,0.00010185,0.00009167,-0.00000864,
 -0.00002485,0.00001300,0.00018982,-0.00042198,0.00044421,0.00066719,-0
 .00027007,-0.00016695,0.00085811,-0.00053533,-0.00062996,0.00032145,-0
 .00032379,0.00019940,0.00005854,-0.00001839,0.00006995,0.00001921,0.00
 013192,-0.00003810,-0.00005825,0.00002651,0.00002027,0.00032383,0.0000
 3023,-0.00091566,0.00000486,0.00000429,0.00000603,-0.00000324,-0.00000
 901,-0.00001650,0.00047249,-0.00072435,-0.00002176,0.00005511,0.000064
 35,0.00018372,-0.00562855,-0.00247342,0.00180584,0.02062787,-0.0150941
 5,-0.02301533,-0.03444869,-0.02272291,-0.03084994,0.01323399,0.0037910
 3,-0.01112032,0.00345818,0.03837718,0.06414644\\0.00001059,0.00000540,
 -0.00000731,0.00000341,-0.00000005,-0.00000228,-0.00000383,0.00000458,
 -0.00001180,0.00000253,0.00000562,-0.00000368,0.00000307,0.00000034,-0
 .00000216,0.00001251,0.00002661,0.00001701,-0.00000304,-0.00000959,0.0
 0000921,-0.00002495,-0.00002846,-0.00002726,-0.00002038,-0.00000477,0.
 00001205,0.00000061,-0.00000645,0.00000714,0.00000245,-0.00000409,0.00
 000148,-0.00000933,-0.00000415,0.00000141,0.00000635,0.00000386,0.0000
 0387,-0.00000122,-0.00000064,0.00000057,0.00000029,0.00000092,0.000001
 17,0.00000399,0.00000034,0.00000301,0.00000037,0.00000282,-0.00000070,
 0.00001688,0.00001242,0.00000452,-0.00001980,0.00000191,-0.00000572,0.
 00001123,-0.00000467,0.00000746,-0.00000146,0.00000468,0.00000002,0.00
 000972,-0.00000662,-0.00000801\\\@
 The archive entry for this job was punched.


 K N O W I N G  IS A BARRIER WHICH PREVENTS LEARNING

                     -- TEACHING OF THE BENE GESSERIT
 Job cpu time:       0 days  2 hours 52 minutes 30.5 seconds.
 Elapsed time:       0 days  0 hours  3 minutes 46.5 seconds.
 File lengths (MBytes):  RWF=    588 Int=      0 D2E=      0 Chk=     15 Scr=      2
 Normal termination of Gaussian 16 at Fri Dec  9 14:02:31 2022.
