 Entering Gaussian System, Link 0=g16
 Initial command:
 /home/chesagar/softwares/G16_AVX2//g16/l1.exe "/home/chesagar/scratch/Gau-41664.inp" -scrdir="/home/chesagar/scratch/"
 Entering Link 1 = /home/chesagar/softwares/G16_AVX2//g16/l1.exe PID=     41665.
  
 Copyright (c) 1988-2019, Gaussian, Inc.  All Rights Reserved.
  
 This is part of the Gaussian(R) 16 program.  It is based on
 the Gaussian(R) 09 system (copyright 2009, Gaussian, Inc.),
 the Gaussian(R) 03 system (copyright 2003, Gaussian, Inc.),
 the Gaussian(R) 98 system (copyright 1998, Gaussian, Inc.),
 the Gaussian(R) 94 system (copyright 1995, Gaussian, Inc.),
 the Gaussian 92(TM) system (copyright 1992, Gaussian, Inc.),
 the Gaussian 90(TM) system (copyright 1990, Gaussian, Inc.),
 the Gaussian 88(TM) system (copyright 1988, Gaussian, Inc.),
 the Gaussian 86(TM) system (copyright 1986, Carnegie Mellon
 University), and the Gaussian 82(TM) system (copyright 1983,
 Carnegie Mellon University). Gaussian is a federally registered
 trademark of Gaussian, Inc.
  
 This software contains proprietary and confidential information,
 including trade secrets, belonging to Gaussian, Inc.
  
 This software is provided under written license and may be
 used, copied, transmitted, or stored only in accord with that
 written license.
  
 The following legend is applicable only to US Government
 contracts under FAR:
  
                    RESTRICTED RIGHTS LEGEND
  
 Use, reproduction and disclosure by the US Government is
 subject to restrictions as set forth in subparagraphs (a)
 and (c) of the Commercial Computer Software - Restricted
 Rights clause in FAR 52.227-19.
  
 Gaussian, Inc.
 340 Quinnipiac St., Bldg. 40, Wallingford CT 06492
  
  
 ---------------------------------------------------------------
 Warning -- This program may not be used in any manner that
 competes with the business of Gaussian, Inc. or will provide
 assistance to any competitor of Gaussian, Inc.  The licensee
 of this program is prohibited from giving any competitor of
 Gaussian, Inc. access to this program.  By using this program,
 the user acknowledges that Gaussian, Inc. is engaged in the
 business of creating and licensing software in the field of
 computational chemistry and represents and warrants to the
 licensee that it is not a competitor of Gaussian, Inc. and that
 it will not use this program in any manner prohibited above.
 ---------------------------------------------------------------
  

 Cite this work as:
 Gaussian 16, Revision C.01,
 M. J. Frisch, G. W. Trucks, H. B. Schlegel, G. E. Scuseria, 
 M. A. Robb, J. R. Cheeseman, G. Scalmani, V. Barone, 
 G. A. Petersson, H. Nakatsuji, X. Li, M. Caricato, A. V. Marenich, 
 J. Bloino, B. G. Janesko, R. Gomperts, B. Mennucci, H. P. Hratchian, 
 J. V. Ortiz, A. F. Izmaylov, J. L. Sonnenberg, D. Williams-Young, 
 F. Ding, F. Lipparini, F. Egidi, J. Goings, B. Peng, A. Petrone, 
 T. Henderson, D. Ranasinghe, V. G. Zakrzewski, J. Gao, N. Rega, 
 G. Zheng, W. Liang, M. Hada, M. Ehara, K. Toyota, R. Fukuda, 
 J. Hasegawa, M. Ishida, T. Nakajima, Y. Honda, O. Kitao, H. Nakai, 
 T. Vreven, K. Throssell, J. A. Montgomery, Jr., J. E. Peralta, 
 F. Ogliaro, M. J. Bearpark, J. J. Heyd, E. N. Brothers, K. N. Kudin, 
 V. N. Staroverov, T. A. Keith, R. Kobayashi, J. Normand, 
 K. Raghavachari, A. P. Rendell, J. C. Burant, S. S. Iyengar, 
 J. Tomasi, M. Cossi, J. M. Millam, M. Klene, C. Adamo, R. Cammi, 
 J. W. Ochterski, R. L. Martin, K. Morokuma, O. Farkas, 
 J. B. Foresman, and D. J. Fox, Gaussian, Inc., Wallingford CT, 2019.
 
 ******************************************
 Gaussian 16:  ES64L-G16RevC.01  3-Jul-2019
                 9-Dec-2022 
 ******************************************
 %nprocshared=46
 Will use up to   46 processors via shared memory.
 %mem=100GB
 ---------------------------------------
 # opt freq b3lyp/gen nosymm pseudo=read
 ---------------------------------------
 1/18=20,19=15,26=3,38=1/1,3;
 2/9=110,12=2,15=1,17=6,18=5,40=1/2;
 3/5=7,11=2,16=1,17=8,25=1,30=1,71=1,74=-5/1,2,3;
 4//1;
 5/5=2,38=5/2;
 6/7=2,8=2,9=2,10=2,28=1/1;
 7/30=1/1,2,3,16;
 1/18=20,19=15,26=3/3(2);
 2/9=110,15=1/2;
 99//99;
 2/9=110,15=1/2;
 3/5=7,6=1,11=2,16=1,17=8,25=1,30=1,71=1,74=-5,82=7/1,2,3;
 4/5=5,16=3,69=1/1;
 5/5=2,38=5/2;
 7/30=1/1,2,3,16;
 1/18=20,19=15,26=3/3(-5);
 2/9=110,15=1/2;
 6/7=2,8=2,9=2,10=2,19=2,28=1/1;
 99/9=1/99;
 -------------------
 Title Card Required
 -------------------
 Symbolic Z-matrix:
 Charge =  0 Multiplicity = 1
 42                    0.44275   1.51382   11.88724 
 16                    1.38035   3.56226   12.31602 
 16                   -1.58341   1.65501   12.98931 
 16                   -0.37954   1.27421   9.67371 
 16                    2.11509  -0.1472    11.45753 
 42                   -2.03572   2.58349   10.87932 
 16                   -3.29347   2.05235   8.68417 
 16                   -1.41063   4.72254   10.96203 
 42                    0.40271   3.45274   10.04044 
 16                   -0.35005   4.31318   7.78168 
 16                    2.48698   2.95741   8.80718 
 42                    3.44599   1.39066   10.16304 
 42                   -2.6138    4.10613   7.66666 
 16                    4.73625   2.62497   11.50369 
 16                    4.74341   0.18011   9.01591 
 16                   -3.93559   5.69804   8.74102 
 16                   -3.25268   4.03981   5.665 
 42                   -4.7336    3.67792   9.57777 
 16                   -6.73129   3.35345   8.97563 
 16                   -4.31798   3.28905   11.75344 
 42                    3.03403   1.61328   13.03082 
 

 GradGradGradGradGradGradGradGradGradGradGradGradGradGradGradGradGradGrad
 Berny optimization.
 Initialization pass.
                           ----------------------------
                           !    Initial Parameters    !
                           ! (Angstroms and Degrees)  !
 --------------------------                            --------------------------
 ! Name  Definition              Value          Derivative Info.                !
 --------------------------------------------------------------------------------
 ! R1    R(1,2)                  2.2933         estimate D2E/DX2                !
 ! R2    R(1,3)                  2.3108         estimate D2E/DX2                !
 ! R3    R(1,4)                  2.3735         estimate D2E/DX2                !
 ! R4    R(1,5)                  2.3959         estimate D2E/DX2                !
 ! R5    R(1,6)                  2.8815         estimate D2E/DX2                !
 ! R6    R(1,9)                  2.678          estimate D2E/DX2                !
 ! R7    R(1,21)                 2.8342         estimate D2E/DX2                !
 ! R8    R(2,9)                  2.4791         estimate D2E/DX2                !
 ! R9    R(2,21)                 2.6541         estimate D2E/DX2                !
 ! R10   R(3,6)                  2.3492         estimate D2E/DX2                !
 ! R11   R(4,6)                  2.4312         estimate D2E/DX2                !
 ! R12   R(4,9)                  2.3436         estimate D2E/DX2                !
 ! R13   R(5,12)                 2.4108         estimate D2E/DX2                !
 ! R14   R(5,21)                 2.5336         estimate D2E/DX2                !
 ! R15   R(6,7)                  2.5851         estimate D2E/DX2                !
 ! R16   R(6,8)                  2.2301         estimate D2E/DX2                !
 ! R17   R(6,9)                  2.7213         estimate D2E/DX2                !
 ! R18   R(6,20)                 2.5437         estimate D2E/DX2                !
 ! R19   R(7,13)                 2.3907         estimate D2E/DX2                !
 ! R20   R(7,18)                 2.3484         estimate D2E/DX2                !
 ! R21   R(8,9)                  2.3979         estimate D2E/DX2                !
 ! R22   R(9,10)                 2.5316         estimate D2E/DX2                !
 ! R23   R(9,11)                 2.4719         estimate D2E/DX2                !
 ! R24   R(10,13)                2.2761         estimate D2E/DX2                !
 ! R25   R(11,12)                2.2831         estimate D2E/DX2                !
 ! R26   R(12,14)                2.2328         estimate D2E/DX2                !
 ! R27   R(12,15)                2.113          estimate D2E/DX2                !
 ! R28   R(12,21)                2.9058         estimate D2E/DX2                !
 ! R29   R(13,16)                2.3314         estimate D2E/DX2                !
 ! R30   R(13,17)                2.1022         estimate D2E/DX2                !
 ! R31   R(13,18)                2.886          estimate D2E/DX2                !
 ! R32   R(14,21)                2.5006         estimate D2E/DX2                !
 ! R33   R(16,18)                2.3276         estimate D2E/DX2                !
 ! R34   R(18,19)                2.1115         estimate D2E/DX2                !
 ! R35   R(18,20)                2.2489         estimate D2E/DX2                !
 ! A1    A(2,1,3)              102.4004         estimate D2E/DX2                !
 ! A2    A(2,1,4)              113.9664         estimate D2E/DX2                !
 ! A3    A(2,1,5)              111.5566         estimate D2E/DX2                !
 ! A4    A(2,1,6)               94.9036         estimate D2E/DX2                !
 ! A5    A(3,1,4)               98.4634         estimate D2E/DX2                !
 ! A6    A(3,1,5)              137.7239         estimate D2E/DX2                !
 ! A7    A(3,1,9)              105.7565         estimate D2E/DX2                !
 ! A8    A(3,1,21)             127.3801         estimate D2E/DX2                !
 ! A9    A(4,1,5)               90.2618         estimate D2E/DX2                !
 ! A10   A(4,1,21)             134.1563         estimate D2E/DX2                !
 ! A11   A(5,1,6)              142.6553         estimate D2E/DX2                !
 ! A12   A(5,1,9)              112.8734         estimate D2E/DX2                !
 ! A13   A(6,1,21)             156.1411         estimate D2E/DX2                !
 ! A14   A(9,1,21)             105.4575         estimate D2E/DX2                !
 ! A15   A(9,2,21)             117.4178         estimate D2E/DX2                !
 ! A16   A(1,5,12)              92.2578         estimate D2E/DX2                !
 ! A17   A(1,6,7)              129.7358         estimate D2E/DX2                !
 ! A18   A(1,6,8)               95.8543         estimate D2E/DX2                !
 ! A19   A(1,6,20)             138.9805         estimate D2E/DX2                !
 ! A20   A(3,6,4)               95.8194         estimate D2E/DX2                !
 ! A21   A(3,6,7)              140.8197         estimate D2E/DX2                !
 ! A22   A(3,6,8)              106.9672         estimate D2E/DX2                !
 ! A23   A(3,6,9)              103.3326         estimate D2E/DX2                !
 ! A24   A(3,6,20)              88.4943         estimate D2E/DX2                !
 ! A25   A(4,6,7)               78.4457         estimate D2E/DX2                !
 ! A26   A(4,6,8)              110.121          estimate D2E/DX2                !
 ! A27   A(4,6,20)             158.5882         estimate D2E/DX2                !
 ! A28   A(7,6,8)              111.4047         estimate D2E/DX2                !
 ! A29   A(7,6,9)              103.8768         estimate D2E/DX2                !
 ! A30   A(7,6,20)              84.9666         estimate D2E/DX2                !
 ! A31   A(8,6,20)              88.4352         estimate D2E/DX2                !
 ! A32   A(9,6,20)             145.2141         estimate D2E/DX2                !
 ! A33   A(6,7,13)              92.6698         estimate D2E/DX2                !
 ! A34   A(6,7,18)              80.3883         estimate D2E/DX2                !
 ! A35   A(1,9,8)               97.4502         estimate D2E/DX2                !
 ! A36   A(1,9,10)             149.9767         estimate D2E/DX2                !
 ! A37   A(1,9,11)             100.741          estimate D2E/DX2                !
 ! A38   A(2,9,4)              108.4411         estimate D2E/DX2                !
 ! A39   A(2,9,6)               94.8482         estimate D2E/DX2                !
 ! A40   A(2,9,8)               85.5287         estimate D2E/DX2                !
 ! A41   A(2,9,10)             157.1043         estimate D2E/DX2                !
 ! A42   A(2,9,11)              97.7177         estimate D2E/DX2                !
 ! A43   A(4,9,8)              107.4565         estimate D2E/DX2                !
 ! A44   A(4,9,10)              94.4205         estimate D2E/DX2                !
 ! A45   A(4,9,11)              90.9797         estimate D2E/DX2                !
 ! A46   A(6,9,10)              96.7288         estimate D2E/DX2                !
 ! A47   A(6,9,11)             147.7072         estimate D2E/DX2                !
 ! A48   A(8,9,10)              86.4494         estimate D2E/DX2                !
 ! A49   A(8,9,11)             159.3059         estimate D2E/DX2                !
 ! A50   A(10,9,11)             82.7433         estimate D2E/DX2                !
 ! A51   A(9,10,13)            108.0534         estimate D2E/DX2                !
 ! A52   A(9,11,12)            101.2678         estimate D2E/DX2                !
 ! A53   A(5,12,11)            121.65           estimate D2E/DX2                !
 ! A54   A(5,12,14)            110.4406         estimate D2E/DX2                !
 ! A55   A(5,12,15)            105.3686         estimate D2E/DX2                !
 ! A56   A(11,12,14)           102.7058         estimate D2E/DX2                !
 ! A57   A(11,12,15)           109.1873         estimate D2E/DX2                !
 ! A58   A(11,12,21)           118.2923         estimate D2E/DX2                !
 ! A59   A(14,12,15)           106.7296         estimate D2E/DX2                !
 ! A60   A(15,12,21)           131.8168         estimate D2E/DX2                !
 ! A61   A(7,13,10)            109.8401         estimate D2E/DX2                !
 ! A62   A(7,13,16)            103.2541         estimate D2E/DX2                !
 ! A63   A(7,13,17)            106.963          estimate D2E/DX2                !
 ! A64   A(10,13,16)           118.5857         estimate D2E/DX2                !
 ! A65   A(10,13,17)           110.6862         estimate D2E/DX2                !
 ! A66   A(10,13,18)           135.2795         estimate D2E/DX2                !
 ! A67   A(16,13,17)           106.7394         estimate D2E/DX2                !
 ! A68   A(17,13,18)           113.7418         estimate D2E/DX2                !
 ! A69   A(7,18,16)            104.6979         estimate D2E/DX2                !
 ! A70   A(7,18,19)            111.4257         estimate D2E/DX2                !
 ! A71   A(7,18,20)             97.7642         estimate D2E/DX2                !
 ! A72   A(13,18,19)           121.9286         estimate D2E/DX2                !
 ! A73   A(13,18,20)           122.042          estimate D2E/DX2                !
 ! A74   A(16,18,19)           110.8062         estimate D2E/DX2                !
 ! A75   A(16,18,20)           115.7532         estimate D2E/DX2                !
 ! A76   A(19,18,20)           115.0973         estimate D2E/DX2                !
 ! A77   A(6,20,18)             83.1844         estimate D2E/DX2                !
 ! A78   A(1,21,12)             74.2589         estimate D2E/DX2                !
 ! A79   A(1,21,14)            112.9647         estimate D2E/DX2                !
 ! A80   A(2,21,5)              96.7205         estimate D2E/DX2                !
 ! A81   A(2,21,12)             83.0383         estimate D2E/DX2                !
 ! A82   A(2,21,14)             87.855          estimate D2E/DX2                !
 ! A83   A(5,21,14)             98.5571         estimate D2E/DX2                !
 ! D1    D(2,1,5,12)           -40.2224         estimate D2E/DX2                !
 ! D2    D(3,1,5,12)           178.7226         estimate D2E/DX2                !
 ! D3    D(4,1,5,12)            75.7895         estimate D2E/DX2                !
 ! D4    D(6,1,5,12)            91.787          estimate D2E/DX2                !
 ! D5    D(9,1,5,12)            24.2821         estimate D2E/DX2                !
 ! D6    D(2,1,6,7)            129.4248         estimate D2E/DX2                !
 ! D7    D(2,1,6,8)              5.2096         estimate D2E/DX2                !
 ! D8    D(2,1,6,20)           -89.1518         estimate D2E/DX2                !
 ! D9    D(5,1,6,7)             -6.6593         estimate D2E/DX2                !
 ! D10   D(5,1,6,8)           -130.8745         estimate D2E/DX2                !
 ! D11   D(5,1,6,20)           134.7641         estimate D2E/DX2                !
 ! D12   D(21,1,6,7)           132.4821         estimate D2E/DX2                !
 ! D13   D(21,1,6,8)             8.2669         estimate D2E/DX2                !
 ! D14   D(21,1,6,20)          -86.0944         estimate D2E/DX2                !
 ! D15   D(3,1,9,8)             16.7253         estimate D2E/DX2                !
 ! D16   D(3,1,9,10)           -79.0978         estimate D2E/DX2                !
 ! D17   D(3,1,9,11)          -173.1861         estimate D2E/DX2                !
 ! D18   D(5,1,9,8)            179.1735         estimate D2E/DX2                !
 ! D19   D(5,1,9,10)            83.3504         estimate D2E/DX2                !
 ! D20   D(5,1,9,11)           -10.7379         estimate D2E/DX2                !
 ! D21   D(21,1,9,8)          -120.371          estimate D2E/DX2                !
 ! D22   D(21,1,9,10)          143.8059         estimate D2E/DX2                !
 ! D23   D(21,1,9,11)           49.7177         estimate D2E/DX2                !
 ! D24   D(3,1,21,12)         -178.0438         estimate D2E/DX2                !
 ! D25   D(3,1,21,14)         -148.9069         estimate D2E/DX2                !
 ! D26   D(4,1,21,12)            2.1258         estimate D2E/DX2                !
 ! D27   D(4,1,21,14)           31.2626         estimate D2E/DX2                !
 ! D28   D(6,1,21,12)          -97.8649         estimate D2E/DX2                !
 ! D29   D(6,1,21,14)          -68.728          estimate D2E/DX2                !
 ! D30   D(9,1,21,12)          -53.5841         estimate D2E/DX2                !
 ! D31   D(9,1,21,14)          -24.4473         estimate D2E/DX2                !
 ! D32   D(21,2,9,4)            46.6401         estimate D2E/DX2                !
 ! D33   D(21,2,9,6)           103.1888         estimate D2E/DX2                !
 ! D34   D(21,2,9,8)           153.5644         estimate D2E/DX2                !
 ! D35   D(21,2,9,10)         -136.6067         estimate D2E/DX2                !
 ! D36   D(21,2,9,11)          -46.9937         estimate D2E/DX2                !
 ! D37   D(9,2,21,5)           -25.2092         estimate D2E/DX2                !
 ! D38   D(9,2,21,12)           25.1546         estimate D2E/DX2                !
 ! D39   D(9,2,21,14)           73.1579         estimate D2E/DX2                !
 ! D40   D(1,4,6,9)             73.3909         estimate D2E/DX2                !
 ! D41   D(1,5,12,11)          -36.5764         estimate D2E/DX2                !
 ! D42   D(1,5,12,14)           83.7863         estimate D2E/DX2                !
 ! D43   D(1,5,12,15)         -161.314          estimate D2E/DX2                !
 ! D44   D(1,6,7,13)          -104.5876         estimate D2E/DX2                !
 ! D45   D(1,6,7,18)          -178.9101         estimate D2E/DX2                !
 ! D46   D(3,6,7,13)          -178.9468         estimate D2E/DX2                !
 ! D47   D(3,6,7,18)           106.7307         estimate D2E/DX2                !
 ! D48   D(4,6,7,13)           -93.9397         estimate D2E/DX2                !
 ! D49   D(4,6,7,18)          -168.2622         estimate D2E/DX2                !
 ! D50   D(8,6,7,13)            13.3374         estimate D2E/DX2                !
 ! D51   D(8,6,7,18)           -60.9851         estimate D2E/DX2                !
 ! D52   D(9,6,7,13)           -46.1727         estimate D2E/DX2                !
 ! D53   D(9,6,7,18)          -120.4952         estimate D2E/DX2                !
 ! D54   D(20,6,7,13)           99.6698         estimate D2E/DX2                !
 ! D55   D(20,6,7,18)           25.3473         estimate D2E/DX2                !
 ! D56   D(3,6,9,2)            -21.4536         estimate D2E/DX2                !
 ! D57   D(3,6,9,10)           178.336          estimate D2E/DX2                !
 ! D58   D(3,6,9,11)            91.2819         estimate D2E/DX2                !
 ! D59   D(7,6,9,2)           -172.9912         estimate D2E/DX2                !
 ! D60   D(7,6,9,10)            26.7984         estimate D2E/DX2                !
 ! D61   D(7,6,9,11)           -60.2556         estimate D2E/DX2                !
 ! D62   D(20,6,9,2)            85.6338         estimate D2E/DX2                !
 ! D63   D(20,6,9,10)          -74.5766         estimate D2E/DX2                !
 ! D64   D(20,6,9,11)         -161.6306         estimate D2E/DX2                !
 ! D65   D(1,6,20,18)         -177.5782         estimate D2E/DX2                !
 ! D66   D(3,6,20,18)         -167.6823         estimate D2E/DX2                !
 ! D67   D(4,6,20,18)          -65.513          estimate D2E/DX2                !
 ! D68   D(7,6,20,18)          -26.3534         estimate D2E/DX2                !
 ! D69   D(8,6,20,18)           85.2949         estimate D2E/DX2                !
 ! D70   D(9,6,20,18)           80.8175         estimate D2E/DX2                !
 ! D71   D(6,7,13,10)           53.3177         estimate D2E/DX2                !
 ! D72   D(6,7,13,16)          -74.0965         estimate D2E/DX2                !
 ! D73   D(6,7,13,17)          173.4951         estimate D2E/DX2                !
 ! D74   D(6,7,18,16)           90.1502         estimate D2E/DX2                !
 ! D75   D(6,7,18,19)         -150.0205         estimate D2E/DX2                !
 ! D76   D(6,7,18,20)          -29.1322         estimate D2E/DX2                !
 ! D77   D(1,9,10,13)           53.2762         estimate D2E/DX2                !
 ! D78   D(2,9,10,13)         -115.1364         estimate D2E/DX2                !
 ! D79   D(4,9,10,13)           61.7744         estimate D2E/DX2                !
 ! D80   D(6,9,10,13)            4.7383         estimate D2E/DX2                !
 ! D81   D(8,9,10,13)          -45.4825         estimate D2E/DX2                !
 ! D82   D(11,9,10,13)         152.201          estimate D2E/DX2                !
 ! D83   D(1,9,11,12)           -9.9438         estimate D2E/DX2                !
 ! D84   D(2,9,11,12)           43.3527         estimate D2E/DX2                !
 ! D85   D(4,9,11,12)          -65.4061         estimate D2E/DX2                !
 ! D86   D(6,9,11,12)          -68.6143         estimate D2E/DX2                !
 ! D87   D(8,9,11,12)          141.1765         estimate D2E/DX2                !
 ! D88   D(10,9,11,12)        -159.7379         estimate D2E/DX2                !
 ! D89   D(9,10,13,7)          -39.2693         estimate D2E/DX2                !
 ! D90   D(9,10,13,16)          79.0365         estimate D2E/DX2                !
 ! D91   D(9,10,13,17)        -157.1595         estimate D2E/DX2                !
 ! D92   D(9,10,13,18)          16.0128         estimate D2E/DX2                !
 ! D93   D(9,11,12,5)           31.9909         estimate D2E/DX2                !
 ! D94   D(9,11,12,14)         -92.0324         estimate D2E/DX2                !
 ! D95   D(9,11,12,15)         154.9572         estimate D2E/DX2                !
 ! D96   D(9,11,12,21)         -33.5277         estimate D2E/DX2                !
 ! D97   D(11,12,21,1)          56.2382         estimate D2E/DX2                !
 ! D98   D(11,12,21,2)           6.6764         estimate D2E/DX2                !
 ! D99   D(15,12,21,1)        -134.5384         estimate D2E/DX2                !
 ! D100  D(15,12,21,2)         175.8998         estimate D2E/DX2                !
 ! D101  D(10,13,18,19)       -173.6688         estimate D2E/DX2                !
 ! D102  D(10,13,18,20)         -5.2612         estimate D2E/DX2                !
 ! D103  D(17,13,18,19)         -0.6476         estimate D2E/DX2                !
 ! D104  D(17,13,18,20)        167.76           estimate D2E/DX2                !
 ! D105  D(7,18,20,6)           29.4239         estimate D2E/DX2                !
 ! D106  D(13,18,20,6)         -21.6236         estimate D2E/DX2                !
 ! D107  D(16,18,20,6)         -81.0685         estimate D2E/DX2                !
 ! D108  D(19,18,20,6)         147.5213         estimate D2E/DX2                !
 --------------------------------------------------------------------------------
 Trust Radius=3.00D-01 FncErr=1.00D-07 GrdErr=1.00D-06 EigMax=2.50D+02 EigMin=1.00D-04
 Number of steps in this run=    126 maximum allowed number of steps=    126.
 GradGradGradGradGradGradGradGradGradGradGradGradGradGradGradGradGradGrad

                          Input orientation:                          
 ---------------------------------------------------------------------
 Center     Atomic      Atomic             Coordinates (Angstroms)
 Number     Number       Type             X           Y           Z
 ---------------------------------------------------------------------
      1         42           0        0.442752    1.513822   11.887236
      2         16           0        1.380352    3.562260   12.316017
      3         16           0       -1.583413    1.655006   12.989310
      4         16           0       -0.379538    1.274208    9.673706
      5         16           0        2.115088   -0.147200   11.457533
      6         42           0       -2.035719    2.583488   10.879318
      7         16           0       -3.293473    2.052349    8.684173
      8         16           0       -1.410627    4.722543   10.962031
      9         42           0        0.402713    3.452735   10.040437
     10         16           0       -0.350048    4.313175    7.781682
     11         16           0        2.486980    2.957405    8.807177
     12         42           0        3.445993    1.390659   10.163040
     13         42           0       -2.613797    4.106133    7.666662
     14         16           0        4.736249    2.624965   11.503690
     15         16           0        4.743409    0.180114    9.015913
     16         16           0       -3.935591    5.698039    8.741015
     17         16           0       -3.252677    4.039805    5.665004
     18         42           0       -4.733601    3.677921    9.577768
     19         16           0       -6.731291    3.353447    8.975625
     20         16           0       -4.317980    3.289046   11.753444
     21         42           0        3.034035    1.613283   13.030816
 ---------------------------------------------------------------------
                    Distance matrix (angstroms):
                    1          2          3          4          5
     1  Mo   0.000000
     2  S    2.293261   0.000000
     3  S    2.310810   3.588153   0.000000
     4  S    2.373455   3.913336   3.547894   0.000000
     5  S    2.395902   3.877747   4.390125   3.380177   0.000000
     6  Mo   2.881476   3.832967   2.349197   2.431183   5.002018
     7  S    4.950657   6.108581   4.649343   3.174224   6.463905
     8  S    3.819281   3.311963   3.680964   3.822818   6.032461
     9  Mo   2.677994   2.479120   3.984015   2.343584   4.230830
    10  S    5.031946   4.911044   5.975487   3.579936   6.283607
    11  S    3.968572   3.728597   5.979513   3.435251   4.098934
    12  Mo   3.465181   3.690262   5.775172   3.858458   2.410815
    13  Mo   5.820293   6.153497   5.949815   4.127946   7.404316
    14  S    4.451501   3.577770   6.563994   5.598630   3.815431
    15  S    5.340311   5.799978   7.615239   5.279614   3.602321
    16  S    6.824681   6.752884   6.318771   5.752018   8.840645
    17  S    7.665048   8.119666   7.881571   5.654480   8.938529
    18  Mo   6.067256   6.700135   5.065026   4.974425   8.066574
    19  S    7.957926   8.774997   6.744999   6.719771   9.832234
    20  S    5.082705   5.732549   3.416915   4.888375   7.299295
    21  Mo   2.834152   2.654075   4.617823   4.799754   2.533571
                    6          7          8          9         10
     6  Mo   0.000000
     7  S    2.585095   0.000000
     8  S    2.230053   3.982924   0.000000
     9  Mo   2.721261   4.178795   2.397905   0.000000
    10  S    3.927932   3.819630   3.377429   2.531596   0.000000
    11  S    4.988826   5.852170   4.790663   2.471933   3.307337
    12  Mo   5.655534   6.931470   5.943618   3.678144   5.349943
    13  Mo   3.601913   2.390673   3.561887   3.893722   2.276105
    14  S    6.800817   8.529596   6.517462   4.648209   6.524861
    15  S    7.430011   8.258740   7.892604   5.531848   6.674491
    16  S    4.228745   3.702243   3.501421   5.054777   3.961602
    17  S    5.548956   3.614834   5.649582   5.731574   3.602820
    18  Mo   3.189104   2.348396   3.748276   5.162024   4.779645
    19  S    5.124966   3.687329   5.842063   7.213716   6.562533
    20  S    2.543742   3.464023   3.336757   5.024553   5.706857
    21  Mo   5.592195   7.689177   5.805376   4.387460   6.804031
                   11         12         13         14         15
    11  S    0.000000
    12  Mo   2.283148   0.000000
    13  Mo   5.351474   7.094135   0.000000
    14  S    3.527167   2.232849   8.422578   0.000000
    15  S    3.584465   2.112962   8.447638   3.488034   0.000000
    16  S    6.983185   8.663917   2.331424   9.606090  10.288251
    17  S    6.632383   8.492496   2.102190   9.995747   9.490163
    18  Mo   7.297242   8.513511   2.886046   9.720903  10.117512
    19  S    9.228312  10.432622   4.385622  11.765469  11.905478
    20  S    7.422800   8.149389   4.502628   9.081985   9.963348
    21  Mo   4.465989   2.905755   8.178414   2.500629   4.592971
                   16         17         18         19         20
    16  S    0.000000
    17  S    3.560612   0.000000
    18  Mo   2.327628   4.199264   0.000000
    19  S    3.656240   4.850985   2.111546   0.000000
    20  S    3.876106   6.226364   2.248895   3.680285   0.000000
    21  Mo   9.146765   9.983283   8.747711  10.716078   7.648005
                   21
    21  Mo   0.000000
 Symmetry turned off by external request.
 Stoichiometry    Mo7S14
 Framework group  C1[X(Mo7S14)]
 Deg. of freedom    57
 Full point group                 C1      NOp   1
 Rotational constants (GHZ):           0.1366405           0.0387264           0.0339473
 General basis read from cards:  (5D, 7F)
 ======================================================================================================
                                       Pseudopotential Parameters
 ======================================================================================================
  Center     Atomic      Valence      Angular      Power
  Number     Number     Electrons     Momentum     of R      Exponent        Coefficient   SO-Coeffient
 ======================================================================================================
    1         42           14
                                      F and up 
                                                     0      537.9667807       -0.04694920    0.00000000
                                                     1      147.8982938      -20.20800840    0.00000000
                                                     2       45.7358898     -106.21163020    0.00000000
                                                     2       13.2911467      -41.81073680    0.00000000
                                                     2        4.7059961       -4.20541030    0.00000000
                                      S - F
                                                     0      110.2991760        2.80637170    0.00000000
                                                     1       23.2014645       44.51620120    0.00000000
                                                     2        5.3530131       82.77852270    0.00000000
                                      P - F
                                                     0       63.2901397        4.94208760    0.00000000
                                                     1       23.3315302       25.86049760    0.00000000
                                                     2       24.6759423      132.47087420    0.00000000
                                                     2        4.6493040       57.31497940    0.00000000
                                      D - F
                                                     0      104.4839977        3.00545910    0.00000000
                                                     1       66.2307245       26.36378510    0.00000000
                                                     2       39.1283176      183.38491990    0.00000000
                                                     2       13.1164437       98.44530680    0.00000000
                                                     2        3.6280263       22.49013770    0.00000000
    2         16
                                   No pseudopotential on this center.
    3         16
                                   No pseudopotential on this center.
    4         16
                                   No pseudopotential on this center.
    5         16
                                   No pseudopotential on this center.
    6         42           14
                                      F and up 
                                                     0      537.9667807       -0.04694920    0.00000000
                                                     1      147.8982938      -20.20800840    0.00000000
                                                     2       45.7358898     -106.21163020    0.00000000
                                                     2       13.2911467      -41.81073680    0.00000000
                                                     2        4.7059961       -4.20541030    0.00000000
                                      S - F
                                                     0      110.2991760        2.80637170    0.00000000
                                                     1       23.2014645       44.51620120    0.00000000
                                                     2        5.3530131       82.77852270    0.00000000
                                      P - F
                                                     0       63.2901397        4.94208760    0.00000000
                                                     1       23.3315302       25.86049760    0.00000000
                                                     2       24.6759423      132.47087420    0.00000000
                                                     2        4.6493040       57.31497940    0.00000000
                                      D - F
                                                     0      104.4839977        3.00545910    0.00000000
                                                     1       66.2307245       26.36378510    0.00000000
                                                     2       39.1283176      183.38491990    0.00000000
                                                     2       13.1164437       98.44530680    0.00000000
                                                     2        3.6280263       22.49013770    0.00000000
    7         16
                                   No pseudopotential on this center.
    8         16
                                   No pseudopotential on this center.
    9         42           14
                                      F and up 
                                                     0      537.9667807       -0.04694920    0.00000000
                                                     1      147.8982938      -20.20800840    0.00000000
                                                     2       45.7358898     -106.21163020    0.00000000
                                                     2       13.2911467      -41.81073680    0.00000000
                                                     2        4.7059961       -4.20541030    0.00000000
                                      S - F
                                                     0      110.2991760        2.80637170    0.00000000
                                                     1       23.2014645       44.51620120    0.00000000
                                                     2        5.3530131       82.77852270    0.00000000
                                      P - F
                                                     0       63.2901397        4.94208760    0.00000000
                                                     1       23.3315302       25.86049760    0.00000000
                                                     2       24.6759423      132.47087420    0.00000000
                                                     2        4.6493040       57.31497940    0.00000000
                                      D - F
                                                     0      104.4839977        3.00545910    0.00000000
                                                     1       66.2307245       26.36378510    0.00000000
                                                     2       39.1283176      183.38491990    0.00000000
                                                     2       13.1164437       98.44530680    0.00000000
                                                     2        3.6280263       22.49013770    0.00000000
   10         16
                                   No pseudopotential on this center.
   11         16
                                   No pseudopotential on this center.
   12         42           14
                                      F and up 
                                                     0      537.9667807       -0.04694920    0.00000000
                                                     1      147.8982938      -20.20800840    0.00000000
                                                     2       45.7358898     -106.21163020    0.00000000
                                                     2       13.2911467      -41.81073680    0.00000000
                                                     2        4.7059961       -4.20541030    0.00000000
                                      S - F
                                                     0      110.2991760        2.80637170    0.00000000
                                                     1       23.2014645       44.51620120    0.00000000
                                                     2        5.3530131       82.77852270    0.00000000
                                      P - F
                                                     0       63.2901397        4.94208760    0.00000000
                                                     1       23.3315302       25.86049760    0.00000000
                                                     2       24.6759423      132.47087420    0.00000000
                                                     2        4.6493040       57.31497940    0.00000000
                                      D - F
                                                     0      104.4839977        3.00545910    0.00000000
                                                     1       66.2307245       26.36378510    0.00000000
                                                     2       39.1283176      183.38491990    0.00000000
                                                     2       13.1164437       98.44530680    0.00000000
                                                     2        3.6280263       22.49013770    0.00000000
   13         42           14
                                      F and up 
                                                     0      537.9667807       -0.04694920    0.00000000
                                                     1      147.8982938      -20.20800840    0.00000000
                                                     2       45.7358898     -106.21163020    0.00000000
                                                     2       13.2911467      -41.81073680    0.00000000
                                                     2        4.7059961       -4.20541030    0.00000000
                                      S - F
                                                     0      110.2991760        2.80637170    0.00000000
                                                     1       23.2014645       44.51620120    0.00000000
                                                     2        5.3530131       82.77852270    0.00000000
                                      P - F
                                                     0       63.2901397        4.94208760    0.00000000
                                                     1       23.3315302       25.86049760    0.00000000
                                                     2       24.6759423      132.47087420    0.00000000
                                                     2        4.6493040       57.31497940    0.00000000
                                      D - F
                                                     0      104.4839977        3.00545910    0.00000000
                                                     1       66.2307245       26.36378510    0.00000000
                                                     2       39.1283176      183.38491990    0.00000000
                                                     2       13.1164437       98.44530680    0.00000000
                                                     2        3.6280263       22.49013770    0.00000000
   14         16
                                   No pseudopotential on this center.
   15         16
                                   No pseudopotential on this center.
   16         16
                                   No pseudopotential on this center.
   17         16
                                   No pseudopotential on this center.
   18         42           14
                                      F and up 
                                                     0      537.9667807       -0.04694920    0.00000000
                                                     1      147.8982938      -20.20800840    0.00000000
                                                     2       45.7358898     -106.21163020    0.00000000
                                                     2       13.2911467      -41.81073680    0.00000000
                                                     2        4.7059961       -4.20541030    0.00000000
                                      S - F
                                                     0      110.2991760        2.80637170    0.00000000
                                                     1       23.2014645       44.51620120    0.00000000
                                                     2        5.3530131       82.77852270    0.00000000
                                      P - F
                                                     0       63.2901397        4.94208760    0.00000000
                                                     1       23.3315302       25.86049760    0.00000000
                                                     2       24.6759423      132.47087420    0.00000000
                                                     2        4.6493040       57.31497940    0.00000000
                                      D - F
                                                     0      104.4839977        3.00545910    0.00000000
                                                     1       66.2307245       26.36378510    0.00000000
                                                     2       39.1283176      183.38491990    0.00000000
                                                     2       13.1164437       98.44530680    0.00000000
                                                     2        3.6280263       22.49013770    0.00000000
   19         16
                                   No pseudopotential on this center.
   20         16
                                   No pseudopotential on this center.
   21         42           14
                                      F and up 
                                                     0      537.9667807       -0.04694920    0.00000000
                                                     1      147.8982938      -20.20800840    0.00000000
                                                     2       45.7358898     -106.21163020    0.00000000
                                                     2       13.2911467      -41.81073680    0.00000000
                                                     2        4.7059961       -4.20541030    0.00000000
                                      S - F
                                                     0      110.2991760        2.80637170    0.00000000
                                                     1       23.2014645       44.51620120    0.00000000
                                                     2        5.3530131       82.77852270    0.00000000
                                      P - F
                                                     0       63.2901397        4.94208760    0.00000000
                                                     1       23.3315302       25.86049760    0.00000000
                                                     2       24.6759423      132.47087420    0.00000000
                                                     2        4.6493040       57.31497940    0.00000000
                                      D - F
                                                     0      104.4839977        3.00545910    0.00000000
                                                     1       66.2307245       26.36378510    0.00000000
                                                     2       39.1283176      183.38491990    0.00000000
                                                     2       13.1164437       98.44530680    0.00000000
                                                     2        3.6280263       22.49013770    0.00000000
 ======================================================================================================
   406 basis functions,  1071 primitive gaussians,   434 cartesian basis functions
   161 alpha electrons      161 beta electrons
       nuclear repulsion energy      5940.5240325710 Hartrees.
 NAtoms=   21 NActive=   21 NUniq=   21 SFac= 1.00D+00 NAtFMM=   60 NAOKFM=F Big=F
 Integral buffers will be    131072 words long.
 Raffenetti 2 integral format.
 Two-electron integral symmetry is turned off.
 One-electron integrals computed using PRISM.
   1 Symmetry operations used in ECPInt.
 ECPInt:  NShTT=    8001 NPrTT=   64456 LenC2=    7147 LenP2D=   35821.
 LDataN:  DoStor=T MaxTD1= 5 Len=  102
 NBasis=   406 RedAO= T EigKep=  6.84D-04  NBF=   406
 NBsUse=   406 1.00D-06 EigRej= -1.00D+00 NBFU=   406
 Defaulting to unpruned grid for atomic number  42.
 Defaulting to unpruned grid for atomic number  42.
 Defaulting to unpruned grid for atomic number  42.
 Defaulting to unpruned grid for atomic number  42.
 Defaulting to unpruned grid for atomic number  42.
 Defaulting to unpruned grid for atomic number  42.
 Defaulting to unpruned grid for atomic number  42.
 ExpMin= 2.47D-02 ExpMax= 2.19D+04 ExpMxC= 3.30D+03 IAcc=3 IRadAn=         5 AccDes= 0.00D+00
 Harris functional with IExCor=  402 and IRadAn=       5 diagonalized for initial guess.
 HarFok:  IExCor=  402 AccDes= 0.00D+00 IRadAn=         5 IDoV= 1 UseB2=F ITyADJ=14
 ICtDFT=  3500011 ScaDFX=  1.000000  1.000000  1.000000  1.000000
 Defaulting to unpruned grid for atomic number  42.
 FoFCou: FMM=F IPFlag=           0 FMFlag=      100000 FMFlg1=           0
         NFxFlg=           0 DoJE=T BraDBF=F KetDBF=T FulRan=T
         wScrn=  0.000000 ICntrl=       500 IOpCl=  0 I1Cent=   200000004 NGrid=           0
         NMat0=    1 NMatS0=      1 NMatT0=    0 NMatD0=    1 NMtDS0=    0 NMtDT0=    0
 Symmetry not used in FoFCou.
 Requested convergence on RMS density matrix=1.00D-08 within 128 cycles.
 Requested convergence on MAX density matrix=1.00D-06.
 Requested convergence on             energy=1.00D-06.
 No special actions if energy rises.
 Defaulting to unpruned grid for atomic number  42.
 Defaulting to unpruned grid for atomic number  42.
 Defaulting to unpruned grid for atomic number  42.
 Defaulting to unpruned grid for atomic number  42.
 Defaulting to unpruned grid for atomic number  42.
 Defaulting to unpruned grid for atomic number  42.
 Defaulting to unpruned grid for atomic number  42.
 Defaulting to unpruned grid for atomic number  42.
 Defaulting to unpruned grid for atomic number  42.
 Defaulting to unpruned grid for atomic number  42.
 Defaulting to unpruned grid for atomic number  42.
 Defaulting to unpruned grid for atomic number  42.
 Defaulting to unpruned grid for atomic number  42.
 Defaulting to unpruned grid for atomic number  42.
 Defaulting to unpruned grid for atomic number  42.
 Defaulting to unpruned grid for atomic number  42.
 Defaulting to unpruned grid for atomic number  42.
 Defaulting to unpruned grid for atomic number  42.
 Defaulting to unpruned grid for atomic number  42.
 Defaulting to unpruned grid for atomic number  42.
 Defaulting to unpruned grid for atomic number  42.
 Defaulting to unpruned grid for atomic number  42.
 Defaulting to unpruned grid for atomic number  42.
 Defaulting to unpruned grid for atomic number  42.
 Defaulting to unpruned grid for atomic number  42.
 Defaulting to unpruned grid for atomic number  42.
 Defaulting to unpruned grid for atomic number  42.
 Defaulting to unpruned grid for atomic number  42.
 Defaulting to unpruned grid for atomic number  42.
 Defaulting to unpruned grid for atomic number  42.
 Defaulting to unpruned grid for atomic number  42.
 Defaulting to unpruned grid for atomic number  42.
 Defaulting to unpruned grid for atomic number  42.
 Defaulting to unpruned grid for atomic number  42.
 Defaulting to unpruned grid for atomic number  42.
 Defaulting to unpruned grid for atomic number  42.
 Defaulting to unpruned grid for atomic number  42.
 Defaulting to unpruned grid for atomic number  42.
 Defaulting to unpruned grid for atomic number  42.
 Defaulting to unpruned grid for atomic number  42.
 Defaulting to unpruned grid for atomic number  42.
 Defaulting to unpruned grid for atomic number  42.
 Defaulting to unpruned grid for atomic number  42.
 Defaulting to unpruned grid for atomic number  42.
 Defaulting to unpruned grid for atomic number  42.
 Defaulting to unpruned grid for atomic number  42.
 EnCoef did   100 forward-backward iterations
 EnCoef did   100 forward-backward iterations
 EnCoef did   100 forward-backward iterations
 EnCoef did   100 forward-backward iterations
 EnCoef did     1 forward-backward iterations
 EnCoef did     3 forward-backward iterations
 EnCoef did   100 forward-backward iterations
 EnCoef did     2 forward-backward iterations
 EnCoef did     4 forward-backward iterations
 EnCoef did     4 forward-backward iterations
 EnCoef did     4 forward-backward iterations
 EnCoef did    23 forward-backward iterations
 Restarting incremental Fock formation.
 EnCoef did     2 forward-backward iterations
 Restarting incremental Fock formation.
 SCF Done:  E(RB3LYP) =  -6048.08652175     A.U. after   44 cycles
            NFock= 44  Conv=0.99D-08     -V/T= 2.0574

 **********************************************************************

            Population analysis using the SCF Density.

 **********************************************************************

 Alpha  occ. eigenvalues --  -88.91966 -88.91624 -88.91404 -88.90954 -88.90879
 Alpha  occ. eigenvalues --  -88.90039 -88.89055 -88.88339 -88.88111 -88.88075
 Alpha  occ. eigenvalues --  -88.88053 -88.87644 -88.87568 -88.87303  -7.99516
 Alpha  occ. eigenvalues --   -7.99240  -7.99048  -7.98494  -7.98488  -7.97802
 Alpha  occ. eigenvalues --   -7.96769  -7.96275  -7.96058  -7.95909  -7.95806
 Alpha  occ. eigenvalues --   -7.95410  -7.95333  -7.95239  -5.95547  -5.95475
 Alpha  occ. eigenvalues --   -5.95405  -5.95242  -5.95202  -5.95138  -5.95079
 Alpha  occ. eigenvalues --   -5.94994  -5.94936  -5.94556  -5.94505  -5.94493
 Alpha  occ. eigenvalues --   -5.94451  -5.94403  -5.94316  -5.93821  -5.93746
 Alpha  occ. eigenvalues --   -5.93680  -5.92820  -5.92730  -5.92612  -5.92285
 Alpha  occ. eigenvalues --   -5.92259  -5.92080  -5.92044  -5.92026  -5.91995
 Alpha  occ. eigenvalues --   -5.91890  -5.91859  -5.91840  -5.91752  -5.91733
 Alpha  occ. eigenvalues --   -5.91656  -5.91479  -5.91408  -5.91364  -5.91307
 Alpha  occ. eigenvalues --   -5.91241  -5.91223  -5.91197  -5.91127  -5.91095
 Alpha  occ. eigenvalues --   -2.56655  -2.56579  -2.56366  -2.55435  -2.55431
 Alpha  occ. eigenvalues --   -2.55218  -2.52037  -1.60233  -1.59533  -1.59439
 Alpha  occ. eigenvalues --   -1.59341  -1.58818  -1.58761  -1.58748  -1.58517
 Alpha  occ. eigenvalues --   -1.58431  -1.58322  -1.58129  -1.58074  -1.57578
 Alpha  occ. eigenvalues --   -1.57114  -1.56959  -1.56831  -1.56625  -1.56471
 Alpha  occ. eigenvalues --   -1.54723  -1.54269  -1.53602  -0.76231  -0.74459
 Alpha  occ. eigenvalues --   -0.74281  -0.73775  -0.73089  -0.72457  -0.71396
 Alpha  occ. eigenvalues --   -0.70868  -0.70757  -0.70280  -0.69683  -0.69533
 Alpha  occ. eigenvalues --   -0.69249  -0.68577  -0.43249  -0.43139  -0.42757
 Alpha  occ. eigenvalues --   -0.41495  -0.41319  -0.40838  -0.40545  -0.40334
 Alpha  occ. eigenvalues --   -0.39801  -0.38765  -0.38577  -0.38338  -0.38155
 Alpha  occ. eigenvalues --   -0.37622  -0.37560  -0.37465  -0.37212  -0.37080
 Alpha  occ. eigenvalues --   -0.36444  -0.36186  -0.35874  -0.35500  -0.35208
 Alpha  occ. eigenvalues --   -0.34727  -0.34171  -0.34090  -0.33942  -0.33794
 Alpha  occ. eigenvalues --   -0.33704  -0.32862  -0.32461  -0.31861  -0.31577
 Alpha  occ. eigenvalues --   -0.31307  -0.30647  -0.30231  -0.29778  -0.29309
 Alpha  occ. eigenvalues --   -0.29148  -0.28866  -0.28058  -0.27509  -0.27147
 Alpha  occ. eigenvalues --   -0.26549  -0.25642  -0.25119  -0.24780  -0.24429
 Alpha  occ. eigenvalues --   -0.22004
 Alpha virt. eigenvalues --   -0.17825  -0.16883  -0.15915  -0.15718  -0.14955
 Alpha virt. eigenvalues --   -0.14620  -0.14050  -0.13833  -0.13511  -0.13016
 Alpha virt. eigenvalues --   -0.12555  -0.12136  -0.11990  -0.11757  -0.11562
 Alpha virt. eigenvalues --   -0.11064  -0.10399  -0.09976  -0.09309  -0.09134
 Alpha virt. eigenvalues --   -0.08713  -0.07648  -0.07495  -0.07106  -0.06909
 Alpha virt. eigenvalues --   -0.06681  -0.06517  -0.05896  -0.04597  -0.00670
 Alpha virt. eigenvalues --    0.00044   0.00352   0.01027   0.01759   0.02280
 Alpha virt. eigenvalues --    0.02603   0.02971   0.03676   0.03956   0.04169
 Alpha virt. eigenvalues --    0.04486   0.04836   0.05807   0.06211   0.06388
 Alpha virt. eigenvalues --    0.06956   0.07194   0.07384   0.07953   0.08112
 Alpha virt. eigenvalues --    0.08856   0.09271   0.10077   0.10147   0.11425
 Alpha virt. eigenvalues --    0.12315   0.13280   0.13844   0.14407   0.15134
 Alpha virt. eigenvalues --    0.16217   0.16905   0.17559   0.17990   0.18240
 Alpha virt. eigenvalues --    0.19021   0.19770   0.20525   0.21064   0.22148
 Alpha virt. eigenvalues --    0.22781   0.22904   0.23616   0.25897   0.26507
 Alpha virt. eigenvalues --    0.27018   0.27421   0.28055   0.28339   0.28676
 Alpha virt. eigenvalues --    0.29455   0.29977   0.30041   0.30357   0.31305
 Alpha virt. eigenvalues --    0.32021   0.32833   0.32893   0.33094   0.33796
 Alpha virt. eigenvalues --    0.34069   0.34429   0.35133   0.35286   0.35598
 Alpha virt. eigenvalues --    0.36172   0.36296   0.36710   0.37107   0.37505
 Alpha virt. eigenvalues --    0.37568   0.38102   0.38455   0.39361   0.39598
 Alpha virt. eigenvalues --    0.39818   0.40147   0.40503   0.40868   0.40924
 Alpha virt. eigenvalues --    0.41524   0.41964   0.42141   0.42381   0.42799
 Alpha virt. eigenvalues --    0.43215   0.43306   0.43756   0.44046   0.44797
 Alpha virt. eigenvalues --    0.44992   0.45372   0.45650   0.45811   0.46605
 Alpha virt. eigenvalues --    0.46965   0.47211   0.47702   0.48489   0.49342
 Alpha virt. eigenvalues --    0.49632   0.49931   0.50383   0.51687   0.52464
 Alpha virt. eigenvalues --    0.52871   0.53261   0.53796   0.54232   0.54967
 Alpha virt. eigenvalues --    0.56145   0.56609   0.56883   0.58041   0.58487
 Alpha virt. eigenvalues --    0.59650   0.60515   0.61204   0.61697   0.62115
 Alpha virt. eigenvalues --    0.63529   0.63845   0.65741   0.66171   0.66728
 Alpha virt. eigenvalues --    0.67003   0.68280   0.68607   0.69911   0.70146
 Alpha virt. eigenvalues --    0.71381   0.72057   0.72293   0.72753   0.73792
 Alpha virt. eigenvalues --    0.74555   0.75062   0.75221   0.75964   0.76292
 Alpha virt. eigenvalues --    0.76820   0.76847   0.77264   0.77889   0.78153
 Alpha virt. eigenvalues --    0.78451   0.78775   0.79061   0.79690   0.80262
 Alpha virt. eigenvalues --    0.80828   0.81035   0.81247   0.81944   0.82838
 Alpha virt. eigenvalues --    0.83028   0.83613   0.83941   0.84173   0.84924
 Alpha virt. eigenvalues --    0.86044   0.86142   0.86689   0.87147   0.87987
 Alpha virt. eigenvalues --    0.88375   0.88706   0.89724   0.90006   0.92465
 Alpha virt. eigenvalues --    0.93146   0.93716   0.95077   0.95449   0.96172
 Alpha virt. eigenvalues --    0.97038   0.97202   0.97688   0.98567   0.98814
 Alpha virt. eigenvalues --    0.99355   1.00317   1.00783   1.01377   1.01678
 Alpha virt. eigenvalues --    1.02219   1.02408   1.02832   1.03508   1.03772
 Alpha virt. eigenvalues --    1.04642   1.05289   1.05388   1.06509   1.07394
 Alpha virt. eigenvalues --    1.07683   1.08302   1.08806   1.10172   1.10575
 Alpha virt. eigenvalues --    1.11227   1.12367   1.13249   1.14554   1.16821
 Alpha virt. eigenvalues --    1.18659   1.21842   1.32431   6.42049   7.66576
 Alpha virt. eigenvalues --   10.22832  10.38053  11.01496  11.83755  15.52778
          Condensed to atoms (all electrons):
               1          2          3          4          5          6
     1  Mo  14.483050   0.197282   0.189920   0.109418   0.120181  -0.593157
     2  S    0.197282  15.464736   0.011993   0.007418  -0.005301  -0.045686
     3  S    0.189920   0.011993  15.628449  -0.046419  -0.000077   0.247643
     4  S    0.109418   0.007418  -0.046419  15.514792  -0.023958   0.102401
     5  S    0.120181  -0.005301  -0.000077  -0.023958  15.676737   0.002756
     6  Mo  -0.593157  -0.045686   0.247643   0.102401   0.002756  14.597659
     7  S    0.029994  -0.000071  -0.002268  -0.041826   0.000038   0.183329
     8  S   -0.061315  -0.033968   0.017213  -0.000338  -0.000203   0.369846
     9  Mo  -0.144247   0.167233  -0.035714   0.141275  -0.010778  -0.308216
    10  S   -0.013760  -0.003524  -0.000216  -0.002567  -0.000059  -0.026503
    11  S    0.012243  -0.018042  -0.000182  -0.019124   0.003583  -0.014664
    12  Mo  -0.136689  -0.039527  -0.002605  -0.023901   0.141155   0.038618
    13  Mo   0.044155   0.000063  -0.002689  -0.012406   0.000479  -0.063224
    14  S   -0.000555  -0.027193   0.000037  -0.000236  -0.008752  -0.000482
    15  S   -0.012869   0.000092  -0.000001   0.000011   0.004915   0.001570
    16  S   -0.001665  -0.000001   0.000058  -0.000080   0.000000  -0.045481
    17  S    0.001265   0.000000  -0.000000   0.000049   0.000000   0.002418
    18  Mo  -0.067526  -0.000074   0.006601   0.017364  -0.000070  -0.252758
    19  S   -0.002037   0.000000   0.000012   0.000048   0.000000  -0.029279
    20  S   -0.000247  -0.000080  -0.005624  -0.004667  -0.000005   0.160538
    21  Mo  -0.105532   0.182879   0.013227   0.009873   0.135746  -0.049618
               7          8          9         10         11         12
     1  Mo   0.029994  -0.061315  -0.144247  -0.013760   0.012243  -0.136689
     2  S   -0.000071  -0.033968   0.167233  -0.003524  -0.018042  -0.039527
     3  S   -0.002268   0.017213  -0.035714  -0.000216  -0.000182  -0.002605
     4  S   -0.041826  -0.000338   0.141275  -0.002567  -0.019124  -0.023901
     5  S    0.000038  -0.000203  -0.010778  -0.000059   0.003583   0.141155
     6  Mo   0.183329   0.369846  -0.308216  -0.026503  -0.014664   0.038618
     7  S   15.690027  -0.009889  -0.010690   0.005856  -0.000106   0.000118
     8  S   -0.009889  15.456719   0.165341  -0.050519  -0.006269  -0.000168
     9  Mo  -0.010690   0.165341  14.079869   0.227045   0.231692  -0.074813
    10  S    0.005856  -0.050519   0.227045  15.693293  -0.037004   0.002738
    11  S   -0.000106  -0.006269   0.231692  -0.037004  15.647234   0.267979
    12  Mo   0.000118  -0.000168  -0.074813   0.002738   0.267979  13.017626
    13  Mo   0.122618  -0.003489  -0.101758   0.286557   0.003074  -0.002268
    14  S   -0.000000  -0.000030  -0.010917  -0.000005  -0.006555   0.243623
    15  S    0.000000   0.000000  -0.010350   0.000020   0.013103   0.361128
    16  S   -0.030345  -0.015946  -0.001030   0.011944   0.000001  -0.000004
    17  S    0.002064  -0.000333  -0.012071   0.017131   0.000024  -0.000027
    18  Mo   0.059103  -0.026725   0.062200  -0.016191  -0.000155   0.000503
    19  S    0.012388  -0.000173   0.004625  -0.000015   0.000000   0.000012
    20  S   -0.038513  -0.024017  -0.008704  -0.000289  -0.000008  -0.000187
    21  Mo   0.000144   0.001738   0.016257  -0.000115  -0.025426  -0.066506
              13         14         15         16         17         18
     1  Mo   0.044155  -0.000555  -0.012869  -0.001665   0.001265  -0.067526
     2  S    0.000063  -0.027193   0.000092  -0.000001   0.000000  -0.000074
     3  S   -0.002689   0.000037  -0.000001   0.000058  -0.000000   0.006601
     4  S   -0.012406  -0.000236   0.000011  -0.000080   0.000049   0.017364
     5  S    0.000479  -0.008752   0.004915   0.000000   0.000000  -0.000070
     6  Mo  -0.063224  -0.000482   0.001570  -0.045481   0.002418  -0.252758
     7  S    0.122618  -0.000000   0.000000  -0.030345   0.002064   0.059103
     8  S   -0.003489  -0.000030   0.000000  -0.015946  -0.000333  -0.026725
     9  Mo  -0.101758  -0.010917  -0.010350  -0.001030  -0.012071   0.062200
    10  S    0.286557  -0.000005   0.000020   0.011944   0.017131  -0.016191
    11  S    0.003074  -0.006555   0.013103   0.000001   0.000024  -0.000155
    12  Mo  -0.002268   0.243623   0.361128  -0.000004  -0.000027   0.000503
    13  Mo  13.204071  -0.000004  -0.000126   0.224808   0.365785  -0.267950
    14  S   -0.000004  15.594262  -0.000200  -0.000000  -0.000000  -0.000011
    15  S   -0.000126  -0.000200  15.820337  -0.000000  -0.000000  -0.000001
    16  S    0.224808  -0.000000  -0.000000  15.607752   0.004697   0.244146
    17  S    0.365785  -0.000000  -0.000000   0.004697  15.818971  -0.036698
    18  Mo  -0.267950  -0.000011  -0.000001   0.244146  -0.036698  13.417413
    19  S   -0.034158   0.000000  -0.000000   0.008954   0.001262   0.358078
    20  S   -0.011969   0.000000   0.000000   0.012885  -0.000034   0.270776
    21  Mo   0.000239   0.252139  -0.011435   0.000023  -0.000007  -0.000854
              19         20         21
     1  Mo  -0.002037  -0.000247  -0.105532
     2  S    0.000000  -0.000080   0.182879
     3  S    0.000012  -0.005624   0.013227
     4  S    0.000048  -0.004667   0.009873
     5  S    0.000000  -0.000005   0.135746
     6  Mo  -0.029279   0.160538  -0.049618
     7  S    0.012388  -0.038513   0.000144
     8  S   -0.000173  -0.024017   0.001738
     9  Mo   0.004625  -0.008704   0.016257
    10  S   -0.000015  -0.000289  -0.000115
    11  S    0.000000  -0.000008  -0.025426
    12  Mo   0.000012  -0.000187  -0.066506
    13  Mo  -0.034158  -0.011969   0.000239
    14  S    0.000000   0.000000   0.252139
    15  S   -0.000000   0.000000  -0.011435
    16  S    0.008954   0.012885   0.000023
    17  S    0.001262  -0.000034  -0.000007
    18  Mo   0.358078   0.270776  -0.000854
    19  S   15.878319   0.019821  -0.000005
    20  S    0.019821  15.684043   0.000190
    21  Mo  -0.000005   0.000190  13.515344
 Mulliken charges:
               1
     1  Mo  -0.047909
     2  S    0.141771
     3  S   -0.019358
     4  S    0.272873
     5  S   -0.036387
     6  Mo  -0.277709
     7  S    0.028030
     8  S    0.222526
     9  Mo  -0.366249
    10  S   -0.093815
    11  S   -0.051398
    12  Mo   0.273198
    13  Mo   0.248190
    14  S   -0.035122
    15  S   -0.166197
    16  S   -0.020716
    17  S   -0.164496
    18  Mo   0.232831
    19  S   -0.217852
    20  S   -0.053909
    21  Mo   0.131699
 Sum of Mulliken charges =  -0.00000
 Mulliken charges with hydrogens summed into heavy atoms:
               1
     1  Mo  -0.047909
     2  S    0.141771
     3  S   -0.019358
     4  S    0.272873
     5  S   -0.036387
     6  Mo  -0.277709
     7  S    0.028030
     8  S    0.222526
     9  Mo  -0.366249
    10  S   -0.093815
    11  S   -0.051398
    12  Mo   0.273198
    13  Mo   0.248190
    14  S   -0.035122
    15  S   -0.166197
    16  S   -0.020716
    17  S   -0.164496
    18  Mo   0.232831
    19  S   -0.217852
    20  S   -0.053909
    21  Mo   0.131699
 Electronic spatial extent (au):  <R**2>=         144354.3927
 Charge=             -0.0000 electrons
 Dipole moment (field-independent basis, Debye):
    X=              4.3439    Y=             -2.6790    Z=              6.2652  Tot=              8.0808
 Quadrupole moment (field-independent basis, Debye-Ang):
   XX=           -360.2412   YY=           -357.4901   ZZ=           -201.1283
   XY=             14.0984   XZ=             62.4965   YZ=            -15.9309
 Traceless Quadrupole moment (field-independent basis, Debye-Ang):
   XX=            -53.9547   YY=            -51.2036   ZZ=            105.1583
   XY=             14.0984   XZ=             62.4965   YZ=            -15.9309
 Octapole moment (field-independent basis, Debye-Ang**2):
  XXX=            632.7795  YYY=          -2878.0953  ZZZ=          -7946.7267  XYY=            234.5073
  XXY=          -1016.5943  XXZ=          -3580.5262  XZZ=           1097.3987  YZZ=           -988.9193
  YYZ=          -3590.6789  XYZ=            155.8307
 Hexadecapole moment (field-independent basis, Debye-Ang**3):
 XXXX=         -21579.0207 YYYY=         -20169.8164 ZZZZ=        -178909.4840 XXXY=           4397.8273
 XXXZ=           4414.3563 YYYX=           4360.4017 YYYZ=         -27875.8133 ZZZX=          16894.9366
 ZZZY=         -26654.4769 XXYY=          -7123.4523 XXZZ=         -40035.4845 YYZZ=         -40647.5040
 XXYZ=          -9778.5034 YYXZ=           1627.0430 ZZXY=           3231.4983
 N-N= 5.940524032571D+03 E-N=-2.609335923558D+04  KE= 5.719538341017D+03
   1 Symmetry operations used in ECPInt.
 ECPInt:  NShTT=    8001 NPrTT=   64456 LenC2=    7147 LenP2D=   35821.
 LDataN:  DoStor=T MaxTD1= 6 Len=  172
 Calling FoFJK, ICntrl=      2127 FMM=F ISym2X=0 I1Cent= 0 IOpClX= 0 NMat=1 NMatS=1 NMatT=0.
 Defaulting to unpruned grid for atomic number  42.
 Defaulting to unpruned grid for atomic number  42.
 Defaulting to unpruned grid for atomic number  42.
 Defaulting to unpruned grid for atomic number  42.
 Defaulting to unpruned grid for atomic number  42.
 Defaulting to unpruned grid for atomic number  42.
 Defaulting to unpruned grid for atomic number  42.
 Defaulting to unpruned grid for atomic number  42.
 Defaulting to unpruned grid for atomic number  42.
 Defaulting to unpruned grid for atomic number  42.
 Defaulting to unpruned grid for atomic number  42.
 Defaulting to unpruned grid for atomic number  42.
 Defaulting to unpruned grid for atomic number  42.
 Defaulting to unpruned grid for atomic number  42.
 Defaulting to unpruned grid for atomic number  42.
 Defaulting to unpruned grid for atomic number  42.
 Defaulting to unpruned grid for atomic number  42.
 Defaulting to unpruned grid for atomic number  42.
 Defaulting to unpruned grid for atomic number  42.
 Defaulting to unpruned grid for atomic number  42.
 Defaulting to unpruned grid for atomic number  42.
 Defaulting to unpruned grid for atomic number  42.
 Defaulting to unpruned grid for atomic number  42.
 Defaulting to unpruned grid for atomic number  42.
 Defaulting to unpruned grid for atomic number  42.
 Defaulting to unpruned grid for atomic number  42.
 Defaulting to unpruned grid for atomic number  42.
 Defaulting to unpruned grid for atomic number  42.
 Defaulting to unpruned grid for atomic number  42.
 Defaulting to unpruned grid for atomic number  42.
 Defaulting to unpruned grid for atomic number  42.
 Defaulting to unpruned grid for atomic number  42.
 Defaulting to unpruned grid for atomic number  42.
 Defaulting to unpruned grid for atomic number  42.
 Defaulting to unpruned grid for atomic number  42.
 Defaulting to unpruned grid for atomic number  42.
 Defaulting to unpruned grid for atomic number  42.
 Defaulting to unpruned grid for atomic number  42.
 Defaulting to unpruned grid for atomic number  42.
 Defaulting to unpruned grid for atomic number  42.
 Defaulting to unpruned grid for atomic number  42.
 Defaulting to unpruned grid for atomic number  42.
 Defaulting to unpruned grid for atomic number  42.
 Defaulting to unpruned grid for atomic number  42.
 Defaulting to unpruned grid for atomic number  42.
 Defaulting to unpruned grid for atomic number  42.
 -------------------------------------------------------------------
 Center     Atomic                   Forces (Hartrees/Bohr)
 Number     Number              X              Y              Z
 -------------------------------------------------------------------
      1       42           0.006244413   -0.004440195   -0.000667257
      2       16           0.013917416   -0.003025239    0.017872280
      3       16           0.000368097   -0.001079250    0.002705250
      4       16           0.000110048   -0.001110330   -0.000406651
      5       16           0.005511564    0.001410243    0.021981814
      6       42           0.000989006    0.001328569   -0.003265164
      7       16           0.000192933    0.000199885    0.000064462
      8       16           0.001338606    0.000761120    0.000209469
      9       42          -0.002562222    0.000715649   -0.003827939
     10       16          -0.001299928    0.000059447   -0.000707662
     11       16          -0.002549584   -0.000747240    0.000581981
     12       42          -0.005449669   -0.000941210    0.003555292
     13       42           0.001142336   -0.000127487    0.000322647
     14       16          -0.010449961   -0.003162955    0.028106682
     15       16           0.001254549   -0.000985961   -0.000609934
     16       16          -0.000036263    0.000259059    0.000201109
     17       16          -0.000179482    0.000074095   -0.000848545
     18       42           0.000966436    0.000107225    0.000585987
     19       16          -0.000859440   -0.000164137   -0.000280908
     20       16          -0.000230014    0.000152434    0.000146697
     21       42          -0.008418841    0.010716278   -0.065719610
 -------------------------------------------------------------------
 Cartesian Forces:  Max     0.065719610 RMS     0.010249952

 GradGradGradGradGradGradGradGradGradGradGradGradGradGradGradGradGradGrad
 Berny optimization.
 FormGI is forming the generalized inverse of G from B-inverse, IUseBI=4.
 Internal  Forces:  Max     0.025392609 RMS     0.003206055
 Search for a local minimum.
 Step number   1 out of a maximum of  126
 All quantities printed in internal units (Hartrees-Bohrs-Radians)
 Mixed Optimization -- RFO/linear search
 Second derivative matrix not updated -- first step.
 ITU=  0
     Eigenvalues ---    0.01359   0.01991   0.02230   0.02446   0.02851
     Eigenvalues ---    0.03444   0.03922   0.04708   0.04787   0.05186
     Eigenvalues ---    0.05442   0.05618   0.06057   0.06182   0.06715
     Eigenvalues ---    0.07171   0.07224   0.08193   0.08446   0.08687
     Eigenvalues ---    0.08925   0.09128   0.09794   0.09825   0.10135
     Eigenvalues ---    0.10247   0.10590   0.10869   0.11429   0.11853
     Eigenvalues ---    0.11967   0.12469   0.12637   0.12767   0.13215
     Eigenvalues ---    0.13337   0.13697   0.14188   0.14305   0.14343
     Eigenvalues ---    0.14413   0.15226   0.15457   0.15761   0.16381
     Eigenvalues ---    0.16975   0.17306   0.17887   0.18347   0.18847
     Eigenvalues ---    0.19336   0.19879   0.20092   0.20761   0.26242
     Eigenvalues ---    0.26354   0.27114
 RFO step:  Lambda=-1.96208669D-02 EMin= 1.35860015D-02
 Linear search not attempted -- first point.
 Maximum step size (   0.300) exceeded in Quadratic search.
    -- Step size scaled by   0.763
 Iteration  1 RMS(Cart)=  0.01762412 RMS(Int)=  0.00045085
 Iteration  2 RMS(Cart)=  0.00034185 RMS(Int)=  0.00023049
 Iteration  3 RMS(Cart)=  0.00000011 RMS(Int)=  0.00023049
 Variable       Old X    -DE/DX   Delta X   Delta X   Delta X     New X
                                 (Linear)    (Quad)   (Total)
    R1        4.33363   0.00502   0.00000   0.01520   0.01484   4.34848
    R2        4.36680   0.00099   0.00000   0.00187   0.00183   4.36863
    R3        4.48518  -0.00071   0.00000  -0.00058  -0.00048   4.48470
    R4        4.52760   0.00182   0.00000   0.00026  -0.00015   4.52745
    R5        5.44520  -0.00014   0.00000  -0.00065  -0.00062   5.44458
    R6        5.06068  -0.00073   0.00000  -0.00375  -0.00371   5.05697
    R7        5.35577  -0.01358   0.00000  -0.09341  -0.09357   5.26220
    R8        4.68486   0.00686   0.00000   0.04115   0.04113   4.72599
    R9        5.01548  -0.01530   0.00000  -0.11844  -0.11810   4.89738
   R10        4.43934   0.00200   0.00000   0.01123   0.01138   4.45072
   R11        4.59427   0.00092   0.00000   0.00352   0.00347   4.59774
   R12        4.42873   0.00158   0.00000   0.00379   0.00372   4.43246
   R13        4.55578   0.00466   0.00000   0.01684   0.01613   4.57191
   R14        4.78776  -0.01324   0.00000  -0.09422  -0.09306   4.69469
   R15        4.88512  -0.00014   0.00000  -0.00049  -0.00049   4.88463
   R16        4.21419   0.00046   0.00000   0.00325   0.00321   4.21740
   R17        5.14244  -0.00117   0.00000  -0.01008  -0.01018   5.13225
   R18        4.80698   0.00028   0.00000   0.00154   0.00154   4.80851
   R19        4.51772   0.00036   0.00000   0.00001   0.00001   4.51773
   R20        4.43783   0.00013   0.00000   0.00066   0.00066   4.43849
   R21        4.53138  -0.00125   0.00000  -0.00640  -0.00643   4.52496
   R22        4.78402   0.00081   0.00000   0.00569   0.00569   4.78972
   R23        4.67128  -0.00138   0.00000  -0.01784  -0.01784   4.65344
   R24        4.30122  -0.00078   0.00000  -0.00463  -0.00462   4.29659
   R25        4.31452   0.00092   0.00000   0.00190   0.00185   4.31637
   R26        4.21947   0.01001   0.00000   0.03221   0.03137   4.25084
   R27        3.99292   0.00167   0.00000   0.00451   0.00451   3.99743
   R28        5.49108  -0.01595   0.00000  -0.12738  -0.12689   5.36419
   R29        4.40575   0.00020   0.00000   0.00120   0.00120   4.40695
   R30        3.97256   0.00086   0.00000   0.00226   0.00226   3.97482
   R31        5.45384   0.00004   0.00000   0.00018   0.00018   5.45402
   R32        4.72550  -0.02539   0.00000  -0.16265  -0.16231   4.56319
   R33        4.39858   0.00005   0.00000   0.00024   0.00024   4.39882
   R34        3.99024   0.00092   0.00000   0.00247   0.00247   3.99272
   R35        4.24980  -0.00033   0.00000  -0.00054  -0.00054   4.24925
    A1        1.78722  -0.00099   0.00000  -0.00441  -0.00435   1.78287
    A2        1.98909   0.00193   0.00000   0.01081   0.01079   1.99988
    A3        1.94703  -0.00007   0.00000  -0.00466  -0.00529   1.94174
    A4        1.65638   0.00014   0.00000   0.00407   0.00410   1.66048
    A5        1.71851   0.00027   0.00000   0.00255   0.00254   1.72105
    A6        2.40374  -0.00225   0.00000  -0.01104  -0.01118   2.39255
    A7        1.84580   0.00030   0.00000   0.00039   0.00040   1.84620
    A8        2.22320   0.00035   0.00000   0.00321   0.00328   2.22649
    A9        1.57537   0.00329   0.00000   0.02001   0.02018   1.59554
   A10        2.34147  -0.00062   0.00000  -0.00573  -0.00588   2.33559
   A11        2.48980   0.00325   0.00000   0.01905   0.01918   2.50898
   A12        1.97001   0.00325   0.00000   0.01881   0.01872   1.98874
   A13        2.72518  -0.00179   0.00000  -0.01076  -0.01095   2.71423
   A14        1.84058  -0.00180   0.00000  -0.01153  -0.01168   1.82890
   A15        2.04933  -0.00388   0.00000  -0.01870  -0.01904   2.03028
   A16        1.61020  -0.00322   0.00000  -0.02020  -0.01998   1.59022
   A17        2.26432  -0.00026   0.00000   0.00061   0.00064   2.26496
   A18        1.67297   0.00039   0.00000   0.00016   0.00017   1.67314
   A19        2.42567   0.00029   0.00000  -0.00040  -0.00044   2.42523
   A20        1.67236  -0.00038   0.00000  -0.00084  -0.00086   1.67150
   A21        2.45777  -0.00064   0.00000   0.00002   0.00000   2.45777
   A22        1.86693   0.00092   0.00000  -0.00043  -0.00041   1.86652
   A23        1.80349   0.00016   0.00000  -0.00025  -0.00024   1.80325
   A24        1.54452   0.00024   0.00000  -0.00016  -0.00017   1.54435
   A25        1.36914  -0.00008   0.00000   0.00070   0.00072   1.36985
   A26        1.92197   0.00022   0.00000   0.00168   0.00169   1.92366
   A27        2.76789  -0.00001   0.00000   0.00027   0.00028   2.76817
   A28        1.94438  -0.00025   0.00000   0.00021   0.00020   1.94458
   A29        1.81299   0.00023   0.00000   0.00105   0.00106   1.81405
   A30        1.48295   0.00001   0.00000   0.00013   0.00014   1.48308
   A31        1.54349  -0.00030   0.00000  -0.00136  -0.00138   1.54211
   A32        2.53446  -0.00044   0.00000  -0.00157  -0.00158   2.53288
   A33        1.61739   0.00002   0.00000   0.00068   0.00068   1.61807
   A34        1.40304  -0.00002   0.00000   0.00003   0.00003   1.40307
   A35        1.70083   0.00091   0.00000   0.00307   0.00308   1.70391
   A36        2.61759  -0.00029   0.00000  -0.00019  -0.00015   2.61744
   A37        1.75826  -0.00052   0.00000  -0.00502  -0.00503   1.75323
   A38        1.89265   0.00049   0.00000   0.00046   0.00035   1.89301
   A39        1.65541  -0.00009   0.00000   0.00042   0.00039   1.65580
   A40        1.49276  -0.00020   0.00000  -0.00077  -0.00070   1.49206
   A41        2.74199  -0.00035   0.00000   0.00008   0.00018   2.74217
   A42        1.70550   0.00002   0.00000  -0.00095  -0.00097   1.70452
   A43        1.87547   0.00054   0.00000   0.00450   0.00452   1.87999
   A44        1.64795  -0.00014   0.00000  -0.00046  -0.00045   1.64750
   A45        1.58790  -0.00007   0.00000  -0.00506  -0.00508   1.58282
   A46        1.68824   0.00001   0.00000   0.00017   0.00018   1.68842
   A47        2.57798   0.00020   0.00000  -0.00299  -0.00301   2.57497
   A48        1.50883  -0.00032   0.00000   0.00054   0.00054   1.50937
   A49        2.78041  -0.00048   0.00000   0.00138   0.00138   2.78179
   A50        1.44414   0.00021   0.00000   0.00153   0.00151   1.44566
   A51        1.88589  -0.00005   0.00000  -0.00036  -0.00038   1.88550
   A52        1.76746  -0.00043   0.00000  -0.00369  -0.00387   1.76359
   A53        2.12319   0.00239   0.00000   0.01169   0.01182   2.13502
   A54        1.92755  -0.00625   0.00000  -0.02571  -0.02637   1.90119
   A55        1.83903  -0.00122   0.00000   0.00148   0.00139   1.84042
   A56        1.79256   0.00236   0.00000   0.00140   0.00217   1.79473
   A57        1.90568   0.00127   0.00000   0.00316   0.00312   1.90880
   A58        2.06459  -0.00134   0.00000  -0.00072  -0.00091   2.06368
   A59        1.86278   0.00151   0.00000   0.00808   0.00773   1.87051
[...]
 61,0.00014865,0.00015897,0.00012601,-0.00043720,-0.00140280,-0.0014307
 5,-0.00454261,0.00105948,-0.00145559,0.00170886,0.00352188,0.00219819,
 -0.01180310,-0.00348627,0.00756449,-0.03373704,0.00111546,-0.01629006,
 0.06660181,-0.00106328,0.00094417,-0.00349245,-0.00385413,0.00103707,-
 0.00150909,0.00047983,-0.00111812,0.00070406,-0.00698195,-0.00036802,0
 .00514105,0.00148792,0.00111531,-0.00068727,-0.00275641,0.00351383,0.0
 0229734,0.00039704,-0.00027944,0.00115362,-0.00634813,0.00438573,0.001
 20307,-0.00566906,-0.01100717,0.00895402,-0.00910116,0.00560507,-0.003
 45020,0.07499983,-0.00292524,-0.00085804,0.00207998,0.00397441,-0.0009
 5016,0.00046041,-0.00064867,0.00122814,0.00025970,-0.00374577,-0.00131
 875,0.00133652,-0.00149615,-0.00202726,0.00120513,0.00497419,-0.000206
 26,-0.00256305,-0.00024133,-0.00005289,-0.00079456,0.00144964,-0.00036
 129,0.00066864,-0.01137148,-0.00142569,0.00272179,0.00637408,-0.002885
 69,0.00112603,-0.03972678,0.06081528,0.00225527,-0.00064590,-0.0025352
 6,-0.00050421,0.00084155,-0.00129688,-0.00009210,0.00117188,-0.0003990
 6,0.00313285,0.00261267,0.00009670,0.00053118,0.00117928,-0.00023483,0
 .00042706,-0.00171812,0.00110524,0.00021223,-0.00006441,0.00086536,0.0
 0087243,0.00003088,-0.00102257,0.02087458,-0.00859447,-0.01730576,-0.0
 0417824,0.00248442,0.00016912,0.02690631,-0.05463235,0.10330736,-0.003
 19439,0.00135149,0.01130660,-0.00195900,0.00272947,0.00678893,-0.00170
 571,0.00108202,-0.00266128,-0.00495418,-0.00176220,-0.00331164,-0.0189
 8803,-0.01878538,0.01880240,0.00151779,-0.00128253,0.00288474,-0.00005
 999,-0.00011163,-0.00061533,0.00111986,-0.00082486,-0.00055532,-0.0110
 5702,0.00525379,0.00176695,0.00105405,0.00021365,0.00054901,-0.0366557
 6,0.03933799,-0.03919209,0.26570686,-0.00320403,0.00670780,-0.00006010
 ,0.00242625,-0.00394604,-0.00251208,0.00002152,-0.00075808,-0.00040770
 ,-0.00070547,0.00279750,-0.00052196,-0.00372079,-0.02357358,0.01683401
 ,0.00022465,-0.00013795,0.00212237,-0.00006599,0.00008064,-0.00003816,
 -0.00087363,0.00201031,0.00004035,0.00727516,-0.00940797,-0.00513240,0
 .00034756,-0.00019197,-0.00000929,0.03881548,-0.06077493,0.05615581,-0
 .10241656,0.24530461,0.00164960,-0.00730133,0.01048738,0.00705819,-0.0
 0396256,0.00362948,0.00021010,0.00149658,-0.00002778,-0.00122308,-0.00
 195283,-0.00163726,0.01251341,0.02753112,-0.03106117,0.00279766,-0.000
 57078,-0.00184366,-0.00008706,-0.00031991,-0.00118082,0.00265195,-0.00
 215403,-0.00040019,-0.01698446,0.00954657,0.00689927,0.00022124,-0.000
 03476,-0.00081172,-0.02408758,0.04484434,-0.08409608,-0.03777115,0.033
 04771,0.28608900,0.00155065,-0.00105159,0.00218929,0.00158592,0.001862
 22,0.00084319,-0.00223043,0.00012124,-0.00073931,-0.00025774,0.0019720
 0,-0.00107893,-0.00006814,-0.00028002,0.00024133,0.00651286,0.00362664
 ,0.00441297,-0.01556572,-0.02184188,0.00244513,0.00097152,-0.00296954,
 0.00079980,-0.00837791,0.00597667,-0.01918362,-0.12176207,-0.01743390,
 0.01144652,0.00101164,0.00016682,0.00077954,-0.00148459,-0.00026368,0.
 00062152,0.25041579,-0.00017354,0.00105284,0.00006958,-0.00066594,0.00
 024696,0.00090229,0.00026886,-0.00004632,-0.00038253,0.00124252,-0.002
 02354,0.00055335,-0.00003017,-0.00001291,0.00045901,0.00096335,0.00081
 310,0.00684818,-0.03314765,-0.08274593,0.02950879,-0.00082812,-0.00041
 927,-0.00172661,-0.00185819,-0.00056740,-0.00179798,-0.01660623,-0.013
 23872,-0.00014796,-0.00033393,0.00051955,-0.00033892,0.00030482,-0.000
 02115,0.00053430,0.00588305,0.18966559,-0.00118844,0.00122410,-0.00119
 509,0.00006344,-0.00078063,0.00018645,0.00063511,-0.00050854,0.0007442
 6,-0.00052035,0.00051860,-0.00029043,-0.00001747,-0.00020687,0.0002942
 1,0.00276734,0.00494756,-0.00583352,0.00430603,0.02832549,-0.01663044,
 0.00036830,-0.00336639,-0.00074322,-0.00279417,0.00109951,0.00251326,-
 0.00868934,-0.00128214,-0.02224307,0.00074739,-0.00010689,-0.00007188,
 -0.00055441,0.00064150,-0.00004841,0.03893148,-0.00877090,0.37074402,0
 .00074064,-0.00317061,0.00290100,-0.00435654,0.00062790,0.00363463,0.0
 0033849,-0.00063685,0.00023463,0.00121470,0.00102832,0.00077701,-0.000
 04794,0.00054974,-0.00413442,-0.00001764,0.00055830,-0.00069677,0.0001
 2756,-0.00001255,-0.00002680,0.00028930,0.00037619,0.00009220,0.000181
 59,-0.00180098,-0.00206606,-0.00109469,0.00023331,-0.00050134,-0.00523
 079,0.00144771,-0.00452586,-0.04104966,-0.04338192,-0.03739297,0.00083
 280,0.00009255,-0.00003012,0.11818418,-0.00118691,-0.00418222,-0.00352
 011,0.00241018,0.00227094,0.00164657,-0.00053945,-0.00058494,0.0001400
 1,0.00030884,0.00081500,0.00182513,-0.00647466,0.00149811,0.00184605,0
 .00068863,-0.00029470,0.00012156,0.00003600,-0.00018078,-0.00006936,0.
 00021749,0.00033617,0.00001464,0.00127428,-0.00078118,-0.00253259,-0.0
 0123824,-0.00017914,-0.00023242,0.00119197,0.00775993,-0.00048452,-0.0
 3497330,-0.05924710,-0.03627549,0.00086178,0.00010740,-0.00009451,0.07
 513171,0.08671063,0.00725792,0.00087657,0.00223641,-0.00043081,0.00011
 983,-0.00089069,0.00016578,0.00003051,0.00084386,0.00000612,0.00074629
 ,0.00105580,-0.00147860,-0.00026510,0.00038813,-0.00083644,0.00007455,
 0.00045122,0.00012697,-0.00004403,0.00036071,-0.00017929,0.00029864,-0
 .00012075,0.00423886,-0.00246310,-0.00331118,-0.00058475,0.00016316,0.
 00026222,-0.00950913,0.00359797,-0.00800794,-0.02536716,-0.03736616,-0
 .02757173,0.00036094,-0.00016133,-0.00015094,-0.01787742,0.00772588,0.
 07775472,0.00007654,-0.00013615,-0.00058822,0.00031128,-0.00053727,-0.
 00033762,-0.00002558,-0.00001509,0.00053101,0.00016958,0.00015272,0.00
 030198,-0.00126269,0.00030142,0.00047921,0.00017637,0.00000915,-0.0002
 5303,-0.00003838,0.00004061,-0.00004561,-0.00005427,0.00004810,0.00000
 662,0.00188758,-0.00030645,-0.00026665,-0.00075047,0.00038207,-0.00036
 932,-0.00470857,0.00403244,-0.00539103,-0.14120533,0.10047262,0.073247
 59,0.00062788,-0.00007795,0.00035163,0.00604997,0.00038141,0.00221911,
 0.13700196,0.00053140,-0.00028185,-0.00155705,-0.00062718,0.00093642,-
 0.00022972,0.00026319,-0.00011080,-0.00022816,-0.00007396,-0.00052326,
 0.00005830,-0.00213752,0.00178285,-0.00058238,-0.00072881,0.00017702,-
 0.00016806,0.00009816,-0.00003132,0.00017144,0.00012361,-0.00016165,-0
 .00019813,-0.00056341,0.00121097,0.00033005,0.00049873,-0.00016640,0.0
 0049429,0.00266746,-0.00369958,0.00283884,0.10166753,-0.09521217,-0.05
 759029,-0.00050972,-0.00002403,-0.00032188,0.00244644,-0.00442751,-0.0
 0317048,-0.10606500,0.09981685,0.00182059,-0.00041957,-0.00216151,-0.0
 0027886,0.00064245,-0.00031635,-0.00019888,-0.00010146,0.00007165,-0.0
 0006425,0.00005414,0.00031889,0.00202826,-0.00057652,-0.00091685,-0.00
 004985,-0.00002862,-0.00010805,-0.00005304,0.00005134,0.00010811,-0.00
 009206,0.00001636,-0.00004168,-0.00093624,0.00078163,0.00059853,0.0005
 8377,-0.00027253,0.00014964,-0.00057592,-0.00136224,0.01061166,0.07538
 591,-0.05966289,-0.06933421,-0.00036330,0.00004038,-0.00028083,0.00126
 978,-0.00549373,-0.00553734,-0.07886342,0.06782384,0.06537079,0.000405
 22,0.00064716,-0.00043561,-0.00034346,-0.00023143,0.00000985,0.0003106
 0,-0.00033943,-0.00028567,-0.00010160,-0.00045537,0.00040214,0.0000250
 2,0.00008931,-0.00002855,-0.00485771,0.00217623,-0.00025294,0.00096621
 ,0.00045082,0.00051481,-0.00332607,0.00175972,-0.00239827,0.00178237,-
 0.00144148,0.00019451,-0.00510260,0.00044693,-0.00127751,-0.00005203,-
 0.00015232,0.00000937,0.00014606,0.00004221,-0.00017855,-0.03000708,0.
 04545945,0.01828961,-0.00012091,-0.00019832,-0.00001816,-0.00002639,0.
 00003878,0.00001833,0.05618856,0.00017917,0.00066623,-0.00008106,0.000
 35588,0.00005011,-0.00005605,-0.00020025,0.00007498,-0.00059675,-0.000
 00441,0.00016129,-0.00007465,0.00006789,-0.00002108,-0.00002916,-0.001
 37646,-0.00031396,0.00086058,-0.00008747,-0.00414783,0.00087241,0.0033
 4285,-0.00080455,0.00396081,0.00079590,-0.00054217,-0.00114265,0.00351
 786,0.00385250,0.00263374,0.00023681,-0.00024325,0.00002623,-0.0002989
 9,-0.00006167,0.00006201,0.03940412,-0.07403875,-0.03347281,0.00009805
 ,0.00004588,0.00010990,0.00014490,-0.00008772,-0.00010596,-0.01546435,
 0.17493688,0.00051491,-0.00024675,0.00058892,0.00001657,0.00080684,-0.
 00031141,-0.00020846,-0.00011166,-0.00038696,0.00030387,0.00079610,0.0
 0046315,-0.00003787,-0.00000651,0.00001619,-0.00063631,-0.00080075,-0.
 00261999,0.00077032,-0.00092237,0.00287318,-0.00169973,0.00169632,-0.0
 0136178,0.00055751,-0.00070159,-0.00158160,0.00679728,0.00327054,0.002
 15403,-0.00012840,0.00019876,-0.00005864,-0.00006071,-0.00014214,0.000
 47965,0.01014954,-0.03228563,-0.02683765,0.00020440,0.00029929,0.00003
 057,0.00006396,-0.00008288,-0.00004343,-0.02711603,0.00456749,0.051806
 30,-0.00006246,0.00019322,-0.00008831,0.00000500,-0.00004325,0.0000952
 3,0.00001937,0.00005217,-0.00002470,0.00003377,-0.00002615,0.00004443,
 0.00000814,0.00002928,-0.00003381,0.00000468,-0.00020684,-0.00039027,0
 .00152749,0.00053432,0.00042224,0.00044236,0.00017303,-0.00030103,0.00
 040527,-0.00070029,0.00046846,-0.00244503,0.00041604,-0.00622303,-0.00
 013240,-0.00007742,0.00004724,0.00015652,-0.00011237,-0.00010049,-0.04
 645012,0.00140657,-0.07858195,-0.00007016,-0.00006843,0.00002999,-0.00
 013324,0.00014032,0.00008015,0.00258954,-0.00147948,0.00426574,0.04094
 543,-0.00013475,-0.00033770,0.00013669,0.00023433,-0.00008576,-0.00017
 739,0.00000460,0.00007784,-0.00002627,0.00009370,0.00002044,-0.0000152
 5,0.00001602,-0.00001334,-0.00008841,0.00014486,0.00004211,-0.00024083
 ,0.00368174,0.00271773,0.00512145,-0.00004834,0.00011160,0.00015365,-0
 .00053662,0.00083708,-0.00030467,0.00162485,-0.00034646,-0.00106434,0.
 00035396,-0.00028924,0.00022023,-0.00010995,-0.00000063,-0.00025243,0.
 00056532,-0.01828043,0.00256924,0.00001506,0.00001294,0.00006382,0.000
 01701,0.00001800,-0.00000709,-0.00383490,0.00230754,-0.00666068,-0.001
 53886,0.01318209,0.00019353,-0.00025833,-0.00003955,0.00029770,-0.0002
 5187,0.00002193,0.00000558,0.00025437,-0.00021123,0.00006383,0.0000121
 0,0.00000763,-0.00002453,0.00011751,-0.00020073,0.00053936,0.00037929,
 0.00015013,0.00121394,0.00358703,-0.00475001,0.00031039,0.00058736,0.0
 0025655,0.00098439,-0.00165833,0.00191874,-0.01213924,-0.00045315,0.00
 348276,-0.00045939,0.00033439,-0.00029918,0.00032252,-0.00043242,-0.00
 050479,-0.07601532,0.00263783,-0.26669680,-0.00036389,-0.00036966,0.00
 011756,-0.00049034,0.00049312,0.00036611,0.00548994,-0.00482118,-0.007
 72733,0.08040827,0.00068258,0.27179213,0.00019719,0.00095600,-0.000120
 72,-0.00043904,0.00035264,-0.00006315,-0.00063195,0.00030092,-0.000588
 27,-0.00076891,0.00126155,-0.00142058,0.00038069,-0.00005121,-0.000068
 53,-0.00880637,0.00614026,-0.00660899,-0.04627335,0.04336417,0.0264267
 9,-0.00265201,0.00055351,0.00091373,0.00149690,-0.00373185,0.00308096,
 -0.00120362,0.00143590,-0.00071822,-0.00011568,-0.00003930,-0.00048897
 ,-0.00035876,0.00047146,0.00099826,-0.03928155,-0.00312512,0.02733619,
 0.00025547,0.00024213,-0.00003730,0.00046655,-0.00046064,-0.00042016,-
 0.01717361,-0.02500134,0.00250579,0.00308378,-0.00056844,-0.00177947,0
 .39110449,-0.00074356,-0.00212552,0.00071289,0.00007045,0.00050938,-0.
 00054911,0.00003559,0.00080763,0.00028969,0.00040695,0.00108095,0.0003
 9922,-0.00028577,-0.00000159,0.00012776,0.00909685,-0.00685120,0.00813
 194,0.05238442,-0.06591532,-0.04289222,-0.00130102,-0.00122258,-0.0001
 8358,-0.00418571,0.00486115,-0.00491395,0.00646763,0.00188584,0.001429
 78,0.00035621,-0.00036378,0.00066349,0.00009345,-0.00013461,-0.0001670
 0,-0.01508550,-0.00088180,0.01037008,0.00021462,0.00033863,0.00000765,
 -0.00005102,0.00007358,0.00006421,-0.02294365,-0.10599629,0.03155196,0
 .00065969,-0.00032388,-0.00224255,0.00829323,0.21315354,-0.00005855,0.
 00050007,-0.00100599,-0.00072031,-0.00054272,0.00032579,0.00063759,0.0
 0082938,-0.00150525,0.00062114,-0.00216958,-0.00256034,0.00022142,-0.0
 0010416,-0.00017949,-0.02053551,0.01175010,0.01434751,0.02404576,-0.02
 947761,-0.03265822,-0.00197177,0.00000039,0.00060159,0.00531669,-0.002
 69504,0.00334531,-0.00376065,-0.00137060,0.00243805,0.00029210,-0.0006
 1102,-0.00078402,-0.00065470,0.00078306,-0.00054578,0.03255307,0.00103
 822,-0.03980370,-0.00004330,-0.00022993,0.00009588,0.00027983,-0.00023
 760,-0.00021978,-0.00212633,0.02131214,-0.01530867,-0.00078389,-0.0003
 3609,0.00170291,0.04082077,-0.01246601,0.26585756,-0.00021759,-0.00035
 421,0.00033569,0.00008460,-0.00027138,0.00007901,0.00029706,-0.0000386
 9,0.00001264,-0.00000156,0.00012256,0.00031345,-0.00007307,0.00016031,
 -0.00003199,-0.00142598,0.00010335,-0.00176695,-0.00412884,0.00143169,
 -0.00044705,0.00111774,0.00013864,0.00010543,0.00043534,0.00057061,-0.
 00019083,-0.00084893,0.00005230,-0.00048145,-0.00054872,0.00041194,-0.
 00007753,0.00055239,-0.00055475,-0.00015009,0.00164678,-0.00148124,-0.
 00134437,-0.00030249,-0.00029306,-0.00005795,-0.00043890,0.00041569,0.
 00030924,-0.00392466,-0.00673233,0.00439386,0.00071249,0.00033106,0.00
 190460,-0.25742970,-0.03500023,-0.06684304,0.26332090,0.00029540,-0.00
 009415,-0.00000509,-0.00005100,0.00003291,0.00002073,0.00015157,0.0000
 2183,0.00001365,0.00001095,-0.00022890,0.00020229,-0.00001486,-0.00000
 275,0.00000189,-0.00137630,0.00174490,-0.00162287,0.00118238,0.0038660
 4,0.00429433,-0.00001817,0.00018886,-0.00033533,0.00045826,-0.00037387
 ,0.00070965,-0.00026617,-0.00026869,0.00000620,-0.00007699,0.00010934,
 -0.00013293,0.00000499,-0.00005967,-0.00004826,0.00034689,0.00006510,-
 0.00127422,-0.00005704,-0.00004346,0.00000849,-0.00006633,0.00005671,0
 .00004941,-0.00666874,0.00216716,-0.00315716,0.00024271,0.00027547,0.0
 0057057,-0.03078159,-0.02456136,-0.00779461,0.03599682,0.01741290,-0.0
 0020940,0.00005123,0.00012406,0.00006181,-0.00009909,0.00002910,0.0000
 4610,-0.00001303,-0.00009648,-0.00008485,0.00004587,0.00023589,0.00000
 590,0.00003126,-0.00002700,0.00050087,-0.00034580,-0.00028836,0.000596
 82,0.00145136,0.00241035,0.00051226,-0.00011774,-0.00008264,0.00015604
 ,0.00012402,0.00041849,-0.00053215,0.00031741,-0.00089333,-0.00025226,
 0.00016474,-0.00005805,0.00015737,-0.00021119,-0.00001616,-0.00240637,
 -0.00031326,0.00372716,-0.00009611,-0.00010473,-0.00002797,-0.00014857
 ,0.00014016,0.00012352,0.00217170,-0.00100090,0.00093837,0.00083621,0.
 00037514,0.00087368,-0.07106735,-0.00791990,-0.04305772,0.07489689,0.0
 0895225,0.03420116,0.00022023,0.00004173,0.00220250,0.00046167,-0.0000
 4810,-0.00012169,-0.00507860,0.00273361,-0.00188692,-0.00400656,0.0051
 9310,0.00187038,0.00003233,0.00017483,-0.00018040,-0.02734013,-0.00161
 012,0.00642550,0.00251394,-0.00325462,0.00563722,-0.00887805,-0.003393
 31,0.00237215,-0.00310448,0.00261756,-0.00254509,0.00389853,-0.0007035
 6,0.00198108,-0.00112528,0.00050691,0.00029337,0.00055712,-0.00082521,
 0.00077751,0.00058271,0.00233547,-0.00000124,0.00001294,0.00004936,-0.
 00010078,-0.00027835,0.00030206,0.00015851,0.00241516,0.00247049,-0.00
 050742,-0.00069152,-0.00022383,-0.00045969,-0.02190896,0.00178756,-0.0
 0732190,0.00115485,0.00070370,-0.00517312,0.06056492,-0.00103518,0.001
 74720,-0.00016934,-0.00050725,-0.00002606,-0.00000670,0.00405614,-0.00
 207611,0.00085867,-0.00010548,-0.00028474,-0.00031906,0.00004616,-0.00
 012842,-0.00007637,0.00450013,-0.01343466,-0.00011714,-0.00162917,0.00
 391324,-0.00474102,-0.00578117,-0.00011046,0.00191715,0.00580001,0.000
 97351,0.00034657,-0.00259032,-0.00077718,-0.00098423,-0.00042455,0.000
 23327,0.00006471,0.00004400,0.00020285,0.00008718,-0.00038220,0.000647
 65,0.00001791,-0.00002645,0.00009090,-0.00006832,0.00010571,-0.0001357
 5,-0.00007151,0.00048179,0.00195963,0.00236849,0.00033699,-0.00011001,
 0.00021976,0.00069754,-0.01379885,0.02108358,0.00476992,-0.00039674,-0
 .00164798,-0.00846849,0.02162584,0.00214395,-0.00007737,-0.00098065,0.
 00024001,0.00040706,0.00038916,-0.00544551,0.00194039,0.00101729,-0.00
 036175,0.00204235,0.00167644,0.00037558,-0.00011051,0.00004550,0.02515
 448,-0.00870744,-0.02600049,0.00460108,-0.00634744,-0.00647199,0.00240
 431,0.00400658,0.00020209,-0.00093005,-0.00199243,0.00127922,0.0036613
 9,-0.00078764,0.00186999,-0.00050407,0.00097876,-0.00036632,-0.0003069
 8,-0.00066540,0.00083352,-0.00465240,0.00374719,0.00219812,0.00008084,
 0.00018551,-0.00000766,-0.00003087,0.00007077,-0.00004742,0.00668459,0
 .00703189,-0.00250637,-0.00017392,-0.00022559,-0.00065717,-0.01819021,
 0.01805281,-0.15156912,-0.01121204,-0.00049007,0.00136221,-0.00355262,
 -0.01879608,0.17813610,-0.03991775,-0.00031285,-0.02142137,-0.05425584
 ,0.04756482,-0.00504301,-0.00136358,0.00227455,0.00360333,-0.00087547,
 0.00001344,-0.00178122,-0.01470266,-0.03342512,-0.01278533,0.00034727,
 -0.00051933,-0.00094659,-0.00003886,0.00028343,0.00001194,-0.00061189,
 -0.00015886,-0.00026424,-0.00509569,0.00034555,-0.00351403,0.00024277,
 0.00044530,-0.00022123,0.00596709,-0.00225167,-0.00189141,-0.00813820,
 0.00602749,0.01522840,-0.00025321,0.00037142,-0.00007463,-0.07593681,-
 0.03782141,0.04207210,0.00215446,0.00197288,0.00024142,0.00020738,0.00
 003117,-0.00014881,0.00005107,-0.00008683,-0.00000218,0.00005841,-0.00
 027017,0.00003158,0.00001831,-0.00001647,0.00002819,-0.00000248,0.0001
 1188,0.00001419,0.19214567,0.00462945,-0.00436348,0.00304940,0.0389943
 7,-0.04012641,0.00337491,0.00131563,-0.00027739,0.00103722,-0.00090434
 ,-0.00039251,-0.00399804,-0.03493805,-0.08326533,-0.03699304,-0.000287
 74,0.00169752,-0.00161705,-0.00028286,0.00058694,0.00031791,-0.0004417
 4,0.00029915,0.00040523,0.00799984,-0.00342451,0.00628539,0.00070723,-
 0.00064594,0.00027100,-0.00688806,0.00479131,-0.00167838,0.00848221,-0
 .00357617,-0.00652014,-0.00096872,-0.00081792,0.00047178,-0.03373351,-
 0.03006550,0.02971528,0.00116710,0.00078966,-0.00142162,0.00013758,0.0
 0003505,-0.00043767,0.00006876,0.00018459,0.00061156,-0.00030982,-0.00
 053391,0.00073803,0.00022100,0.00008837,0.00012019,-0.00038913,-0.0001
 1510,-0.00026334,0.01542080,0.15913156,-0.02079418,-0.00455140,-0.0283
 5334,-0.00362291,0.01019065,-0.01617943,-0.00318989,-0.00053953,0.0037
 0100,-0.00012824,-0.00002154,0.00185034,-0.01201296,-0.04001716,-0.009
 77698,0.00004077,-0.00004717,-0.00091070,-0.00070272,0.00057147,0.0000
 6575,-0.00012794,-0.00007271,-0.00025584,-0.00496321,0.00299771,0.0075
 0248,0.00155526,0.00057616,-0.00027421,-0.00274321,0.00009296,0.000381
 03,-0.00691367,-0.00246292,-0.08933854,-0.00133506,-0.00041400,0.00041
 848,0.05856058,0.03560241,-0.03797090,0.00930375,-0.00805419,0.0012885
 6,0.00033275,-0.00005603,-0.00060652,0.00000341,0.00007623,0.00039666,
 -0.00051056,-0.00046717,0.00048346,0.00025248,0.00003110,0.00010373,0.
 00013265,0.00003373,-0.00040245,-0.01313710,0.00653140,0.16787741\\0.0
 0002869,0.00001037,0.00003259,-0.00001295,-0.00001282,-0.00000153,-0.0
 0001381,0.00002030,-0.00000228,0.00001035,0.00002335,-0.00000793,-0.00
 000088,0.00000890,-0.00002210,-0.00001753,-0.00004861,-0.00004472,-0.0
 0000548,-0.00000681,0.00002348,0.00001245,-0.00000390,0.00001542,0.000
 00923,0.00002733,0.00002390,-0.00000827,-0.00001527,0.00000069,0.00000
 709,-0.00000555,-0.00000987,-0.00001087,0.00000797,0.00001245,0.000003
 49,0.00000100,-0.00000178,0.00000108,-0.00001166,-0.00000263,0.0000058
 1,-0.00000405,0.00000746,0.00000578,-0.00000271,-0.00000020,-0.0000017
 7,-0.00000216,0.00000013,-0.00001382,0.00000270,-0.00000883,-0.0000012
 7,-0.00000021,0.00000325,0.00000736,0.00000987,0.00000321,-0.00000467,
 0.00000196,-0.00002068\\\@
 The archive entry for this job was punched.


 IT IS A PROFOUNDLY ERRONEOUS TRUISM ... THAT WE SHOULD CULTIVATE
 THE HABIT OF THINKING OF WHAT WE ARE DOING.
 THE PRECISE OPPOSITE IS THE CASE.
 CIVILIZATION ADVANCES BY EXTENDING THE NUMBER OF IMPORTANT OPERATIONS
 WHICH WE CAN PERFORM WITHOUT THINKING ABOUT THEM.

                                    -- ALFRED NORTH WHITEHEAD
 Job cpu time:       0 days  3 hours 21 minutes 12.0 seconds.
 Elapsed time:       0 days  0 hours  4 minutes 24.0 seconds.
 File lengths (MBytes):  RWF=    602 Int=      0 D2E=      0 Chk=     16 Scr=      2
 Normal termination of Gaussian 16 at Fri Dec  9 16:42:28 2022.
