 Entering Gaussian System, Link 0=g16
 Initial command:
 /home/chesagar/softwares/G16_AVX2//g16/l1.exe "/home/chesagar/scratch/Gau-125289.inp" -scrdir="/home/chesagar/scratch/"
 Entering Link 1 = /home/chesagar/softwares/G16_AVX2//g16/l1.exe PID=    125294.
  
 Copyright (c) 1988-2019, Gaussian, Inc.  All Rights Reserved.
  
 This is part of the Gaussian(R) 16 program.  It is based on
 the Gaussian(R) 09 system (copyright 2009, Gaussian, Inc.),
 the Gaussian(R) 03 system (copyright 2003, Gaussian, Inc.),
 the Gaussian(R) 98 system (copyright 1998, Gaussian, Inc.),
 the Gaussian(R) 94 system (copyright 1995, Gaussian, Inc.),
 the Gaussian 92(TM) system (copyright 1992, Gaussian, Inc.),
 the Gaussian 90(TM) system (copyright 1990, Gaussian, Inc.),
 the Gaussian 88(TM) system (copyright 1988, Gaussian, Inc.),
 the Gaussian 86(TM) system (copyright 1986, Carnegie Mellon
 University), and the Gaussian 82(TM) system (copyright 1983,
 Carnegie Mellon University). Gaussian is a federally registered
 trademark of Gaussian, Inc.
  
 This software contains proprietary and confidential information,
 including trade secrets, belonging to Gaussian, Inc.
  
 This software is provided under written license and may be
 used, copied, transmitted, or stored only in accord with that
 written license.
  
 The following legend is applicable only to US Government
 contracts under FAR:
  
                    RESTRICTED RIGHTS LEGEND
  
 Use, reproduction and disclosure by the US Government is
 subject to restrictions as set forth in subparagraphs (a)
 and (c) of the Commercial Computer Software - Restricted
 Rights clause in FAR 52.227-19.
  
 Gaussian, Inc.
 340 Quinnipiac St., Bldg. 40, Wallingford CT 06492
  
  
 ---------------------------------------------------------------
 Warning -- This program may not be used in any manner that
 competes with the business of Gaussian, Inc. or will provide
 assistance to any competitor of Gaussian, Inc.  The licensee
 of this program is prohibited from giving any competitor of
 Gaussian, Inc. access to this program.  By using this program,
 the user acknowledges that Gaussian, Inc. is engaged in the
 business of creating and licensing software in the field of
 computational chemistry and represents and warrants to the
 licensee that it is not a competitor of Gaussian, Inc. and that
 it will not use this program in any manner prohibited above.
 ---------------------------------------------------------------
  

 Cite this work as:
 Gaussian 16, Revision C.01,
 M. J. Frisch, G. W. Trucks, H. B. Schlegel, G. E. Scuseria, 
 M. A. Robb, J. R. Cheeseman, G. Scalmani, V. Barone, 
 G. A. Petersson, H. Nakatsuji, X. Li, M. Caricato, A. V. Marenich, 
 J. Bloino, B. G. Janesko, R. Gomperts, B. Mennucci, H. P. Hratchian, 
 J. V. Ortiz, A. F. Izmaylov, J. L. Sonnenberg, D. Williams-Young, 
 F. Ding, F. Lipparini, F. Egidi, J. Goings, B. Peng, A. Petrone, 
 T. Henderson, D. Ranasinghe, V. G. Zakrzewski, J. Gao, N. Rega, 
 G. Zheng, W. Liang, M. Hada, M. Ehara, K. Toyota, R. Fukuda, 
 J. Hasegawa, M. Ishida, T. Nakajima, Y. Honda, O. Kitao, H. Nakai, 
 T. Vreven, K. Throssell, J. A. Montgomery, Jr., J. E. Peralta, 
 F. Ogliaro, M. J. Bearpark, J. J. Heyd, E. N. Brothers, K. N. Kudin, 
 V. N. Staroverov, T. A. Keith, R. Kobayashi, J. Normand, 
 K. Raghavachari, A. P. Rendell, J. C. Burant, S. S. Iyengar, 
 J. Tomasi, M. Cossi, J. M. Millam, M. Klene, C. Adamo, R. Cammi, 
 J. W. Ochterski, R. L. Martin, K. Morokuma, O. Farkas, 
 J. B. Foresman, and D. J. Fox, Gaussian, Inc., Wallingford CT, 2019.
 
 ******************************************
 Gaussian 16:  ES64L-G16RevC.01  3-Jul-2019
                12-Dec-2022 
 ******************************************
 %nprocshared=46
 Will use up to   46 processors via shared memory.
 %mem=100GB
 ---------------------------------------
 # opt freq b3lyp/gen nosymm pseudo=read
 ---------------------------------------
 1/18=20,19=15,26=3,38=1/1,3;
 2/9=110,12=2,15=1,17=6,18=5,40=1/2;
 3/5=7,11=2,16=1,17=8,25=1,30=1,71=1,74=-5/1,2,3;
 4//1;
 5/5=2,38=5/2;
 6/7=2,8=2,9=2,10=2,28=1/1;
 7/30=1/1,2,3,16;
 1/18=20,19=15,26=3/3(2);
 2/9=110,15=1/2;
 99//99;
 2/9=110,15=1/2;
 3/5=7,6=1,11=2,16=1,17=8,25=1,30=1,71=1,74=-5,82=7/1,2,3;
 4/5=5,16=3,69=1/1;
 5/5=2,38=5/2;
 7/30=1/1,2,3,16;
 1/18=20,19=15,26=3/3(-5);
 2/9=110,15=1/2;
 6/7=2,8=2,9=2,10=2,19=2,28=1/1;
 99/9=1/99;
 -------------------
 Title Card Required
 -------------------
 Symbolic Z-matrix:
 Charge =  0 Multiplicity = 1
 42                    0.54084   1.33347   11.91371 
 16                    1.32755   3.39896   12.61383 
 16                   -1.51007   1.31655   13.00754 
 16                   -0.26422   1.20664   9.69512 
 16                    2.36329  -0.20034   11.65081 
 42                   -1.95708   2.42508   10.96784 
 16                   -3.1925    2.03417   8.73117 
 16                   -1.38854   4.58224   11.20836 
 42                    0.39699   3.40657   10.18596 
 16                   -0.34192   4.42803   7.98152 
 16                    2.46923   2.88748   8.84894 
 42                    3.50087   1.38821   10.18105 
 42                   -2.58607   4.16934   7.84202 
 16                    4.73774   2.72154   11.57904 
 16                    4.93278   0.21809   9.14219 
 16                   -3.92728   5.65028   9.04957 
 16                   -3.23221   4.24004   5.83912 
 42                   -4.67022   3.55668   9.74133 
 16                   -6.66371   3.22308   9.11953 
 16                   -4.24858   3.0466    11.89027 
 42                    3.06586   1.77421   12.8781 
 16                    2.71058   0.27805   15.03183 
 1                     2.04439  -0.79496   14.55932 
 1                     1.64046   0.75039   15.70645 
 

 GradGradGradGradGradGradGradGradGradGradGradGradGradGradGradGradGradGrad
 Berny optimization.
 Initialization pass.
                           ----------------------------
                           !    Initial Parameters    !
                           ! (Angstroms and Degrees)  !
 --------------------------                            --------------------------
 ! Name  Definition              Value          Derivative Info.                !
 --------------------------------------------------------------------------------
 ! R1    R(1,2)                  2.3185         estimate D2E/DX2                !
 ! R2    R(1,3)                  2.3244         estimate D2E/DX2                !
 ! R3    R(1,4)                  2.3635         estimate D2E/DX2                !
 ! R4    R(1,5)                  2.3965         estimate D2E/DX2                !
 ! R5    R(1,6)                  2.8855         estimate D2E/DX2                !
 ! R6    R(1,9)                  2.7025         estimate D2E/DX2                !
 ! R7    R(1,21)                 2.7386         estimate D2E/DX2                !
 ! R8    R(2,9)                  2.6001         estimate D2E/DX2                !
 ! R9    R(2,21)                 2.394          estimate D2E/DX2                !
 ! R10   R(3,6)                  2.3641         estimate D2E/DX2                !
 ! R11   R(4,6)                  2.4434         estimate D2E/DX2                !
 ! R12   R(4,9)                  2.349          estimate D2E/DX2                !
 ! R13   R(5,12)                 2.4449         estimate D2E/DX2                !
 ! R14   R(5,21)                 2.4287         estimate D2E/DX2                !
 ! R15   R(6,7)                  2.5849         estimate D2E/DX2                !
 ! R16   R(6,8)                  2.2438         estimate D2E/DX2                !
 ! R17   R(6,9)                  2.6676         estimate D2E/DX2                !
 ! R18   R(6,20)                 2.5472         estimate D2E/DX2                !
 ! R19   R(7,13)                 2.3911         estimate D2E/DX2                !
 ! R20   R(7,18)                 2.3499         estimate D2E/DX2                !
 ! R21   R(8,9)                  2.3697         estimate D2E/DX2                !
 ! R22   R(9,10)                 2.5395         estimate D2E/DX2                !
 ! R23   R(9,11)                 2.5202         estimate D2E/DX2                !
 ! R24   R(10,13)                2.2633         estimate D2E/DX2                !
 ! R25   R(11,12)                2.2554         estimate D2E/DX2                !
 ! R26   R(12,14)                2.2939         estimate D2E/DX2                !
 ! R27   R(12,15)                2.121          estimate D2E/DX2                !
 ! R28   R(12,21)                2.759          estimate D2E/DX2                !
 ! R29   R(13,16)                2.3346         estimate D2E/DX2                !
 ! R30   R(13,17)                2.1057         estimate D2E/DX2                !
 ! R31   R(13,18)                2.8856         estimate D2E/DX2                !
 ! R32   R(14,21)                2.3195         estimate D2E/DX2                !
 ! R33   R(16,18)                2.3267         estimate D2E/DX2                !
 ! R34   R(18,19)                2.1147         estimate D2E/DX2                !
 ! R35   R(18,20)                2.2485         estimate D2E/DX2                !
 ! R36   R(21,22)                2.6464         estimate D2E/DX2                !
 ! R37   R(22,23)                1.3485         estimate D2E/DX2                !
 ! R38   R(22,24)                1.3503         estimate D2E/DX2                !
 ! A1    A(2,1,3)               99.4261         estimate D2E/DX2                !
 ! A2    A(2,1,4)              116.5407         estimate D2E/DX2                !
 ! A3    A(2,1,5)              110.1984         estimate D2E/DX2                !
 ! A4    A(2,1,6)               93.1932         estimate D2E/DX2                !
 ! A5    A(3,1,4)               98.0941         estimate D2E/DX2                !
 ! A6    A(3,1,5)              135.886          estimate D2E/DX2                !
 ! A7    A(3,1,9)              105.0385         estimate D2E/DX2                !
 ! A8    A(3,1,21)             130.4639         estimate D2E/DX2                !
 ! A9    A(4,1,5)               96.9907         estimate D2E/DX2                !
 ! A10   A(4,1,21)             130.7855         estimate D2E/DX2                !
 ! A11   A(5,1,6)              149.8268         estimate D2E/DX2                !
 ! A12   A(5,1,9)              117.4717         estimate D2E/DX2                !
 ! A13   A(6,1,21)             148.5089         estimate D2E/DX2                !
 ! A14   A(9,1,21)              98.6703         estimate D2E/DX2                !
 ! A15   A(9,2,21)             111.4034         estimate D2E/DX2                !
 ! A16   A(1,5,12)              90.2256         estimate D2E/DX2                !
 ! A17   A(1,6,7)              129.805          estimate D2E/DX2                !
 ! A18   A(1,6,8)               96.2704         estimate D2E/DX2                !
 ! A19   A(1,6,20)             138.7981         estimate D2E/DX2                !
 ! A20   A(3,6,4)               94.8519         estimate D2E/DX2                !
 ! A21   A(3,6,7)              139.9959         estimate D2E/DX2                !
 ! A22   A(3,6,8)              108.0835         estimate D2E/DX2                !
 ! A23   A(3,6,9)              104.9836         estimate D2E/DX2                !
 ! A24   A(3,6,20)              88.3994         estimate D2E/DX2                !
 ! A25   A(4,6,7)               78.7559         estimate D2E/DX2                !
 ! A26   A(4,6,8)              111.082          estimate D2E/DX2                !
 ! A27   A(4,6,20)             159.0018         estimate D2E/DX2                !
 ! A28   A(7,6,8)              111.0543         estimate D2E/DX2                !
 ! A29   A(7,6,9)              102.9317         estimate D2E/DX2                !
 ! A30   A(7,6,20)              85.4279         estimate D2E/DX2                !
 ! A31   A(8,6,20)              87.3949         estimate D2E/DX2                !
 ! A32   A(9,6,20)             144.1196         estimate D2E/DX2                !
 ! A33   A(6,7,13)              93.7558         estimate D2E/DX2                !
 ! A34   A(6,7,18)              80.2475         estimate D2E/DX2                !
 ! A35   A(1,9,8)               98.3288         estimate D2E/DX2                !
 ! A36   A(1,9,10)             151.5229         estimate D2E/DX2                !
 ! A37   A(1,9,11)              97.8976         estimate D2E/DX2                !
 ! A38   A(2,9,4)              107.0444         estimate D2E/DX2                !
 ! A39   A(2,9,6)               92.3535         estimate D2E/DX2                !
 ! A40   A(2,9,8)               82.4295         estimate D2E/DX2                !
 ! A41   A(2,9,10)             156.3313         estimate D2E/DX2                !
 ! A42   A(2,9,11)             101.5662         estimate D2E/DX2                !
 ! A43   A(4,9,8)              110.0413         estimate D2E/DX2                !
 ! A44   A(4,9,10)              96.512          estimate D2E/DX2                !
 ! A45   A(4,9,11)              85.8534         estimate D2E/DX2                !
 ! A46   A(6,9,10)              98.375          estimate D2E/DX2                !
 ! A47   A(6,9,11)             143.6411         estimate D2E/DX2                !
 ! A48   A(8,9,10)              87.4626         estimate D2E/DX2                !
 ! A49   A(8,9,11)             161.9217         estimate D2E/DX2                !
 ! A50   A(10,9,11)             82.0429         estimate D2E/DX2                !
 ! A51   A(9,10,13)            107.2197         estimate D2E/DX2                !
 ! A52   A(9,11,12)            101.5189         estimate D2E/DX2                !
 ! A53   A(5,12,11)            125.0398         estimate D2E/DX2                !
 ! A54   A(5,12,14)            105.1991         estimate D2E/DX2                !
 ! A55   A(5,12,15)            104.4839         estimate D2E/DX2                !
 ! A56   A(11,12,14)           102.7212         estimate D2E/DX2                !
 ! A57   A(11,12,15)           112.7209         estimate D2E/DX2                !
 ! A58   A(11,12,21)           114.3461         estimate D2E/DX2                !
 ! A59   A(14,12,15)           104.782          estimate D2E/DX2                !
 ! A60   A(15,12,21)           131.484          estimate D2E/DX2                !
 ! A61   A(7,13,10)            109.3061         estimate D2E/DX2                !
 ! A62   A(7,13,16)            103.2036         estimate D2E/DX2                !
 ! A63   A(7,13,17)            107.8098         estimate D2E/DX2                !
 ! A64   A(10,13,16)           117.7267         estimate D2E/DX2                !
 ! A65   A(10,13,17)           111.0409         estimate D2E/DX2                !
 ! A66   A(10,13,18)           134.4154         estimate D2E/DX2                !
 ! A67   A(16,13,17)           107.122          estimate D2E/DX2                !
 ! A68   A(17,13,18)           114.3037         estimate D2E/DX2                !
 ! A69   A(7,18,16)            104.7371         estimate D2E/DX2                !
 ! A70   A(7,18,19)            111.3579         estimate D2E/DX2                !
 ! A71   A(7,18,20)             98.3913         estimate D2E/DX2                !
 ! A72   A(13,18,19)           121.3878         estimate D2E/DX2                !
 ! A73   A(13,18,20)           122.8052         estimate D2E/DX2                !
 ! A74   A(16,18,19)           110.826          estimate D2E/DX2                !
 ! A75   A(16,18,20)           115.3653         estimate D2E/DX2                !
 ! A76   A(19,18,20)           114.9609         estimate D2E/DX2                !
 ! A77   A(6,20,18)             82.9897         estimate D2E/DX2                !
 ! A78   A(1,21,12)             77.2101         estimate D2E/DX2                !
 ! A79   A(1,21,14)            122.2139         estimate D2E/DX2                !
 ! A80   A(1,21,22)             94.1187         estimate D2E/DX2                !
 ! A81   A(2,21,5)             106.6145         estimate D2E/DX2                !
 ! A82   A(2,21,12)             95.827          estimate D2E/DX2                !
 ! A83   A(2,21,14)            100.6242         estimate D2E/DX2                !
 ! A84   A(2,21,22)            112.0894         estimate D2E/DX2                !
 ! A85   A(5,21,14)            104.9241         estimate D2E/DX2                !
 ! A86   A(5,21,22)             84.9962         estimate D2E/DX2                !
 ! A87   A(12,21,22)           137.5296         estimate D2E/DX2                !
 ! A88   A(14,21,22)           141.5789         estimate D2E/DX2                !
 ! A89   A(21,22,23)           103.357          estimate D2E/DX2                !
 ! A90   A(21,22,24)           108.3744         estimate D2E/DX2                !
 ! A91   A(23,22,24)            93.5478         estimate D2E/DX2                !
 ! D1    D(2,1,5,12)           -53.6287         estimate D2E/DX2                !
 ! D2    D(3,1,5,12)           177.3101         estimate D2E/DX2                !
 ! D3    D(4,1,5,12)            68.0254         estimate D2E/DX2                !
 ! D4    D(6,1,5,12)            85.0376         estimate D2E/DX2                !
 ! D5    D(9,1,5,12)            14.2911         estimate D2E/DX2                !
 ! D6    D(2,1,6,7)            132.9405         estimate D2E/DX2                !
 ! D7    D(2,1,6,8)              8.7452         estimate D2E/DX2                !
 ! D8    D(2,1,6,20)           -84.4701         estimate D2E/DX2                !
 ! D9    D(5,1,6,7)             -8.6856         estimate D2E/DX2                !
 ! D10   D(5,1,6,8)           -132.8809         estimate D2E/DX2                !
 ! D11   D(5,1,6,20)           133.9038         estimate D2E/DX2                !
 ! D12   D(21,1,6,7)           123.8979         estimate D2E/DX2                !
 ! D13   D(21,1,6,8)            -0.2975         estimate D2E/DX2                !
 ! D14   D(21,1,6,20)          -93.5127         estimate D2E/DX2                !
 ! D15   D(3,1,9,8)             19.3093         estimate D2E/DX2                !
 ! D16   D(3,1,9,10)           -80.8304         estimate D2E/DX2                !
 ! D17   D(3,1,9,11)          -168.6882         estimate D2E/DX2                !
 ! D18   D(5,1,9,8)           -172.8427         estimate D2E/DX2                !
 ! D19   D(5,1,9,10)            87.0177         estimate D2E/DX2                !
 ! D20   D(5,1,9,11)            -0.8401         estimate D2E/DX2                !
 ! D21   D(21,1,9,8)          -116.8048         estimate D2E/DX2                !
 ! D22   D(21,1,9,10)          143.0556         estimate D2E/DX2                !
 ! D23   D(21,1,9,11)           55.1978         estimate D2E/DX2                !
 ! D24   D(3,1,21,12)         -178.785          estimate D2E/DX2                !
 ! D25   D(3,1,21,14)         -149.8371         estimate D2E/DX2                !
 ! D26   D(3,1,21,22)           43.3125         estimate D2E/DX2                !
 ! D27   D(4,1,21,12)          -10.1693         estimate D2E/DX2                !
 ! D28   D(4,1,21,14)           18.7786         estimate D2E/DX2                !
 ! D29   D(4,1,21,22)         -148.0719         estimate D2E/DX2                !
 ! D30   D(6,1,21,12)          -96.5096         estimate D2E/DX2                !
 ! D31   D(6,1,21,14)          -67.5618         estimate D2E/DX2                !
 ! D32   D(6,1,21,22)          125.5878         estimate D2E/DX2                !
 ! D33   D(9,1,21,12)          -60.422          estimate D2E/DX2                !
 ! D34   D(9,1,21,14)          -31.4741         estimate D2E/DX2                !
 ! D35   D(9,1,21,22)          161.6755         estimate D2E/DX2                !
 ! D36   D(21,2,9,4)            54.642          estimate D2E/DX2                !
 ! D37   D(21,2,9,6)           111.6839         estimate D2E/DX2                !
 ! D38   D(21,2,9,8)           163.3561         estimate D2E/DX2                !
 ! D39   D(21,2,9,10)         -131.1296         estimate D2E/DX2                !
 ! D40   D(21,2,9,11)          -34.5298         estimate D2E/DX2                !
 ! D41   D(9,2,21,5)           -40.6052         estimate D2E/DX2                !
 ! D42   D(9,2,21,12)           15.3951         estimate D2E/DX2                !
 ! D43   D(9,2,21,14)           68.6284         estimate D2E/DX2                !
 ! D44   D(9,2,21,22)         -131.9154         estimate D2E/DX2                !
 ! D45   D(1,4,6,9)             74.5996         estimate D2E/DX2                !
 ! D46   D(1,5,12,11)          -29.7564         estimate D2E/DX2                !
 ! D47   D(1,5,12,14)           88.2269         estimate D2E/DX2                !
 ! D48   D(1,5,12,15)         -161.6982         estimate D2E/DX2                !
 ! D49   D(1,6,7,13)          -104.9868         estimate D2E/DX2                !
 ! D50   D(1,6,7,18)          -179.0326         estimate D2E/DX2                !
 ! D51   D(3,6,7,13)          -179.3001         estimate D2E/DX2                !
 ! D52   D(3,6,7,18)           106.6541         estimate D2E/DX2                !
 ! D53   D(4,6,7,13)           -95.1974         estimate D2E/DX2                !
 ! D54   D(4,6,7,18)          -169.2432         estimate D2E/DX2                !
 ! D55   D(8,6,7,13)            13.2509         estimate D2E/DX2                !
 ! D56   D(8,6,7,18)           -60.795          estimate D2E/DX2                !
 ! D57   D(9,6,7,13)           -45.9658         estimate D2E/DX2                !
 ! D58   D(9,6,7,18)          -120.0116         estimate D2E/DX2                !
 ! D59   D(20,6,7,13)           98.6828         estimate D2E/DX2                !
 ! D60   D(20,6,7,18)           24.637          estimate D2E/DX2                !
 ! D61   D(3,6,9,2)            -23.4772         estimate D2E/DX2                !
 ! D62   D(3,6,9,10)           177.6811         estimate D2E/DX2                !
 ! D63   D(3,6,9,11)            89.7462         estimate D2E/DX2                !
 ! D64   D(7,6,9,2)           -174.5278         estimate D2E/DX2                !
 ! D65   D(7,6,9,10)            26.6304         estimate D2E/DX2                !
 ! D66   D(7,6,9,11)           -61.3044         estimate D2E/DX2                !
 ! D67   D(20,6,9,2)            85.226          estimate D2E/DX2                !
 ! D68   D(20,6,9,10)          -73.6158         estimate D2E/DX2                !
 ! D69   D(20,6,9,11)         -161.5506         estimate D2E/DX2                !
 ! D70   D(1,6,20,18)         -177.7151         estimate D2E/DX2                !
 ! D71   D(3,6,20,18)         -166.0748         estimate D2E/DX2                !
 ! D72   D(4,6,20,18)          -66.6747         estimate D2E/DX2                !
 ! D73   D(7,6,20,18)          -25.633          estimate D2E/DX2                !
 ! D74   D(8,6,20,18)           85.7384         estimate D2E/DX2                !
 ! D75   D(9,6,20,18)           80.18           estimate D2E/DX2                !
 ! D76   D(6,7,13,10)           53.045          estimate D2E/DX2                !
 ! D77   D(6,7,13,16)          -73.0092         estimate D2E/DX2                !
 ! D78   D(6,7,13,17)          173.8499         estimate D2E/DX2                !
 ! D79   D(6,7,18,16)           90.701          estimate D2E/DX2                !
 ! D80   D(6,7,18,19)         -149.458          estimate D2E/DX2                !
 ! D81   D(6,7,18,20)          -28.4134         estimate D2E/DX2                !
 ! D82   D(1,9,10,13)           55.8421         estimate D2E/DX2                !
 ! D83   D(2,9,10,13)         -111.5656         estimate D2E/DX2                !
 ! D84   D(4,9,10,13)           62.8813         estimate D2E/DX2                !
 ! D85   D(6,9,10,13)            4.492          estimate D2E/DX2                !
 ! D86   D(8,9,10,13)          -47.008          estimate D2E/DX2                !
 ! D87   D(11,9,10,13)         147.7498         estimate D2E/DX2                !
 ! D88   D(1,9,11,12)          -14.5753         estimate D2E/DX2                !
 ! D89   D(2,9,11,12)           37.9272         estimate D2E/DX2                !
 ! D90   D(4,9,11,12)          -68.6398         estimate D2E/DX2                !
 ! D91   D(6,9,11,12)          -72.4812         estimate D2E/DX2                !
 ! D92   D(8,9,11,12)          139.0898         estimate D2E/DX2                !
 ! D93   D(10,9,11,12)        -165.8176         estimate D2E/DX2                !
 ! D94   D(9,10,13,7)          -38.4421         estimate D2E/DX2                !
 ! D95   D(9,10,13,16)          78.7866         estimate D2E/DX2                !
 ! D96   D(9,10,13,17)        -157.2578         estimate D2E/DX2                !
 ! D97   D(9,10,13,18)          16.6096         estimate D2E/DX2                !
 ! D98   D(9,11,12,5)           31.7336         estimate D2E/DX2                !
 ! D99   D(9,11,12,14)         -87.382          estimate D2E/DX2                !
 ! D100  D(9,11,12,15)         160.402          estimate D2E/DX2                !
 ! D101  D(9,11,12,21)         -31.7179         estimate D2E/DX2                !
 ! D102  D(11,12,21,1)          60.9446         estimate D2E/DX2                !
 ! D103  D(11,12,21,2)          10.7903         estimate D2E/DX2                !
 ! D104  D(11,12,21,22)        142.9595         estimate D2E/DX2                !
 ! D105  D(15,12,21,1)        -134.0374         estimate D2E/DX2                !
 ! D106  D(15,12,21,2)         175.8083         estimate D2E/DX2                !
 ! D107  D(15,12,21,22)        -52.0226         estimate D2E/DX2                !
 ! D108  D(10,13,18,19)       -173.942          estimate D2E/DX2                !
 ! D109  D(10,13,18,20)         -5.0079         estimate D2E/DX2                !
 ! D110  D(17,13,18,19)         -0.2227         estimate D2E/DX2                !
 ! D111  D(17,13,18,20)        168.7114         estimate D2E/DX2                !
 ! D112  D(7,18,20,6)           28.6516         estimate D2E/DX2                !
 ! D113  D(13,18,20,6)         -22.5946         estimate D2E/DX2                !
 ! D114  D(16,18,20,6)         -82.1116         estimate D2E/DX2                !
 ! D115  D(19,18,20,6)         146.9931         estimate D2E/DX2                !
 ! D116  D(1,21,22,23)          41.7909         estimate D2E/DX2                !
 ! D117  D(1,21,22,24)         -56.5977         estimate D2E/DX2                !
 ! D118  D(2,21,22,23)          93.5455         estimate D2E/DX2                !
 ! D119  D(2,21,22,24)          -4.8431         estimate D2E/DX2                !
 ! D120  D(5,21,22,23)         -12.3705         estimate D2E/DX2                !
 ! D121  D(5,21,22,24)        -110.7591         estimate D2E/DX2                !
 ! D122  D(12,21,22,23)        -33.7287         estimate D2E/DX2                !
 ! D123  D(12,21,22,24)       -132.1174         estimate D2E/DX2                !
 ! D124  D(14,21,22,23)       -120.1664         estimate D2E/DX2                !
 ! D125  D(14,21,22,24)        141.445          estimate D2E/DX2                !
 --------------------------------------------------------------------------------
 Trust Radius=3.00D-01 FncErr=1.00D-07 GrdErr=1.00D-06 EigMax=2.50D+02 EigMin=1.00D-04
 Number of steps in this run=    144 maximum allowed number of steps=    144.
 GradGradGradGradGradGradGradGradGradGradGradGradGradGradGradGradGradGrad

                          Input orientation:                          
 ---------------------------------------------------------------------
 Center     Atomic      Atomic             Coordinates (Angstroms)
 Number     Number       Type             X           Y           Z
 ---------------------------------------------------------------------
      1         42           0        0.540835    1.333468   11.913710
      2         16           0        1.327548    3.398958   12.613825
      3         16           0       -1.510070    1.316552   13.007543
      4         16           0       -0.264216    1.206644    9.695120
      5         16           0        2.363288   -0.200337   11.650809
      6         42           0       -1.957076    2.425081   10.967836
      7         16           0       -3.192498    2.034165    8.731173
      8         16           0       -1.388538    4.582243   11.208363
      9         42           0        0.396991    3.406574   10.185961
     10         16           0       -0.341922    4.428029    7.981518
     11         16           0        2.469226    2.887480    8.848943
     12         42           0        3.500870    1.388206   10.181054
     13         42           0       -2.586071    4.169344    7.842023
     14         16           0        4.737741    2.721538   11.579043
     15         16           0        4.932783    0.218090    9.142190
     16         16           0       -3.927280    5.650282    9.049568
     17         16           0       -3.232206    4.240039    5.839120
     18         42           0       -4.670223    3.556678    9.741333
     19         16           0       -6.663712    3.223083    9.119532
     20         16           0       -4.248582    3.046597   11.890265
     21         42           0        3.065857    1.774214   12.878098
     22         16           0        2.710580    0.278052   15.031833
     23          1           0        2.044388   -0.794957   14.559322
     24          1           0        1.640462    0.750387   15.706449
 ---------------------------------------------------------------------
                    Distance matrix (angstroms):
                    1          2          3          4          5
     1  Mo   0.000000
     2  S    2.318475   0.000000
     3  S    2.324429   3.541681   0.000000
     4  S    2.363542   3.982310   3.540675   0.000000
     5  S    2.396458   3.867180   4.375452   3.564841   0.000000
     6  Mo   2.885456   3.800851   2.364118   2.443393   5.101452
     7  S    4.955532   6.112975   4.651115   3.191993   6.662134
     8  S    3.843766   3.279117   3.730490   3.866351   6.094672
     9  Mo   2.702513   2.600100   3.995798   2.349002   4.361412
    10  S    5.081112   5.030346   6.025511   3.649629   6.496432
    11  S    3.940361   3.967288   5.966286   3.318574   4.170886
    12  Mo   3.430292   3.832079   5.753581   3.800654   2.444942
    13  Mo   5.865012   6.219325   5.998233   4.195542   7.622147
    14  S    4.433143   3.627546   6.561230   5.555506   3.765705
    15  S    5.311742   5.930252   7.593282   5.319001   3.615322
    16  S    6.841217   6.736884   6.347416   5.794885   8.975937
    17  S    7.719109   8.209470   7.930877   5.734037   9.208812
    18  Mo   6.067702   6.652018   5.066839   4.993765   8.199484
    19  S    7.955097   8.723603   6.731383   6.734306   9.980676
    20  S    5.086637   5.633908   3.426487   4.907062   7.369989
    21  Mo   2.738620   2.394024   4.600578   4.641430   2.428723
    22  S    3.942637   4.183252   4.794801   6.179984   3.432316
    23  H    3.713506   4.678434   4.415955   5.744260   2.985753
    24  H    3.991745   4.083769   4.186943   6.322345   4.227833
                    6          7          8          9         10
     6  Mo   0.000000
     7  S    2.584907   0.000000
     8  S    2.243755   3.985404   0.000000
     9  Mo   2.667637   4.109057   2.369729   0.000000
    10  S    3.941905   3.797150   3.395838   2.539475   0.000000
    11  S    4.929064   5.726878   4.829226   2.520165   3.320884
    12  Mo   5.610999   6.878997   5.929886   3.702418   5.370804
    13  Mo   3.634391   2.391094   3.596779   3.869693   2.263312
    14  S    6.729193   8.454084   6.413339   4.609996   6.454245
    15  S    7.461498   8.335902   7.954496   5.641746   6.847865
    16  S    4.238322   3.703725   3.499473   5.002493   3.935661
    17  S    5.587822   3.637503   5.687265   5.723702   3.602631
    18  Mo   3.185277   2.349923   3.738103   5.088898   4.752935
    19  S    5.119127   3.689671   5.834209   7.143141   6.535442
    20  S    2.547186   3.481407   3.317085   4.961409   5.696372
    21  Mo   5.413186   7.512095   5.524009   4.127353   6.529333
    22  S    6.550788   8.810708   7.067372   6.214726   8.731954
    23  H    6.267306   8.330440   7.206121   6.284351   8.731642
    24  H    6.180723   8.582544   6.640086   6.251187   8.782338
                   11         12         13         14         15
    11  S    0.000000
    12  Mo   2.255356   0.000000
    13  Mo   5.311600   7.089192   0.000000
    14  S    3.553469   2.293904   8.348634   0.000000
    15  S    3.644276   2.121034   8.592788   3.499078   0.000000
    16  S    6.970553   8.638458   2.334563   9.489909  10.393171
    17  S    6.587471   8.504096   2.105732   9.938441   9.682633
    18  Mo   7.226058   8.465364   2.885555   9.622080  10.184442
    19  S    9.143107  10.383272   4.376596  11.674497  11.979532
    20  S    7.375900   8.107137   4.518049   8.997584   9.992489
    21  Mo   4.222490   2.759037   7.939962   2.319518   4.456898
    22  S    6.715318   5.038557   9.741152   4.690604   6.295211
    23  H    6.808029   5.104583   9.550264   5.338722   6.222090
    24  H    7.230450   5.864974   9.560442   5.523953   7.362894
                   16         17         18         19         20
    16  S    0.000000
    17  S    3.574757   0.000000
    18  Mo   2.326732   4.214516   0.000000
    19  S    3.658449   4.854950   2.114692   0.000000
    20  S    3.866778   6.250894   2.248527   3.679805   0.000000
    21  Mo   8.864847   9.761819   8.536006  10.530458   7.489712
    22  S   10.426386  11.641307   9.654793  11.467600   8.121836
    23  H   10.371081  11.368182   9.340008  11.025741   7.841102
    24  H    9.966082  11.544901   9.125931  10.883979   7.383541
                   21         22         23         24
    21  Mo   0.000000
    22  S    2.646374   0.000000
    23  H    3.235823   1.348491   0.000000
    24  H    3.328595   1.350318   1.966506   0.000000
 Symmetry turned off by external request.
 Stoichiometry    H2Mo7S15
 Framework group  C1[X(H2Mo7S15)]
 Deg. of freedom    66
 Full point group                 C1      NOp   1
 Rotational constants (GHZ):           0.1233199           0.0367882           0.0317629
 General basis read from cards:  (5D, 7F)
 ======================================================================================================
                                       Pseudopotential Parameters
 ======================================================================================================
  Center     Atomic      Valence      Angular      Power
  Number     Number     Electrons     Momentum     of R      Exponent        Coefficient   SO-Coeffient
 ======================================================================================================
    1         42           14
                                      F and up 
                                                     0      537.9667807       -0.04694920    0.00000000
                                                     1      147.8982938      -20.20800840    0.00000000
                                                     2       45.7358898     -106.21163020    0.00000000
                                                     2       13.2911467      -41.81073680    0.00000000
                                                     2        4.7059961       -4.20541030    0.00000000
                                      S - F
                                                     0      110.2991760        2.80637170    0.00000000
                                                     1       23.2014645       44.51620120    0.00000000
                                                     2        5.3530131       82.77852270    0.00000000
                                      P - F
                                                     0       63.2901397        4.94208760    0.00000000
                                                     1       23.3315302       25.86049760    0.00000000
                                                     2       24.6759423      132.47087420    0.00000000
                                                     2        4.6493040       57.31497940    0.00000000
                                      D - F
                                                     0      104.4839977        3.00545910    0.00000000
                                                     1       66.2307245       26.36378510    0.00000000
                                                     2       39.1283176      183.38491990    0.00000000
                                                     2       13.1164437       98.44530680    0.00000000
                                                     2        3.6280263       22.49013770    0.00000000
    2         16
                                   No pseudopotential on this center.
    3         16
                                   No pseudopotential on this center.
    4         16
                                   No pseudopotential on this center.
    5         16
                                   No pseudopotential on this center.
    6         42           14
                                      F and up 
                                                     0      537.9667807       -0.04694920    0.00000000
                                                     1      147.8982938      -20.20800840    0.00000000
                                                     2       45.7358898     -106.21163020    0.00000000
                                                     2       13.2911467      -41.81073680    0.00000000
                                                     2        4.7059961       -4.20541030    0.00000000
                                      S - F
                                                     0      110.2991760        2.80637170    0.00000000
                                                     1       23.2014645       44.51620120    0.00000000
                                                     2        5.3530131       82.77852270    0.00000000
                                      P - F
                                                     0       63.2901397        4.94208760    0.00000000
                                                     1       23.3315302       25.86049760    0.00000000
                                                     2       24.6759423      132.47087420    0.00000000
                                                     2        4.6493040       57.31497940    0.00000000
                                      D - F
                                                     0      104.4839977        3.00545910    0.00000000
                                                     1       66.2307245       26.36378510    0.00000000
                                                     2       39.1283176      183.38491990    0.00000000
                                                     2       13.1164437       98.44530680    0.00000000
                                                     2        3.6280263       22.49013770    0.00000000
    7         16
                                   No pseudopotential on this center.
    8         16
                                   No pseudopotential on this center.
    9         42           14
                                      F and up 
                                                     0      537.9667807       -0.04694920    0.00000000
                                                     1      147.8982938      -20.20800840    0.00000000
                                                     2       45.7358898     -106.21163020    0.00000000
                                                     2       13.2911467      -41.81073680    0.00000000
                                                     2        4.7059961       -4.20541030    0.00000000
                                      S - F
                                                     0      110.2991760        2.80637170    0.00000000
                                                     1       23.2014645       44.51620120    0.00000000
                                                     2        5.3530131       82.77852270    0.00000000
                                      P - F
                                                     0       63.2901397        4.94208760    0.00000000
                                                     1       23.3315302       25.86049760    0.00000000
                                                     2       24.6759423      132.47087420    0.00000000
                                                     2        4.6493040       57.31497940    0.00000000
                                      D - F
                                                     0      104.4839977        3.00545910    0.00000000
                                                     1       66.2307245       26.36378510    0.00000000
                                                     2       39.1283176      183.38491990    0.00000000
                                                     2       13.1164437       98.44530680    0.00000000
                                                     2        3.6280263       22.49013770    0.00000000
   10         16
                                   No pseudopotential on this center.
   11         16
                                   No pseudopotential on this center.
   12         42           14
                                      F and up 
                                                     0      537.9667807       -0.04694920    0.00000000
                                                     1      147.8982938      -20.20800840    0.00000000
                                                     2       45.7358898     -106.21163020    0.00000000
                                                     2       13.2911467      -41.81073680    0.00000000
                                                     2        4.7059961       -4.20541030    0.00000000
                                      S - F
                                                     0      110.2991760        2.80637170    0.00000000
                                                     1       23.2014645       44.51620120    0.00000000
                                                     2        5.3530131       82.77852270    0.00000000
                                      P - F
                                                     0       63.2901397        4.94208760    0.00000000
                                                     1       23.3315302       25.86049760    0.00000000
                                                     2       24.6759423      132.47087420    0.00000000
                                                     2        4.6493040       57.31497940    0.00000000
                                      D - F
                                                     0      104.4839977        3.00545910    0.00000000
                                                     1       66.2307245       26.36378510    0.00000000
                                                     2       39.1283176      183.38491990    0.00000000
                                                     2       13.1164437       98.44530680    0.00000000
                                                     2        3.6280263       22.49013770    0.00000000
   13         42           14
                                      F and up 
                                                     0      537.9667807       -0.04694920    0.00000000
                                                     1      147.8982938      -20.20800840    0.00000000
                                                     2       45.7358898     -106.21163020    0.00000000
                                                     2       13.2911467      -41.81073680    0.00000000
                                                     2        4.7059961       -4.20541030    0.00000000
                                      S - F
                                                     0      110.2991760        2.80637170    0.00000000
                                                     1       23.2014645       44.51620120    0.00000000
                                                     2        5.3530131       82.77852270    0.00000000
                                      P - F
                                                     0       63.2901397        4.94208760    0.00000000
                                                     1       23.3315302       25.86049760    0.00000000
                                                     2       24.6759423      132.47087420    0.00000000
                                                     2        4.6493040       57.31497940    0.00000000
                                      D - F
                                                     0      104.4839977        3.00545910    0.00000000
                                                     1       66.2307245       26.36378510    0.00000000
                                                     2       39.1283176      183.38491990    0.00000000
                                                     2       13.1164437       98.44530680    0.00000000
                                                     2        3.6280263       22.49013770    0.00000000
   14         16
                                   No pseudopotential on this center.
   15         16
                                   No pseudopotential on this center.
   16         16
                                   No pseudopotential on this center.
   17         16
                                   No pseudopotential on this center.
   18         42           14
                                      F and up 
                                                     0      537.9667807       -0.04694920    0.00000000
                                                     1      147.8982938      -20.20800840    0.00000000
                                                     2       45.7358898     -106.21163020    0.00000000
                                                     2       13.2911467      -41.81073680    0.00000000
                                                     2        4.7059961       -4.20541030    0.00000000
                                      S - F
                                                     0      110.2991760        2.80637170    0.00000000
                                                     1       23.2014645       44.51620120    0.00000000
                                                     2        5.3530131       82.77852270    0.00000000
                                      P - F
                                                     0       63.2901397        4.94208760    0.00000000
                                                     1       23.3315302       25.86049760    0.00000000
                                                     2       24.6759423      132.47087420    0.00000000
                                                     2        4.6493040       57.31497940    0.00000000
                                      D - F
                                                     0      104.4839977        3.00545910    0.00000000
                                                     1       66.2307245       26.36378510    0.00000000
                                                     2       39.1283176      183.38491990    0.00000000
                                                     2       13.1164437       98.44530680    0.00000000
                                                     2        3.6280263       22.49013770    0.00000000
   19         16
                                   No pseudopotential on this center.
   20         16
                                   No pseudopotential on this center.
   21         42           14
                                      F and up 
                                                     0      537.9667807       -0.04694920    0.00000000
                                                     1      147.8982938      -20.20800840    0.00000000
                                                     2       45.7358898     -106.21163020    0.00000000
                                                     2       13.2911467      -41.81073680    0.00000000
                                                     2        4.7059961       -4.20541030    0.00000000
                                      S - F
                                                     0      110.2991760        2.80637170    0.00000000
                                                     1       23.2014645       44.51620120    0.00000000
                                                     2        5.3530131       82.77852270    0.00000000
                                      P - F
                                                     0       63.2901397        4.94208760    0.00000000
                                                     1       23.3315302       25.86049760    0.00000000
                                                     2       24.6759423      132.47087420    0.00000000
                                                     2        4.6493040       57.31497940    0.00000000
                                      D - F
                                                     0      104.4839977        3.00545910    0.00000000
                                                     1       66.2307245       26.36378510    0.00000000
                                                     2       39.1283176      183.38491990    0.00000000
                                                     2       13.1164437       98.44530680    0.00000000
                                                     2        3.6280263       22.49013770    0.00000000
   22         16
                                   No pseudopotential on this center.
   23          1
                                   No pseudopotential on this center.
   24          1
                                   No pseudopotential on this center.
 ======================================================================================================
   434 basis functions,  1137 primitive gaussians,   463 cartesian basis functions
   170 alpha electrons      170 beta electrons
       nuclear repulsion energy      6470.5822697325 Hartrees.
 NAtoms=   24 NActive=   24 NUniq=   24 SFac= 1.00D+00 NAtFMM=   60 NAOKFM=F Big=F
 Integral buffers will be    131072 words long.
 Raffenetti 2 integral format.
 Two-electron integral symmetry is turned off.
 One-electron integrals computed using PRISM.
   1 Symmetry operations used in ECPInt.
 ECPInt:  NShTT=    9453 NPrTT=   74512 LenC2=    8250 LenP2D=   39755.
 LDataN:  DoStor=T MaxTD1= 5 Len=  102
 NBasis=   434 RedAO= T EigKep=  6.63D-04  NBF=   434
 NBsUse=   434 1.00D-06 EigRej= -1.00D+00 NBFU=   434
 Defaulting to unpruned grid for atomic number  42.
 Defaulting to unpruned grid for atomic number  42.
 Defaulting to unpruned grid for atomic number  42.
 Defaulting to unpruned grid for atomic number  42.
 Defaulting to unpruned grid for atomic number  42.
 Defaulting to unpruned grid for atomic number  42.
 Defaulting to unpruned grid for atomic number  42.
 ExpMin= 2.47D-02 ExpMax= 2.19D+04 ExpMxC= 3.30D+03 IAcc=3 IRadAn=         5 AccDes= 0.00D+00
 Harris functional with IExCor=  402 and IRadAn=       5 diagonalized for initial guess.
 HarFok:  IExCor=  402 AccDes= 0.00D+00 IRadAn=         5 IDoV= 1 UseB2=F ITyADJ=14
 ICtDFT=  3500011 ScaDFX=  1.000000  1.000000  1.000000  1.000000
 Defaulting to unpruned grid for atomic number  42.
 FoFCou: FMM=F IPFlag=           0 FMFlag=      100000 FMFlg1=           0
         NFxFlg=           0 DoJE=T BraDBF=F KetDBF=T FulRan=T
         wScrn=  0.000000 ICntrl=       500 IOpCl=  0 I1Cent=   200000004 NGrid=           0
         NMat0=    1 NMatS0=      1 NMatT0=    0 NMatD0=    1 NMtDS0=    0 NMtDT0=    0
 Symmetry not used in FoFCou.
 Requested convergence on RMS density matrix=1.00D-08 within 128 cycles.
 Requested convergence on MAX density matrix=1.00D-06.
 Requested convergence on             energy=1.00D-06.
 No special actions if energy rises.
 Defaulting to unpruned grid for atomic number  42.
 Defaulting to unpruned grid for atomic number  42.
 Defaulting to unpruned grid for atomic number  42.
 Defaulting to unpruned grid for atomic number  42.
 Defaulting to unpruned grid for atomic number  42.
 Defaulting to unpruned grid for atomic number  42.
 Defaulting to unpruned grid for atomic number  42.
 Defaulting to unpruned grid for atomic number  42.
 Defaulting to unpruned grid for atomic number  42.
 Defaulting to unpruned grid for atomic number  42.
 Defaulting to unpruned grid for atomic number  42.
 Defaulting to unpruned grid for atomic number  42.
 Defaulting to unpruned grid for atomic number  42.
 Defaulting to unpruned grid for atomic number  42.
 Defaulting to unpruned grid for atomic number  42.
 Defaulting to unpruned grid for atomic number  42.
 Defaulting to unpruned grid for atomic number  42.
 Defaulting to unpruned grid for atomic number  42.
 Defaulting to unpruned grid for atomic number  42.
 Defaulting to unpruned grid for atomic number  42.
 Defaulting to unpruned grid for atomic number  42.
 Defaulting to unpruned grid for atomic number  42.
 Defaulting to unpruned grid for atomic number  42.
 Defaulting to unpruned grid for atomic number  42.
 Defaulting to unpruned grid for atomic number  42.
 Defaulting to unpruned grid for atomic number  42.
 Defaulting to unpruned grid for atomic number  42.
 Defaulting to unpruned grid for atomic number  42.
 Defaulting to unpruned grid for atomic number  42.
 Defaulting to unpruned grid for atomic number  42.
 Defaulting to unpruned grid for atomic number  42.
 Defaulting to unpruned grid for atomic number  42.
 Defaulting to unpruned grid for atomic number  42.
 Defaulting to unpruned grid for atomic number  42.
 Defaulting to unpruned grid for atomic number  42.
 Defaulting to unpruned grid for atomic number  42.
 Defaulting to unpruned grid for atomic number  42.
 Defaulting to unpruned grid for atomic number  42.
 Defaulting to unpruned grid for atomic number  42.
 Defaulting to unpruned grid for atomic number  42.
 Defaulting to unpruned grid for atomic number  42.
 Defaulting to unpruned grid for atomic number  42.
 Defaulting to unpruned grid for atomic number  42.
 Defaulting to unpruned grid for atomic number  42.
 Defaulting to unpruned grid for atomic number  42.
 Defaulting to unpruned grid for atomic number  42.
 EnCoef did   100 forward-backward iterations
 EnCoef did   100 forward-backward iterations
 EnCoef did   100 forward-backward iterations
 EnCoef did   100 forward-backward iterations
 EnCoef did     4 forward-backward iterations
 EnCoef did     6 forward-backward iterations
 EnCoef did    11 forward-backward iterations
 EnCoef did     4 forward-backward iterations
 EnCoef did     5 forward-backward iterations
 Restarting incremental Fock formation.
 SCF Done:  E(RB3LYP) =  -6447.54252503     A.U. after   37 cycles
            NFock= 37  Conv=0.54D-08     -V/T= 2.0538

 **********************************************************************

            Population analysis using the SCF Density.

 **********************************************************************

 Alpha  occ. eigenvalues --  -88.96516 -88.91417 -88.91191 -88.90996 -88.90915
 Alpha  occ. eigenvalues --  -88.90684 -88.89442 -88.88888 -88.87859 -88.87818
 Alpha  occ. eigenvalues --  -88.87627 -88.87493 -88.87238 -88.87125 -88.86856
 Alpha  occ. eigenvalues --   -8.04183  -7.98964  -7.98822  -7.98561  -7.98524
 Alpha  occ. eigenvalues --   -7.98296  -7.97156  -7.96737  -7.95724  -7.95667
 Alpha  occ. eigenvalues --   -7.95468  -7.95381  -7.95005  -7.94883  -7.94785
 Alpha  occ. eigenvalues --   -6.00493  -6.00225  -5.99719  -5.94980  -5.94935
 Alpha  occ. eigenvalues --   -5.94858  -5.94832  -5.94782  -5.94710  -5.94598
 Alpha  occ. eigenvalues --   -5.94573  -5.94514  -5.94503  -5.94448  -5.94386
 Alpha  occ. eigenvalues --   -5.94291  -5.94278  -5.94203  -5.93177  -5.93109
 Alpha  occ. eigenvalues --   -5.93037  -5.92772  -5.92670  -5.92597  -5.91776
 Alpha  occ. eigenvalues --   -5.91737  -5.91701  -5.91590  -5.91512  -5.91502
 Alpha  occ. eigenvalues --   -5.91455  -5.91435  -5.91431  -5.91328  -5.91302
 Alpha  occ. eigenvalues --   -5.91233  -5.91070  -5.90964  -5.90956  -5.90858
 Alpha  occ. eigenvalues --   -5.90837  -5.90769  -5.90746  -5.90680  -5.90642
 Alpha  occ. eigenvalues --   -2.56222  -2.56107  -2.55482  -2.54906  -2.54755
 Alpha  occ. eigenvalues --   -2.54420  -2.53039  -1.59803  -1.59098  -1.58939
 Alpha  occ. eigenvalues --   -1.58546  -1.58379  -1.58275  -1.58216  -1.58021
 Alpha  occ. eigenvalues --   -1.57813  -1.57601  -1.57576  -1.57384  -1.56655
 Alpha  occ. eigenvalues --   -1.56486  -1.56362  -1.56336  -1.56118  -1.55695
 Alpha  occ. eigenvalues --   -1.55389  -1.54951  -1.54863  -0.83514  -0.75732
 Alpha  occ. eigenvalues --   -0.74220  -0.73924  -0.73534  -0.73043  -0.71937
 Alpha  occ. eigenvalues --   -0.71641  -0.70557  -0.70410  -0.69898  -0.69251
 Alpha  occ. eigenvalues --   -0.69028  -0.68704  -0.68126  -0.52993  -0.46867
 Alpha  occ. eigenvalues --   -0.42979  -0.42692  -0.42273  -0.41082  -0.40894
 Alpha  occ. eigenvalues --   -0.40533  -0.40151  -0.39896  -0.39709  -0.39210
 Alpha  occ. eigenvalues --   -0.38435  -0.38250  -0.38128  -0.37578  -0.37241
 Alpha  occ. eigenvalues --   -0.37192  -0.36940  -0.36687  -0.36434  -0.35999
 Alpha  occ. eigenvalues --   -0.35738  -0.35468  -0.34950  -0.34771  -0.34636
 Alpha  occ. eigenvalues --   -0.33988  -0.33728  -0.33585  -0.33492  -0.33282
 Alpha  occ. eigenvalues --   -0.32329  -0.32057  -0.31805  -0.31400  -0.30714
 Alpha  occ. eigenvalues --   -0.30232  -0.29850  -0.29456  -0.29217  -0.29025
 Alpha  occ. eigenvalues --   -0.28536  -0.27751  -0.27559  -0.26778  -0.26226
 Alpha  occ. eigenvalues --   -0.25865  -0.25425  -0.24812  -0.24015  -0.21501
 Alpha virt. eigenvalues --   -0.16947  -0.16173  -0.15286  -0.15071  -0.14904
 Alpha virt. eigenvalues --   -0.14109  -0.13519  -0.13148  -0.12541  -0.12222
 Alpha virt. eigenvalues --   -0.12025  -0.11741  -0.11391  -0.11092  -0.10893
 Alpha virt. eigenvalues --   -0.10503  -0.09931  -0.09460  -0.08847  -0.08365
 Alpha virt. eigenvalues --   -0.07354  -0.07099  -0.06692  -0.06608  -0.06452
 Alpha virt. eigenvalues --   -0.06201  -0.05495  -0.04966  -0.04313  -0.04196
 Alpha virt. eigenvalues --   -0.00978  -0.00371   0.00337   0.01526   0.01781
 Alpha virt. eigenvalues --    0.02852   0.03019   0.03652   0.03855   0.04071
 Alpha virt. eigenvalues --    0.04482   0.04731   0.05055   0.05884   0.06273
 Alpha virt. eigenvalues --    0.06543   0.06617   0.07026   0.07286   0.07992
 Alpha virt. eigenvalues --    0.08371   0.08607   0.08969   0.09369   0.10227
 Alpha virt. eigenvalues --    0.10842   0.11695   0.13420   0.14166   0.14720
 Alpha virt. eigenvalues --    0.15547   0.15863   0.16800   0.17170   0.18123
 Alpha virt. eigenvalues --    0.18516   0.18872   0.19510   0.20256   0.21054
 Alpha virt. eigenvalues --    0.21730   0.22537   0.22638   0.23628   0.23970
 Alpha virt. eigenvalues --    0.25652   0.26391   0.26990   0.27372   0.28189
 Alpha virt. eigenvalues --    0.28235   0.28732   0.29046   0.29547   0.30000
 Alpha virt. eigenvalues --    0.30396   0.30627   0.31612   0.32000   0.32277
 Alpha virt. eigenvalues --    0.33131   0.33522   0.33716   0.34258   0.34715
 Alpha virt. eigenvalues --    0.35215   0.35580   0.35840   0.36123   0.36490
 Alpha virt. eigenvalues --    0.36718   0.36995   0.37268   0.37667   0.37967
 Alpha virt. eigenvalues --    0.38392   0.38641   0.39465   0.39744   0.39893
 Alpha virt. eigenvalues --    0.40164   0.40852   0.40901   0.41246   0.41566
 Alpha virt. eigenvalues --    0.42046   0.42356   0.42601   0.42783   0.43281
 Alpha virt. eigenvalues --    0.43817   0.44229   0.44574   0.44947   0.45014
 Alpha virt. eigenvalues --    0.45641   0.46080   0.46577   0.46697   0.46874
 Alpha virt. eigenvalues --    0.47297   0.47987   0.48716   0.49146   0.49711
 Alpha virt. eigenvalues --    0.50660   0.50890   0.51435   0.51767   0.52298
 Alpha virt. eigenvalues --    0.53417   0.53932   0.54149   0.54529   0.55802
 Alpha virt. eigenvalues --    0.56062   0.56567   0.57706   0.58322   0.58873
 Alpha virt. eigenvalues --    0.59304   0.60607   0.61115   0.61639   0.61958
 Alpha virt. eigenvalues --    0.62032   0.63244   0.64394   0.65146   0.65642
 Alpha virt. eigenvalues --    0.66546   0.67231   0.67736   0.67798   0.68858
 Alpha virt. eigenvalues --    0.69223   0.70696   0.70870   0.71544   0.72835
 Alpha virt. eigenvalues --    0.72981   0.73451   0.73662   0.74497   0.74987
 Alpha virt. eigenvalues --    0.75308   0.76030   0.76409   0.76932   0.77138
 Alpha virt. eigenvalues --    0.77587   0.77981   0.78399   0.78610   0.78985
 Alpha virt. eigenvalues --    0.79463   0.79966   0.80330   0.80369   0.80671
 Alpha virt. eigenvalues --    0.81636   0.81844   0.82424   0.82597   0.83110
 Alpha virt. eigenvalues --    0.83734   0.84115   0.84531   0.85053   0.85674
 Alpha virt. eigenvalues --    0.86139   0.86808   0.87425   0.87577   0.88370
 Alpha virt. eigenvalues --    0.89203   0.89586   0.91004   0.91212   0.92663
 Alpha virt. eigenvalues --    0.93150   0.93823   0.95505   0.95681   0.96300
 Alpha virt. eigenvalues --    0.97146   0.97239   0.97497   0.98108   0.98920
 Alpha virt. eigenvalues --    0.99668   0.99739   1.00749   1.00986   1.01589
 Alpha virt. eigenvalues --    1.01950   1.02585   1.03462   1.03570   1.03950
 Alpha virt. eigenvalues --    1.04256   1.04445   1.05247   1.06054   1.06725
 Alpha virt. eigenvalues --    1.07111   1.08292   1.08362   1.09120   1.09679
 Alpha virt. eigenvalues --    1.10629   1.11612   1.12447   1.13188   1.15010
 Alpha virt. eigenvalues --    1.15944   1.16194   1.18228   1.18826   1.22871
 Alpha virt. eigenvalues --    1.32347   1.92378   1.98509   2.09255   2.12980
 Alpha virt. eigenvalues --    2.64437   2.73996   7.51020   7.63836  10.23723
 Alpha virt. eigenvalues --   10.90946  11.13722  12.03135  15.79446
          Condensed to atoms (all electrons):
               1          2          3          4          5          6
     1  Mo  14.607145   0.212646   0.195662   0.124945   0.102606  -0.587168
     2  S    0.212646  15.441446   0.003378   0.009361   0.001881  -0.057208
     3  S    0.195662   0.003378  15.623386  -0.039617   0.001548   0.269969
     4  S    0.124945   0.009361  -0.039617  15.497423  -0.009776   0.108611
     5  S    0.102606   0.001881   0.001548  -0.009776  15.674752  -0.004165
     6  Mo  -0.587168  -0.057208   0.269969   0.108611  -0.004165  14.539211
     7  S    0.028466  -0.000065  -0.001883  -0.039983   0.000020   0.181828
     8  S   -0.061130  -0.032483   0.017586   0.004217  -0.000163   0.363200
     9  Mo  -0.178461   0.152512  -0.030695   0.146681  -0.008266  -0.281208
    10  S   -0.017804  -0.002305  -0.000188  -0.003734  -0.000050  -0.017072
    11  S    0.013468  -0.002194  -0.000163  -0.031295   0.002135  -0.012221
    12  Mo  -0.143450  -0.039956  -0.000500  -0.030082   0.162834   0.029119
    13  Mo   0.042388  -0.000066  -0.002480  -0.010650   0.000240  -0.055508
    14  S    0.002019  -0.011376  -0.000033  -0.000284  -0.005912   0.000715
    15  S   -0.019098   0.000096   0.000001  -0.000024   0.005559   0.001358
    16  S   -0.002011   0.000002   0.000059  -0.000075   0.000000  -0.046099
    17  S    0.001411   0.000000  -0.000000   0.000051   0.000000   0.002458
    18  Mo  -0.069656   0.000093   0.006190   0.016128  -0.000071  -0.262014
    19  S   -0.002057  -0.000000   0.000013   0.000045   0.000000  -0.030660
    20  S   -0.001600  -0.000164  -0.006728  -0.004237  -0.000002   0.170068
    21  Mo  -0.212676   0.202231   0.000274   0.003121   0.139976  -0.015273
    22  S    0.010088  -0.000259  -0.001639   0.000009  -0.032970  -0.000253
    23  H    0.005545   0.000020   0.000092  -0.000007   0.002859  -0.000256
    24  H   -0.006199  -0.000287  -0.000294   0.000003   0.000390   0.000392
               7          8          9         10         11         12
     1  Mo   0.028466  -0.061130  -0.178461  -0.017804   0.013468  -0.143450
     2  S   -0.000065  -0.032483   0.152512  -0.002305  -0.002194  -0.039956
     3  S   -0.001883   0.017586  -0.030695  -0.000188  -0.000163  -0.000500
     4  S   -0.039983   0.004217   0.146681  -0.003734  -0.031295  -0.030082
     5  S    0.000020  -0.000163  -0.008266  -0.000050   0.002135   0.162834
     6  Mo   0.181828   0.363200  -0.281208  -0.017072  -0.012221   0.029119
     7  S   15.692890  -0.009913  -0.013507   0.006749  -0.000146   0.000000
     8  S   -0.009913  15.461296   0.166485  -0.045530  -0.006384   0.000065
     9  Mo  -0.013507   0.166485  14.083257   0.216927   0.222010  -0.072279
    10  S    0.006749  -0.045530   0.216927  15.704223  -0.036491   0.003136
    11  S   -0.000146  -0.006384   0.222010  -0.036491  15.678093   0.279594
    12  Mo   0.000000   0.000065  -0.072279   0.003136   0.279594  13.024823
    13  Mo   0.124656  -0.005439  -0.108977   0.287490   0.003506  -0.001935
    14  S   -0.000000  -0.000013  -0.012648   0.000019  -0.002483   0.248523
    15  S    0.000000   0.000001  -0.011631   0.000008   0.018310   0.364422
    16  S   -0.030865  -0.014537  -0.000553   0.011682   0.000000   0.000023
    17  S    0.002618  -0.000293  -0.013321   0.017583   0.000022  -0.000014
    18  Mo   0.061114  -0.026035   0.067406  -0.016607  -0.000210   0.000642
    19  S    0.012246  -0.000173   0.005133  -0.000019   0.000000   0.000014
    20  S   -0.037579  -0.030489  -0.010507  -0.000309  -0.000010  -0.000115
    21  Mo   0.000161   0.002980  -0.000139  -0.000030  -0.046979  -0.149753
    22  S   -0.000000   0.000001  -0.003779  -0.000000  -0.000001   0.003146
    23  H   -0.000000   0.000000   0.000484   0.000000   0.000000   0.001299
    24  H    0.000000   0.000000   0.000285   0.000000  -0.000000  -0.000439
              13         14         15         16         17         18
     1  Mo   0.042388   0.002019  -0.019098  -0.002011   0.001411  -0.069656
     2  S   -0.000066  -0.011376   0.000096   0.000002   0.000000   0.000093
     3  S   -0.002480  -0.000033   0.000001   0.000059  -0.000000   0.006190
     4  S   -0.010650  -0.000284  -0.000024  -0.000075   0.000051   0.016128
     5  S    0.000240  -0.005912   0.005559   0.000000   0.000000  -0.000071
     6  Mo  -0.055508   0.000715   0.001358  -0.046099   0.002458  -0.262014
     7  S    0.124656  -0.000000   0.000000  -0.030865   0.002618   0.061114
     8  S   -0.005439  -0.000013   0.000001  -0.014537  -0.000293  -0.026035
     9  Mo  -0.108977  -0.012648  -0.011631  -0.000553  -0.013321   0.067406
    10  S    0.287490   0.000019   0.000008   0.011682   0.017583  -0.016607
    11  S    0.003506  -0.002483   0.018310   0.000000   0.000022  -0.000210
    12  Mo  -0.001935   0.248523   0.364422   0.000023  -0.000014   0.000642
    13  Mo  13.197288   0.000056  -0.000111   0.222913   0.366102  -0.270954
    14  S    0.000056  15.615097  -0.005200  -0.000000  -0.000000  -0.000003
    15  S   -0.000111  -0.005200  15.854227  -0.000000  -0.000000  -0.000006
    16  S    0.222913  -0.000000  -0.000000  15.609631   0.005635   0.246060
    17  S    0.366102  -0.000000  -0.000000   0.005635  15.827120  -0.035766
    18  Mo  -0.270954  -0.000003  -0.000006   0.246060  -0.035766  13.428925
    19  S   -0.034169   0.000000  -0.000000   0.008868   0.001298   0.360959
    20  S   -0.011175   0.000000   0.000000   0.012832  -0.000028   0.269895
    21  Mo  -0.001157   0.221038  -0.020476   0.000004  -0.000030  -0.000548
    22  S   -0.000059  -0.003802   0.000002   0.000000   0.000000   0.000039
    23  H   -0.000000  -0.000072  -0.000001  -0.000000  -0.000000   0.000004
    24  H    0.000002   0.000068  -0.000000   0.000000  -0.000000   0.000006
              19         20         21         22         23         24
     1  Mo  -0.002057  -0.001600  -0.212676   0.010088   0.005545  -0.006199
     2  S   -0.000000  -0.000164   0.202231  -0.000259   0.000020  -0.000287
     3  S    0.000013  -0.006728   0.000274  -0.001639   0.000092  -0.000294
     4  S    0.000045  -0.004237   0.003121   0.000009  -0.000007   0.000003
     5  S    0.000000  -0.000002   0.139976  -0.032970   0.002859   0.000390
     6  Mo  -0.030660   0.170068  -0.015273  -0.000253  -0.000256   0.000392
     7  S    0.012246  -0.037579   0.000161  -0.000000  -0.000000   0.000000
     8  S   -0.000173  -0.030489   0.002980   0.000001   0.000000   0.000000
     9  Mo   0.005133  -0.010507  -0.000139  -0.003779   0.000484   0.000285
    10  S   -0.000019  -0.000309  -0.000030  -0.000000   0.000000   0.000000
    11  S    0.000000  -0.000010  -0.046979  -0.000001   0.000000  -0.000000
    12  Mo   0.000014  -0.000115  -0.149753   0.003146   0.001299  -0.000439
    13  Mo  -0.034169  -0.011175  -0.001157  -0.000059  -0.000000   0.000002
    14  S    0.000000   0.000000   0.221038  -0.003802  -0.000072   0.000068
    15  S   -0.000000   0.000000  -0.020476   0.000002  -0.000001  -0.000000
    16  S    0.008868   0.012832   0.000004   0.000000  -0.000000   0.000000
    17  S    0.001298  -0.000028  -0.000030   0.000000  -0.000000  -0.000000
    18  Mo   0.360959   0.269895  -0.000548   0.000039   0.000004   0.000006
    19  S   15.881839   0.019879  -0.000005   0.000000  -0.000000  -0.000000
    20  S    0.019879  15.688112   0.000236  -0.000000   0.000000  -0.000000
    21  Mo  -0.000005   0.000236  13.891983   0.146159  -0.027818  -0.018061
    22  S    0.000000  -0.000000   0.146159  15.250917   0.311310   0.295629
    23  H   -0.000000   0.000000  -0.027818   0.311310   0.581842  -0.021346
    24  H   -0.000000  -0.000000  -0.018061   0.295629  -0.021346   0.606713
 Mulliken charges:
               1
     1  Mo  -0.045080
     2  S    0.122698
     3  S   -0.033936
     4  S    0.259170
     5  S   -0.033423
     6  Mo  -0.297824
     7  S    0.023193
     8  S    0.216749
     9  Mo  -0.315210
    10  S   -0.107678
    11  S   -0.078563
    12  Mo   0.320883
    13  Mo   0.258038
    14  S   -0.045712
    15  S   -0.187437
    16  S   -0.023569
    17  S   -0.174846
    18  Mo   0.224409
    19  S   -0.223212
    20  S   -0.058078
    21  Mo  -0.115218
    22  S    0.025460
    23  H    0.146046
    24  H    0.143138
 Sum of Mulliken charges =  -0.00000
 Mulliken charges with hydrogens summed into heavy atoms:
               1
     1  Mo  -0.045080
     2  S    0.122698
     3  S   -0.033936
     4  S    0.259170
     5  S   -0.033423
     6  Mo  -0.297824
     7  S    0.023193
     8  S    0.216749
     9  Mo  -0.315210
    10  S   -0.107678
    11  S   -0.078563
    12  Mo   0.320883
    13  Mo   0.258038
    14  S   -0.045712
    15  S   -0.187437
    16  S   -0.023569
    17  S   -0.174846
    18  Mo   0.224409
    19  S   -0.223212
    20  S   -0.058078
    21  Mo  -0.115218
    22  S    0.314643
 Electronic spatial extent (au):  <R**2>=         161737.4716
 Charge=             -0.0000 electrons
 Dipole moment (field-independent basis, Debye):
    X=              4.5888    Y=             -3.7976    Z=              8.4387  Tot=             10.3291
 Quadrupole moment (field-independent basis, Debye-Ang):
   XX=           -384.1372   YY=           -372.7759   ZZ=           -159.2945
   XY=             15.9534   XZ=             64.5390   YZ=            -27.6355
 Traceless Quadrupole moment (field-independent basis, Debye-Ang):
   XX=            -78.7346   YY=            -67.3734   ZZ=            146.1080
   XY=             15.9534   XZ=             64.5390   YZ=            -27.6355
 Octapole moment (field-independent basis, Debye-Ang**2):
  XXX=            448.8899  YYY=          -2849.5754  ZZZ=          -7581.8918  XYY=            192.3663
  XXY=          -1010.0680  XXZ=          -3950.4165  XZZ=           1054.9888  YZZ=          -1102.2872
  YYZ=          -3839.1257  XYZ=            172.4107
 Hexadecapole moment (field-independent basis, Debye-Ang**3):
 XXXX=         -22373.7897 YYYY=         -19774.0878 ZZZZ=        -182170.5978 XXXY=           4166.9763
 XXXZ=           2100.5044 YYYX=           4128.7748 YYYZ=         -27893.6388 ZZZX=          14839.9876
 ZZZY=         -27967.5788 XXYY=          -7157.0712 XXZZ=         -45606.5382 YYZZ=         -44308.2260
 XXYZ=          -9824.6837 YYXZ=           1098.4316 ZZXY=           3283.0043
 N-N= 6.470582269732D+03 E-N=-2.810250078088D+04  KE= 6.118126342523D+03
   1 Symmetry operations used in ECPInt.
 ECPInt:  NShTT=    9453 NPrTT=   74512 LenC2=    8250 LenP2D=   39755.
 LDataN:  DoStor=T MaxTD1= 6 Len=  172
 Calling FoFJK, ICntrl=      2127 FMM=F ISym2X=0 I1Cent= 0 IOpClX= 0 NMat=1 NMatS=1 NMatT=0.
 Defaulting to unpruned grid for atomic number  42.
 Defaulting to unpruned grid for atomic number  42.
 Defaulting to unpruned grid for atomic number  42.
 Defaulting to unpruned grid for atomic number  42.
 Defaulting to unpruned grid for atomic number  42.
 Defaulting to unpruned grid for atomic number  42.
 Defaulting to unpruned grid for atomic number  42.
 Defaulting to unpruned grid for atomic number  42.
 Defaulting to unpruned grid for atomic number  42.
 Defaulting to unpruned grid for atomic number  42.
 Defaulting to unpruned grid for atomic number  42.
 Defaulting to unpruned grid for atomic number  42.
 Defaulting to unpruned grid for atomic number  42.
 Defaulting to unpruned grid for atomic number  42.
 Defaulting to unpruned grid for atomic number  42.
 Defaulting to unpruned grid for atomic number  42.
 Defaulting to unpruned grid for atomic number  42.
 Defaulting to unpruned grid for atomic number  42.
 Defaulting to unpruned grid for atomic number  42.
 Defaulting to unpruned grid for atomic number  42.
 Defaulting to unpruned grid for atomic number  42.
 Defaulting to unpruned grid for atomic number  42.
 Defaulting to unpruned grid for atomic number  42.
 Defaulting to unpruned grid for atomic number  42.
 Defaulting to unpruned grid for atomic number  42.
 Defaulting to unpruned grid for atomic number  42.
 Defaulting to unpruned grid for atomic number  42.
 Defaulting to unpruned grid for atomic number  42.
 Defaulting to unpruned grid for atomic number  42.
 Defaulting to unpruned grid for atomic number  42.
 Defaulting to unpruned grid for atomic number  42.
 Defaulting to unpruned grid for atomic number  42.
 Defaulting to unpruned grid for atomic number  42.
 Defaulting to unpruned grid for atomic number  42.
 Defaulting to unpruned grid for atomic number  42.
 Defaulting to unpruned grid for atomic number  42.
 Defaulting to unpruned grid for atomic number  42.
 Defaulting to unpruned grid for atomic number  42.
 Defaulting to unpruned grid for atomic number  42.
 Defaulting to unpruned grid for atomic number  42.
 Defaulting to unpruned grid for atomic number  42.
 Defaulting to unpruned grid for atomic number  42.
 Defaulting to unpruned grid for atomic number  42.
 Defaulting to unpruned grid for atomic number  42.
 Defaulting to unpruned grid for atomic number  42.
 Defaulting to unpruned grid for atomic number  42.
 -------------------------------------------------------------------
 Center     Atomic                   Forces (Hartrees/Bohr)
 Number     Number              X              Y              Z
 -------------------------------------------------------------------
      1       42          -0.000476159    0.000545297    0.001215041
      2       16           0.003410975    0.000116807    0.002626201
      3       16           0.000783927   -0.000337084   -0.000053217
      4       16           0.000160831   -0.000182498    0.000301464
      5       16           0.001274286    0.000266713    0.003527799
      6       42           0.000052199    0.000180446   -0.000044813
      7       16           0.000098695   -0.000044125    0.000269085
      8       16          -0.000129754   -0.000279651   -0.000312451
      9       42           0.000548241    0.001378492   -0.000973429
     10       16           0.000232499   -0.000173927    0.000458448
     11       16          -0.000449337   -0.000238962    0.000063817
     12       42           0.002621374    0.000763818    0.002423290
     13       42          -0.000335388    0.000054518   -0.000404984
     14       16          -0.001234118    0.001526953    0.004650481
     15       16          -0.001363826    0.000714850   -0.000235246
     16       16           0.000059625   -0.000125156    0.000006947
     17       16           0.000120363    0.000022373    0.000390011
     18       42          -0.000574327    0.000174762   -0.000422606
     19       16           0.000411933    0.000070207    0.000133515
     20       16           0.000374189   -0.000218304    0.000023294
     21       42          -0.007218954   -0.007655535   -0.014368611
     22       16           0.000970606    0.002885918    0.001384425
     23        1           0.000338452    0.000122210   -0.000671358
     24        1           0.000323668    0.000431879    0.000012897
 -------------------------------------------------------------------
 Cartesian Forces:  Max     0.014368611 RMS     0.002390503

 GradGradGradGradGradGradGradGradGradGradGradGradGradGradGradGradGradGrad
 Berny optimization.
 FormGI is forming the generalized inverse of G from B-inverse, IUseBI=4.
 Internal  Forces:  Max     0.003510207 RMS     0.000690511
 Search for a local minimum.
 Step number   1 out of a maximum of  144
 All quantities printed in internal units (Hartrees-Bohrs-Radians)
 Mixed Optimization -- En-DIIS/RFO-DIIS
 Second derivative matrix not updated -- first step.
 ITU=  0
     Eigenvalues ---    0.00230   0.01390   0.02112   0.02251   0.02562
     Eigenvalues ---    0.02883   0.03403   0.03561   0.03706   0.04059
     Eigenvalues ---    0.04575   0.04716   0.05075   0.05364   0.05623
     Eigenvalues ---    0.05961   0.06040   0.06551   0.06989   0.07225
     Eigenvalues ---    0.07239   0.07834   0.08258   0.08736   0.08834
     Eigenvalues ---    0.08894   0.09442   0.09758   0.09949   0.10495
     Eigenvalues ---    0.10595   0.11140   0.11415   0.11703   0.12076
     Eigenvalues ---    0.12325   0.12578   0.12763   0.13053   0.13209
     Eigenvalues ---    0.13560   0.13906   0.14149   0.14270   0.14343
     Eigenvalues ---    0.14963   0.15029   0.15446   0.16000   0.16000
     Eigenvalues ---    0.16047   0.16855   0.17183   0.17377   0.17736
     Eigenvalues ---    0.18331   0.18400   0.18873   0.19903   0.20181
     Eigenvalues ---    0.20725   0.25612   0.25614   0.25754   0.26105
     Eigenvalues ---    0.26823
 RFO step:  Lambda=-1.65313890D-03 EMin= 2.30000000D-03
 Linear search not attempted -- first point.
 Iteration  1 RMS(Cart)=  0.01095304 RMS(Int)=  0.00025777
 Iteration  2 RMS(Cart)=  0.00042071 RMS(Int)=  0.00015822
 Iteration  3 RMS(Cart)=  0.00000017 RMS(Int)=  0.00015822
 Variable       Old X    -DE/DX   Delta X   Delta X   Delta X     New X
                                 (Linear)    (Quad)   (Total)
    R1        4.38128   0.00058   0.00000   0.00631   0.00630   4.38758
    R2        4.39253  -0.00056   0.00000  -0.00514  -0.00514   4.38739
    R3        4.46645  -0.00042   0.00000  -0.00280  -0.00280   4.46365
    R4        4.52865   0.00105   0.00000   0.01112   0.01095   4.53960
    R5        5.45272  -0.00037   0.00000  -0.00362  -0.00361   5.44911
    R6        5.10701   0.00021   0.00000   0.00329   0.00332   5.11033
    R7        5.17524  -0.00313   0.00000  -0.03757  -0.03751   5.13773
    R8        4.91348   0.00052   0.00000   0.00388   0.00390   4.91738
    R9        4.52405  -0.00269   0.00000  -0.02354  -0.02347   4.50058
[...]
 0009546,-0.00004997,-0.00477735,0.00203690,-0.00035818,0.00081926,0.00
 052015,0.00052107,-0.00314191,0.00196652,-0.00245264,0.00173774,-0.001
 55739,0.00001663,-0.00510617,0.00075257,-0.00112857,-0.00013816,-0.000
 07970,-0.00001358,0.00017200,0.00004953,-0.00008817,-0.03063288,0.0448
 6971,0.01977886,-0.00011896,-0.00020016,-0.00002396,-0.00004009,0.0000
 0643,0.00001318,0.05700972,0.00013326,0.00061115,-0.00001448,0.0003193
 4,0.00009328,-0.00001970,-0.00015481,0.00007270,-0.00055007,0.00003248
 ,0.00013762,-0.00006739,0.00010312,0.00000293,-0.00007219,-0.00136197,
 -0.00028670,0.00088268,-0.00029287,-0.00401483,0.00063573,0.00327395,-
 0.00093329,0.00380749,0.00080588,-0.00053907,-0.00087544,0.00318806,0.
 00387049,0.00266928,0.00020360,-0.00026342,-0.00002247,-0.00023367,-0.
 00005921,0.00001666,0.03954140,-0.07177786,-0.03440344,0.00009587,0.00
 004507,0.00008069,0.00014676,-0.00007493,-0.00010401,-0.01447389,0.174
 66887,0.00042299,-0.00040012,0.00062004,-0.00003259,0.00083266,-0.0002
 9622,-0.00014908,-0.00011170,-0.00034276,0.00033692,0.00075325,0.00048
 956,-0.00005665,0.00001923,0.00004821,-0.00064805,-0.00072438,-0.00261
 648,0.00067658,-0.00108611,0.00289721,-0.00152891,0.00170140,-0.001256
 61,0.00068062,-0.00047212,-0.00134897,0.00665253,0.00335025,0.00225730
 ,-0.00013983,0.00013135,-0.00004771,-0.00000797,-0.00011000,0.00034122
 ,0.01177745,-0.03320003,-0.02871038,0.00020175,0.00030575,-0.00001966,
 0.00006481,-0.00003163,-0.00002581,-0.02760711,0.00815835,0.05141566,-
 0.00006675,0.00021795,-0.00010503,-0.00002220,-0.00004414,0.00009918,-
 0.00000967,0.00004318,-0.00001531,0.00002212,-0.00003907,0.00005126,0.
 00000158,0.00003638,-0.00002782,0.00001436,-0.00024587,-0.00040227,0.0
 0146600,0.00052923,0.00050365,0.00043023,0.00021727,-0.00030666,0.0004
 6121,-0.00072345,0.00038698,-0.00225272,0.00067060,-0.00643762,-0.0001
 4055,-0.00006139,0.00005437,0.00016464,-0.00011019,-0.00003859,-0.0438
 3725,0.00371709,-0.07416888,-0.00004824,-0.00005295,0.00002574,-0.0001
 3211,0.00012257,0.00007603,0.00241197,-0.00157312,0.00429900,0.0383500
 9,-0.00013091,-0.00034836,0.00014532,0.00021336,-0.00007346,-0.0001493
 4,-0.00001772,0.00004138,-0.00006257,0.00012229,0.00002723,-0.00002300
 ,0.00000243,0.00000733,-0.00009685,0.00018383,0.00011172,-0.00020072,0
 .00350248,0.00255754,0.00520045,-0.00006641,0.00007101,0.00013502,-0.0
 0051038,0.00082171,-0.00015597,0.00192915,-0.00028284,-0.00128459,0.00
 032779,-0.00031919,0.00020459,-0.00005863,0.00004704,-0.00021741,0.002
 83167,-0.01864757,0.01069337,0.00003414,0.00001859,0.00005940,0.000032
 39,0.00000293,-0.00002423,-0.00384710,0.00271405,-0.00625915,-0.003994
 01,0.01320499,0.00019839,-0.00025239,-0.00019945,0.00027126,-0.0002532
 6,0.00007090,-0.00001809,0.00028083,-0.00021947,0.00008143,0.00005915,
 0.00000213,-0.00002122,0.00009149,-0.00015793,0.00056019,0.00032173,0.
 00026044,0.00145968,0.00375652,-0.00433618,0.00029919,0.00058100,0.000
 27741,0.00109134,-0.00171733,0.00172427,-0.01256393,-0.00073142,0.0034
 1403,-0.00050091,0.00039662,-0.00027386,0.00037808,-0.00043621,-0.0003
 0804,-0.07163223,0.01083840,-0.26749181,-0.00028331,-0.00036926,0.0001
 0049,-0.00052964,0.00044283,0.00035654,0.00545618,-0.00445932,-0.00779
 329,0.07611341,-0.00771437,0.27239676,0.00014931,0.00084294,-0.0000196
 8,-0.00040604,0.00038704,-0.00019037,-0.00064743,0.00032270,-0.0005462
 9,-0.00076062,0.00130628,-0.00136031,0.00039376,0.00000700,-0.00012930
 ,-0.00803512,0.00638016,-0.00685393,-0.04739605,0.04306423,0.02737299,
 -0.00269915,0.00042614,0.00087059,0.00146706,-0.00393426,0.00309198,-0
 .00113958,0.00147503,-0.00064135,-0.00008727,-0.00005635,-0.00053615,-
 0.00046128,0.00040410,0.00087380,-0.04045950,-0.00413615,0.02742402,0.
 00017510,0.00022318,0.00000408,0.00049338,-0.00040091,-0.00040458,-0.0
 1697245,-0.02510084,0.00150780,0.00310335,-0.00051357,-0.00172263,0.38
 784801,-0.00077478,-0.00218641,0.00089763,0.00008775,0.00048434,-0.000
 54068,-0.00000368,0.00076063,0.00032211,0.00035982,0.00113044,0.000482
 72,-0.00034795,0.00000947,0.00013030,0.00990859,-0.00743070,0.00742862
 ,0.05230902,-0.06334761,-0.04275040,-0.00127516,-0.00128905,-0.0001915
 1,-0.00423932,0.00521670,-0.00458179,0.00634539,0.00177610,0.00130776,
 0.00042838,-0.00051246,0.00070153,0.00020812,-0.00008662,-0.00032933,-
 0.01605849,-0.00115567,0.01136599,0.00023321,0.00033791,-0.00001625,-0
 .00007060,0.00012931,0.00009490,-0.02340234,-0.10817738,0.02826208,0.0
 0069559,-0.00028218,-0.00225747,0.00799135,0.21457995,-0.00006997,0.00
 062510,-0.00103190,-0.00067776,-0.00056507,0.00017737,0.00060870,0.000
 88764,-0.00152537,0.00060096,-0.00188184,-0.00264309,0.00026121,-0.000
 07879,-0.00014867,-0.02059675,0.01103825,0.01466107,0.02546934,-0.0295
 2953,-0.03400484,-0.00204065,-0.00015997,0.00058455,0.00507198,-0.0026
 2289,0.00283021,-0.00347301,-0.00146198,0.00273339,0.00038737,-0.00046
 955,-0.00083354,-0.00098053,0.00063493,-0.00034862,0.03198049,0.002262
 05,-0.03874935,-0.00009764,-0.00026379,0.00018424,0.00034155,-0.000279
 56,-0.00026844,-0.00284398,0.01820880,-0.01386849,-0.00079135,-0.00041
 881,0.00159008,0.04332105,-0.01379685,0.26662520,-0.00025036,-0.000275
 30,0.00014227,0.00008234,-0.00029002,0.00013100,0.00026527,-0.00002178
 ,0.00003634,-0.00002058,0.00011179,0.00031504,-0.00007006,0.00011208,0
 .00004477,-0.00137381,0.00012462,-0.00172366,-0.00414572,0.00138954,-0
 .00053047,0.00108899,0.00014495,0.00012702,0.00054508,0.00054661,-0.00
 027465,-0.00088125,0.00005068,-0.00047493,-0.00056061,0.00046246,-0.00
 001874,0.00053821,-0.00056470,-0.00003998,0.00172931,-0.00141274,-0.00
 144114,-0.00023039,-0.00027167,-0.00005791,-0.00045998,0.00037986,0.00
 030768,-0.00400804,-0.00691383,0.00413399,0.00069843,0.00026948,0.0019
 3824,-0.25318901,-0.03348620,-0.07149582,0.25879319,0.00028538,-0.0000
 7476,-0.00005434,-0.00004232,0.00001427,0.00002945,0.00014172,0.000026
 94,0.00001965,0.00001264,-0.00023383,0.00018790,-0.00001426,-0.0000102
 8,0.00001228,-0.00134921,0.00175918,-0.00154913,0.00109016,0.00369715,
 0.00433906,0.00000390,0.00021250,-0.00033738,0.00041381,-0.00036454,0.
 00065347,-0.00025030,-0.00028243,0.00002646,-0.00007493,0.00012550,-0.
 00012064,-0.00000259,-0.00005916,-0.00002144,0.00042077,0.00010357,-0.
 00137174,-0.00005125,-0.00004464,0.00000969,-0.00006704,0.00004412,0.0
 0004095,-0.00670839,0.00224561,-0.00320377,0.00022949,0.00024006,0.000
 55628,-0.02922164,-0.02437240,-0.00794669,0.03431306,0.01716951,-0.000
 23821,0.00009468,0.00001140,0.00005135,-0.00011484,0.00005186,0.000060
 28,-0.00001779,-0.00006955,-0.00009262,0.00002168,0.00024593,0.0000101
 1,0.00001430,0.00001491,0.00043764,-0.00024287,-0.00038444,0.00056414,
 0.00147850,0.00257138,0.00050011,-0.00010065,-0.00008120,0.00025904,0.
 00009474,0.00039889,-0.00055269,0.00026932,-0.00087809,-0.00026633,0.0
 0019244,-0.00002943,0.00015093,-0.00023524,0.00000430,-0.00239345,-0.0
 0036255,0.00359194,-0.00008242,-0.00010437,-0.00002215,-0.00016304,0.0
 0013748,0.00013038,0.00185703,-0.00112471,0.00096909,0.00087323,0.0003
 4372,0.00097649,-0.07568932,-0.00815031,-0.04614355,0.07978765,0.00930
 269,0.03757080,0.00034861,-0.00018205,0.00218929,0.00048807,-0.0000825
 3,-0.00005017,-0.00504201,0.00281811,-0.00200663,-0.00404779,0.0050410
 1,0.00203379,-0.00008166,0.00019342,-0.00009998,-0.02826756,-0.0016847
 4,0.00604644,0.00230825,-0.00326945,0.00581111,-0.00863417,-0.00335119
 ,0.00203681,-0.00297567,0.00295893,-0.00242318,0.00376085,-0.00074468,
 0.00193735,-0.00116976,0.00036644,0.00033360,0.00075447,-0.00062532,0.
 00059217,0.00067732,0.00232547,0.00011449,0.00002988,0.00003967,-0.000
 11999,-0.00032339,0.00029632,0.00019212,0.00228833,0.00232624,-0.00033
 961,-0.00067104,-0.00021022,-0.00049649,-0.02161765,0.00147994,-0.0053
 5128,0.00146859,0.00088223,-0.00511252,0.06093657,-0.00112851,0.001734
 51,-0.00017600,-0.00053637,-0.00002378,-0.00010126,0.00429730,-0.00209
 573,0.00090259,-0.00004445,-0.00028747,-0.00028514,0.00010115,-0.00015
 368,-0.00008757,0.00352039,-0.01326881,0.00074858,-0.00169122,0.004268
 42,-0.00446868,-0.00565410,-0.00026076,0.00175718,0.00568507,0.0012079
 4,0.00012116,-0.00257631,-0.00060162,-0.00111447,-0.00027026,0.0001423
 2,0.00017408,-0.00020687,0.00009952,-0.00000909,-0.00016225,0.00039468
 ,-0.00000547,-0.00006502,0.00009193,-0.00000280,0.00015253,-0.00012278
 ,-0.00007444,0.00022683,0.00167309,0.00256428,0.00033291,-0.00008421,0
 .00025514,0.00075332,-0.01505049,0.02499358,0.00513642,-0.00029024,-0.
 00161641,-0.00813465,0.02269822,0.00215569,-0.00023469,-0.00079038,0.0
 0020729,0.00041428,0.00036855,-0.00542973,0.00196096,0.00099308,-0.000
 43414,0.00203107,0.00173605,0.00035789,0.00000425,0.00000951,0.0249430
 2,-0.00807512,-0.02543955,0.00468838,-0.00605195,-0.00654996,0.0019691
 4,0.00385248,0.00033269,-0.00052386,-0.00215249,0.00121692,0.00354443,
 -0.00077432,0.00183882,-0.00064519,0.00103662,-0.00035946,-0.00019682,
 -0.00063926,0.00071127,-0.00463392,0.00369540,0.00219860,0.00007620,0.
 00020938,-0.00004098,-0.00006948,0.00009932,-0.00001315,0.00673407,0.0
 0725845,-0.00210477,-0.00015813,-0.00020697,-0.00067997,-0.01596126,0.
 02213781,-0.15031351,-0.01105109,-0.00060202,0.00100502,-0.00541388,-0
 .02361458,0.17617608,-0.04553909,-0.00372898,-0.01263095,-0.05253672,0
 .04948818,-0.00235178,-0.00262559,0.00373198,0.00275297,-0.00117027,-0
 .00013665,-0.00429795,-0.00825209,-0.02891279,-0.02082472,-0.00027069,
 -0.00148517,-0.00095346,-0.00002503,0.00039524,-0.00047878,-0.00030891
 ,0.00021300,-0.00017272,-0.00491092,0.00066652,-0.00213762,0.00079785,
 -0.00066103,-0.00013143,0.00662502,-0.00263572,-0.00181950,-0.00861925
 ,0.00145953,0.01229335,-0.00068683,0.00032829,0.00036110,-0.07241100,-
 0.03915340,0.03871101,0.00195473,0.00183116,0.00037503,0.00013763,-0.0
 0004161,-0.00016454,0.00002969,-0.00009985,-0.00019062,0.00033272,-0.0
 0037419,0.00038097,-0.00010545,-0.00002114,0.00002036,-0.00023290,0.00
 029449,-0.00015490,0.19998879,0.00950808,-0.00715236,0.00064746,0.0400
 2210,-0.03796655,0.00038703,-0.00042988,0.00055440,0.00032557,-0.00209
 478,-0.00068573,-0.00438536,-0.03016661,-0.07364144,-0.04232630,-0.001
 71202,0.00149692,-0.00098488,-0.00034359,0.00053251,0.00020576,-0.0006
 2524,0.00004952,0.00055950,0.00773552,-0.00401726,0.00986506,0.0014498
 0,-0.00074357,0.00025964,-0.00655904,0.00470545,-0.00160285,0.01036074
 ,-0.00762925,-0.00437528,-0.00118843,-0.00105895,0.00080367,-0.0411417
 4,-0.03335226,0.02575779,0.00154419,0.00057340,-0.00135669,0.00010007,
 -0.00002695,-0.00052745,0.00003636,0.00014653,0.00066604,-0.00027171,-
 0.00056932,0.00088925,0.00024535,0.00010792,0.00013308,-0.00050424,-0.
 00006112,-0.00037584,0.01893712,0.18142116,-0.01753238,-0.00381564,-0.
 03709534,-0.00299483,0.01138713,-0.01422881,-0.00332183,-0.00012042,0.
 00633056,-0.00116008,0.00073163,0.00244632,-0.01100320,-0.04295590,-0.
 02558866,0.00036325,-0.00027469,-0.00250646,-0.00075028,0.00064668,0.0
 0004198,-0.00020962,-0.00008481,-0.00023359,-0.00529372,0.00171710,0.0
 0832531,0.00111528,0.00113295,-0.00056562,-0.00119079,-0.00188896,0.00
 043867,-0.00950204,-0.00796259,-0.08248490,-0.00097548,-0.00031837,0.0
 0046420,0.04477006,0.03136378,-0.02885204,0.00789874,-0.00495777,0.002
 05558,0.00036769,0.00004539,-0.00054282,-0.00006323,0.00002891,0.00012
 412,-0.00023954,-0.00050334,0.00049090,-0.00001549,-0.00000311,0.00000
 734,0.00013923,0.00006679,-0.00023593,-0.00594038,0.00073957,0.2017866
 0,-0.00045037,0.00158465,-0.00317781,0.00062409,0.00087890,-0.00145373
 ,-0.00027259,-0.00001670,0.00007213,0.00000344,-0.00031636,0.00024044,
 0.00048859,-0.00126776,-0.00063662,-0.00021240,0.00009103,0.00049423,-
 0.00005731,0.00001911,0.00009077,-0.00001999,-0.00013727,-0.00003428,0
 .00054724,-0.00017458,0.00003956,0.00025208,0.00008224,0.00022553,-0.0
 0052682,0.00036457,-0.00023670,0.00185964,0.00020124,0.00461678,-0.000
 22037,-0.00012559,-0.00002773,0.00205827,0.00069409,-0.00189846,-0.000
 53497,-0.00015436,-0.00052281,0.00003233,-0.00000692,-0.00006634,0.000
 03067,0.00002120,0.00014950,-0.00013555,-0.00003270,-0.00006187,0.0001
 1183,0.00001589,0.00003220,0.00004538,-0.00005623,-0.00001787,-0.01639
 399,-0.00390191,0.00886217,0.28293879,-0.00026334,0.00013690,-0.000086
 97,-0.00038840,-0.00107138,0.00155715,0.00028953,-0.00071897,0.0004493
 2,0.00000529,0.00028327,0.00016523,0.00091272,0.00153598,-0.00212523,0
 .00058739,0.00028046,-0.00037389,-0.00004983,0.00003499,-0.00003923,0.
 00019493,0.00011429,0.00000209,-0.00006121,0.00006628,-0.00156151,-0.0
 0047460,0.00009699,0.00006167,-0.00042981,0.00023461,0.00012355,-0.001
 73046,0.00105114,0.00240400,0.00016133,-0.00007172,-0.00005548,-0.0007
 2761,0.00015763,0.00225956,0.00008886,-0.00002658,-0.00009988,-0.00001
 107,0.00005858,0.00008282,-0.00001667,0.00004768,-0.00014060,0.0001818
 9,0.00003633,-0.00002517,-0.00017063,-0.00003336,-0.00005915,0.0000139
 9,0.00000768,0.00006737,-0.00143191,-0.01705166,0.00782404,0.00948928,
 0.29918103,-0.00192803,-0.00179785,0.00379208,-0.00070309,0.00125876,-
 0.00005087,0.00009323,0.00088355,-0.00107703,-0.00028353,-0.00054780,-
 0.00110587,0.00121308,0.00307293,-0.00715766,-0.00058830,-0.00037881,0
 .00049511,0.00002132,-0.00001332,0.00001597,-0.00025243,0.00001878,0.0
 0009372,0.00197411,-0.00040709,0.00136708,0.00052084,-0.00064513,0.000
 31505,-0.00026831,0.00077920,-0.00001007,0.00194538,0.00001056,-0.0001
 6607,-0.00051400,-0.00010429,0.00003761,0.00422020,0.00139701,-0.00147
 298,-0.00056290,0.00005418,0.00033674,0.00000180,-0.00009042,-0.000111
 06,0.00004810,0.00001556,0.00025957,-0.00024054,-0.00003262,0.00002243
 ,0.00024350,0.00005018,0.00009640,-0.00003307,-0.00001769,-0.00011815,
 0.00054095,0.00196136,-0.02686980,0.03937868,0.01191661,0.05091556,-0.
 00034769,0.00039267,-0.00070287,-0.00001681,-0.00009548,0.00050901,-0.
 00006435,-0.00001631,-0.00008963,0.00000764,-0.00007671,-0.00008167,0.
 00014714,-0.00021929,0.00013773,-0.00012652,-0.00000527,-0.00005880,0.
 00002200,0.00001246,-0.00001290,-0.00006491,-0.00002040,0.00000404,-0.
 00020939,0.00010998,0.00052617,0.00009758,-0.00008335,-0.00001157,0.00
 014304,-0.00017808,0.00004342,-0.00021993,-0.00011886,0.00010144,-0.00
 005585,0.00004307,0.00003183,-0.00025644,0.00000455,0.00043658,0.00000
 467,0.00010318,0.00003849,-0.00000114,-0.00001596,-0.00001635,-0.00000
 108,-0.00001195,-0.00001529,0.00001621,-0.00000110,0.00003742,-0.00000
 341,-0.00000065,-0.00000046,-0.00001705,0.00002198,-0.00000591,0.00419
 210,0.00079752,-0.00418195,-0.15793778,0.09372254,-0.01888620,0.170159
 59,-0.00002895,-0.00028722,0.00090769,-0.00027398,0.00043746,-0.000082
 38,-0.00006056,0.00032296,-0.00022608,-0.00002348,-0.00007218,-0.00011
 799,-0.00013868,0.00055197,-0.00083783,-0.00006738,-0.00018113,0.00020
 100,0.00000866,-0.00002746,0.00001635,-0.00005094,-0.00006824,-0.00000
 990,0.00019172,-0.00007487,0.00036296,0.00014022,-0.00003710,-0.000003
 49,0.00033397,-0.00023359,-0.00006194,-0.00072451,0.00032965,-0.000859
 28,-0.00004820,0.00004116,-0.00002448,0.00006412,-0.00019015,-0.000115
 73,-0.00007561,0.00027442,0.00024037,0.00000278,-0.00002387,-0.0000122
 0,0.00001395,-0.00001719,0.00007434,-0.00010346,-0.00000086,-0.0000443
 9,0.00009590,0.00001658,0.00003603,0.00002925,-0.00001825,-0.00002141,
 0.00241823,-0.00409171,0.00474336,0.11909233,-0.11502167,0.01515202,-0
 .10532290,0.10811445,-0.00005081,0.00115251,-0.00151173,0.00053375,-0.
 00014369,-0.00036452,-0.00019435,-0.00016933,0.00003810,0.00007968,-0.
 00003753,0.00021909,-0.00015448,-0.00136843,0.00053803,-0.00009110,0.0
 0009309,0.00006298,0.00000750,0.00000760,0.00002042,-0.00001506,-0.000
 06425,-0.00005219,-0.00044246,0.00007003,0.00023532,0.00003110,0.00012
 027,-0.00006254,0.00001539,-0.00014017,-0.00003213,0.00053918,0.000177
 45,0.00101302,0.00004435,0.00002926,0.00001936,0.00072884,-0.00018029,
 -0.00049256,0.00004677,-0.00022798,-0.00026941,0.00000199,0.00000330,-
 0.00000559,-0.00000616,-0.00001177,-0.00003420,0.00002630,0.00001368,0
 .00000564,-0.00002735,-0.00000749,-0.00001612,-0.00000408,0.00000684,0
 .00001782,-0.00699139,0.00626333,-0.00214129,-0.01256804,0.00994983,-0
 .00969879,0.02258130,-0.01732185,0.01365559,0.00038039,0.00057535,-0.0
 0113018,-0.00014688,0.00004312,0.00017093,-0.00004805,-0.00024859,0.00
 026047,0.00000918,-0.00000595,0.00002195,-0.00016710,0.00055730,0.0001
 6342,-0.00009292,0.00016117,-0.00013068,0.00004566,0.00000004,0.000023
 23,-0.00005304,-0.00003393,-0.00002565,-0.00008084,-0.00004381,-0.0000
 2851,-0.00001877,0.00004388,-0.00002051,-0.00002626,0.00001098,0.00003
 346,-0.00004905,0.00045940,-0.00053306,0.00003474,0.00003854,0.0000023
 5,0.00007829,-0.00020962,-0.00000949,0.00002698,-0.00012690,0.00005222
 ,-0.00000155,-0.00000048,0.00000257,-0.00000272,-0.00000947,-0.0000225
 3,0.00002781,0.00001933,0.00001956,-0.00002257,-0.00000534,-0.00001302
 ,-0.00002566,0.00000385,0.00002007,0.00003023,-0.00179768,0.00085843,-
 0.11223020,-0.09989221,-0.02594080,-0.01546762,-0.01547249,-0.00409085
 ,0.12779996,-0.00066041,-0.00034278,-0.00007854,0.00066263,-0.00047083
 ,-0.00020996,0.00010289,0.00013313,-0.00039506,0.00001269,-0.00003473,
 0.00011897,-0.00018531,0.00028981,0.00010874,-0.00021917,0.00003440,-0
 .00005452,0.00000267,-0.00000304,0.00001000,-0.00001696,0.00002197,-0.
 00000965,-0.00048196,0.00024033,0.00035000,0.00015108,-0.00008555,0.00
 000723,0.00007430,-0.00012606,0.00004721,0.00102069,-0.00009785,0.0005
 4193,-0.00007034,0.00002063,0.00001417,0.00052615,0.00023389,-0.000549
 05,-0.00040568,0.00018184,-0.00010213,0.00000645,-0.00001593,-0.000022
 74,-0.00000172,-0.00000479,0.00001123,-0.00002648,-0.00000003,0.000005
 27,0.00002408,0.00000274,0.00001021,0.00001805,0.00000066,-0.00001874,
 -0.00108134,-0.00153970,0.00245828,-0.12634417,-0.16932849,-0.03253569
 ,0.01095835,0.01025682,0.00178559,0.11593350,0.16063356,0.00135825,0.0
 0053802,-0.00054345,-0.00006040,-0.00036966,0.00017576,0.00018021,-0.0
 0024845,0.00067503,0.00005370,0.00028846,0.00016188,-0.00080913,-0.000
 74796,0.00075854,0.00031756,0.00006984,-0.00037837,0.00000467,-0.00000
 501,-0.00000638,0.00012936,0.00003618,-0.00000948,-0.00047989,0.000105
 66,-0.00098704,-0.00025157,0.00021365,-0.00007913,0.00016161,-0.000170
 45,0.00003490,-0.00016447,0.00020624,-0.00153043,0.00017654,0.00003242
 ,-0.00006378,-0.00106205,-0.00059944,-0.00029751,0.00019861,-0.0000507
 6,0.00004615,0.00000800,0.00003681,0.00005234,-0.00000989,-0.00000056,
 -0.00005901,0.00004264,0.00000544,-0.00002571,-0.00005627,-0.00001030,
 -0.00002161,0.00002449,-0.00001661,0.00004143,0.00380501,0.00647054,-0
 .00116632,-0.03349973,-0.03229613,-0.00990897,-0.00038383,-0.00199517,
 -0.00114433,0.03031658,0.02850727,0.01427549\\-0.00000940,-0.00001732,
 -0.00000033,-0.00001672,-0.00000313,0.00001899,-0.00000530,-0.00000303
 ,-0.00000394,0.00000432,0.00000180,-0.00000525,-0.00000690,-0.00001678
 ,0.00002390,0.00000980,0.00001528,0.00003868,0.00000911,0.00000058,-0.
 00000306,0.00000906,0.00000602,-0.00000275,0.00000196,-0.00000608,0.00
 000684,-0.00001048,-0.00000851,0.00000971,0.00000809,0.00001373,-0.000
 00762,-0.00001014,-0.00000363,-0.00000975,-0.00001809,-0.00000245,-0.0
 0002193,0.00000479,0.00000370,0.00000349,0.00000174,0.00000299,0.00000
 232,0.00000858,0.00000069,0.00000115,0.00000282,0.00000258,-0.00000219
 ,-0.00000118,-0.00000631,0.00000446,0.00000157,0.00000364,-0.00000369,
 0.00000392,-0.00000126,-0.00000957,0.00003191,0.00000702,-0.00001985,-
 0.00002671,0.00002294,-0.00001284,0.00000411,-0.00000969,-0.00000282,0
 .00000314,-0.00000278,-0.00000394\\\@
 The archive entry for this job was punched.


 DEPRESSION IS WAITING FOR YOUR SHIP TO COME IN,
 AND FINDING OUT IT'S THE TITANIC.
 Job cpu time:       0 days  3 hours 49 minutes 45.1 seconds.
 Elapsed time:       0 days  0 hours  5 minutes  1.5 seconds.
 File lengths (MBytes):  RWF=    742 Int=      0 D2E=      0 Chk=     18 Scr=      2
 Normal termination of Gaussian 16 at Mon Dec 12 10:28:50 2022.
