 Entering Gaussian System, Link 0=g16
 Initial command:
 /home/chesagar/softwares/G16_AVX2//g16/l1.exe "/home/chesagar/scratch/Gau-43715.inp" -scrdir="/home/chesagar/scratch/"
 Entering Link 1 = /home/chesagar/softwares/G16_AVX2//g16/l1.exe PID=     43716.
  
 Copyright (c) 1988-2019, Gaussian, Inc.  All Rights Reserved.
  
 This is part of the Gaussian(R) 16 program.  It is based on
 the Gaussian(R) 09 system (copyright 2009, Gaussian, Inc.),
 the Gaussian(R) 03 system (copyright 2003, Gaussian, Inc.),
 the Gaussian(R) 98 system (copyright 1998, Gaussian, Inc.),
 the Gaussian(R) 94 system (copyright 1995, Gaussian, Inc.),
 the Gaussian 92(TM) system (copyright 1992, Gaussian, Inc.),
 the Gaussian 90(TM) system (copyright 1990, Gaussian, Inc.),
 the Gaussian 88(TM) system (copyright 1988, Gaussian, Inc.),
 the Gaussian 86(TM) system (copyright 1986, Carnegie Mellon
 University), and the Gaussian 82(TM) system (copyright 1983,
 Carnegie Mellon University). Gaussian is a federally registered
 trademark of Gaussian, Inc.
  
 This software contains proprietary and confidential information,
 including trade secrets, belonging to Gaussian, Inc.
  
 This software is provided under written license and may be
 used, copied, transmitted, or stored only in accord with that
 written license.
  
 The following legend is applicable only to US Government
 contracts under FAR:
  
                    RESTRICTED RIGHTS LEGEND
  
 Use, reproduction and disclosure by the US Government is
 subject to restrictions as set forth in subparagraphs (a)
 and (c) of the Commercial Computer Software - Restricted
 Rights clause in FAR 52.227-19.
  
 Gaussian, Inc.
 340 Quinnipiac St., Bldg. 40, Wallingford CT 06492
  
  
 ---------------------------------------------------------------
 Warning -- This program may not be used in any manner that
 competes with the business of Gaussian, Inc. or will provide
 assistance to any competitor of Gaussian, Inc.  The licensee
 of this program is prohibited from giving any competitor of
 Gaussian, Inc. access to this program.  By using this program,
 the user acknowledges that Gaussian, Inc. is engaged in the
 business of creating and licensing software in the field of
 computational chemistry and represents and warrants to the
 licensee that it is not a competitor of Gaussian, Inc. and that
 it will not use this program in any manner prohibited above.
 ---------------------------------------------------------------
  

 Cite this work as:
 Gaussian 16, Revision C.01,
 M. J. Frisch, G. W. Trucks, H. B. Schlegel, G. E. Scuseria, 
 M. A. Robb, J. R. Cheeseman, G. Scalmani, V. Barone, 
 G. A. Petersson, H. Nakatsuji, X. Li, M. Caricato, A. V. Marenich, 
 J. Bloino, B. G. Janesko, R. Gomperts, B. Mennucci, H. P. Hratchian, 
 J. V. Ortiz, A. F. Izmaylov, J. L. Sonnenberg, D. Williams-Young, 
 F. Ding, F. Lipparini, F. Egidi, J. Goings, B. Peng, A. Petrone, 
 T. Henderson, D. Ranasinghe, V. G. Zakrzewski, J. Gao, N. Rega, 
 G. Zheng, W. Liang, M. Hada, M. Ehara, K. Toyota, R. Fukuda, 
 J. Hasegawa, M. Ishida, T. Nakajima, Y. Honda, O. Kitao, H. Nakai, 
 T. Vreven, K. Throssell, J. A. Montgomery, Jr., J. E. Peralta, 
 F. Ogliaro, M. J. Bearpark, J. J. Heyd, E. N. Brothers, K. N. Kudin, 
 V. N. Staroverov, T. A. Keith, R. Kobayashi, J. Normand, 
 K. Raghavachari, A. P. Rendell, J. C. Burant, S. S. Iyengar, 
 J. Tomasi, M. Cossi, J. M. Millam, M. Klene, C. Adamo, R. Cammi, 
 J. W. Ochterski, R. L. Martin, K. Morokuma, O. Farkas, 
 J. B. Foresman, and D. J. Fox, Gaussian, Inc., Wallingford CT, 2019.
 
 ******************************************
 Gaussian 16:  ES64L-G16RevC.01  3-Jul-2019
                 9-Dec-2022 
 ******************************************
 %nprocshared=46
 Will use up to   46 processors via shared memory.
 %mem=100GB
 ---------------------------------------
 # opt freq b3lyp/gen nosymm pseudo=read
 ---------------------------------------
 1/18=20,19=15,26=3,38=1/1,3;
 2/9=110,12=2,15=1,17=6,18=5,40=1/2;
 3/5=7,11=2,16=1,17=8,25=1,30=1,71=1,74=-5/1,2,3;
 4//1;
 5/5=2,38=5/2;
 6/7=2,8=2,9=2,10=2,28=1/1;
 7/30=1/1,2,3,16;
 1/18=20,19=15,26=3/3(2);
 2/9=110,15=1/2;
 99//99;
 2/9=110,15=1/2;
 3/5=7,6=1,11=2,16=1,17=8,25=1,30=1,71=1,74=-5,82=7/1,2,3;
 4/5=5,16=3,69=1/1;
 5/5=2,38=5/2;
 7/30=1/1,2,3,16;
 1/18=20,19=15,26=3/3(-5);
 2/9=110,15=1/2;
 6/7=2,8=2,9=2,10=2,19=2,28=1/1;
 99/9=1/99;
 -------------------
 Title Card Required
 -------------------
 Symbolic Z-matrix:
 Charge =  0 Multiplicity = 1
 42                    0.44835   2.05124   12.16606 
 16                    1.37329   4.09152   12.0606 
 16                   -1.54235   2.3884    13.30603 
 16                   -0.38984   1.42608   10.03206 
 16                    2.04563   0.20142   11.82295 
 42                   -2.06553   2.83831   11.08351 
 16                   -3.37606   1.94139   9.03701 
 16                   -1.48653   4.96907   10.74272 
 42                    0.34581   3.63644   9.95348 
 16                   -0.27371   2.84116   7.6277 
 16                    2.56927   3.17356   9.03964 
 42                    3.50682   1.70667   10.58388 
 42                   -2.70269   3.78383   7.66324 
 16                    4.76893   2.69883   12.273 
 16                    4.83249   0.40836   9.60877 
 16                   -4.0251    5.5326    8.44302 
 16                   -2.18435   3.9213    5.53456 
 42                   -4.80509   3.69706   9.65334 
 16                   -6.81217   3.27787   9.15434 
 16                   -4.35437   3.68496   11.85347 
 42                    3.4562    1.22119   13.49097 
 16                    4.60985  -0.36857   14.28317 
 16                    1.763     2.05431   14.59889 
 42                   -0.54487   4.9872    7.37182 
 6                    -0.85315   6.93596   7.79204 
 6                     1.13932   5.22177   8.43428 
 6                     0.63404   5.33018   5.79573 
 8                    -1.06565   8.04522   8.03332 
 8                     1.32678   5.48445   4.88418 
 8                     2.14792   5.47446   8.95159 
 

 GradGradGradGradGradGradGradGradGradGradGradGradGradGradGradGradGradGrad
 Berny optimization.
 Initialization pass.
                           ----------------------------
                           !    Initial Parameters    !
                           ! (Angstroms and Degrees)  !
 --------------------------                            --------------------------
 ! Name  Definition              Value          Derivative Info.                !
 --------------------------------------------------------------------------------
 ! R1    R(1,2)                  2.2426         estimate D2E/DX2                !
 ! R2    R(1,3)                  2.3186         estimate D2E/DX2                !
 ! R3    R(1,4)                  2.3764         estimate D2E/DX2                !
 ! R4    R(1,5)                  2.468          estimate D2E/DX2                !
 ! R5    R(1,6)                  2.848          estimate D2E/DX2                !
 ! R6    R(1,9)                  2.7238         estimate D2E/DX2                !
 ! R7    R(2,9)                  2.388          estimate D2E/DX2                !
 ! R8    R(3,6)                  2.3272         estimate D2E/DX2                !
 ! R9    R(4,6)                  2.4306         estimate D2E/DX2                !
 ! R10   R(4,9)                  2.3309         estimate D2E/DX2                !
 ! R11   R(5,12)                 2.4364         estimate D2E/DX2                !
 ! R12   R(5,21)                 2.4108         estimate D2E/DX2                !
 ! R13   R(6,7)                  2.5904         estimate D2E/DX2                !
 ! R14   R(6,8)                  2.2342         estimate D2E/DX2                !
 ! R15   R(6,9)                  2.78           estimate D2E/DX2                !
 ! R16   R(6,20)                 2.559          estimate D2E/DX2                !
 ! R17   R(7,13)                 2.3948         estimate D2E/DX2                !
 ! R18   R(7,18)                 2.3461         estimate D2E/DX2                !
 ! R19   R(8,9)                  2.3992         estimate D2E/DX2                !
 ! R20   R(9,10)                 2.5349         estimate D2E/DX2                !
 ! R21   R(9,11)                 2.4481         estimate D2E/DX2                !
 ! R22   R(9,24)                 3.0468         estimate D2E/DX2                !
 ! R23   R(9,26)                 2.3347         estimate D2E/DX2                !
 ! R24   R(10,13)                2.6057         estimate D2E/DX2                !
 ! R25   R(10,24)                2.1782         estimate D2E/DX2                !
 ! R26   R(11,12)                2.3271         estimate D2E/DX2                !
 ! R27   R(12,14)                2.3303         estimate D2E/DX2                !
 ! R28   R(12,15)                2.0961         estimate D2E/DX2                !
 ! R29   R(12,21)                2.9478         estimate D2E/DX2                !
 ! R30   R(13,16)                2.327          estimate D2E/DX2                !
 ! R31   R(13,17)                2.1952         estimate D2E/DX2                !
 ! R32   R(13,18)                2.8962         estimate D2E/DX2                !
 ! R33   R(13,24)                2.4878         estimate D2E/DX2                !
 ! R34   R(14,21)                2.3217         estimate D2E/DX2                !
 ! R35   R(16,18)                2.3329         estimate D2E/DX2                !
 ! R36   R(17,24)                2.6832         estimate D2E/DX2                !
 ! R37   R(18,19)                2.1102         estimate D2E/DX2                !
 ! R38   R(18,20)                2.2459         estimate D2E/DX2                !
 ! R39   R(21,22)                2.118          estimate D2E/DX2                !
 ! R40   R(21,23)                2.1883         estimate D2E/DX2                !
 ! R41   R(24,25)                2.0173         estimate D2E/DX2                !
 ! R42   R(24,26)                2.0051         estimate D2E/DX2                !
 ! R43   R(24,27)                1.9979         estimate D2E/DX2                !
 ! R44   R(25,28)                1.1549         estimate D2E/DX2                !
 ! R45   R(26,30)                1.1614         estimate D2E/DX2                !
 ! R46   R(27,29)                1.1553         estimate D2E/DX2                !
 ! A1    A(2,1,3)              104.1778         estimate D2E/DX2                !
 ! A2    A(2,1,4)              110.0342         estimate D2E/DX2                !
 ! A3    A(2,1,5)              114.1065         estimate D2E/DX2                !
 ! A4    A(2,1,6)               95.4372         estimate D2E/DX2                !
 ! A5    A(3,1,4)              100.191          estimate D2E/DX2                !
 ! A6    A(3,1,5)              137.1392         estimate D2E/DX2                !
 ! A7    A(3,1,9)              106.4056         estimate D2E/DX2                !
 ! A8    A(4,1,5)               84.6209         estimate D2E/DX2                !
 ! A9    A(5,1,6)              136.5169         estimate D2E/DX2                !
 ! A10   A(5,1,9)              110.3437         estimate D2E/DX2                !
 ! A11   A(1,5,12)              89.7581         estimate D2E/DX2                !
 ! A12   A(1,5,21)              88.0193         estimate D2E/DX2                !
 ! A13   A(1,6,7)              130.6308         estimate D2E/DX2                !
 ! A14   A(1,6,8)               95.3245         estimate D2E/DX2                !
 ! A15   A(1,6,20)             140.0468         estimate D2E/DX2                !
 ! A16   A(3,6,4)               98.3845         estimate D2E/DX2                !
 ! A17   A(3,6,7)              143.255          estimate D2E/DX2                !
 ! A18   A(3,6,8)              105.7712         estimate D2E/DX2                !
 ! A19   A(3,6,9)              104.401          estimate D2E/DX2                !
 ! A20   A(3,6,20)              88.7218         estimate D2E/DX2                !
 ! A21   A(4,6,7)               78.8048         estimate D2E/DX2                !
 ! A22   A(4,6,8)              108.0277         estimate D2E/DX2                !
 ! A23   A(4,6,20)             159.8872         estimate D2E/DX2                !
 ! A24   A(7,6,8)              109.9271         estimate D2E/DX2                !
 ! A25   A(7,6,9)              102.5385         estimate D2E/DX2                !
 ! A26   A(7,6,20)              84.2468         estimate D2E/DX2                !
 ! A27   A(8,6,20)              87.8312         estimate D2E/DX2                !
 ! A28   A(9,6,20)             143.43           estimate D2E/DX2                !
 ! A29   A(6,7,13)              92.554          estimate D2E/DX2                !
 ! A30   A(6,7,18)              80.8807         estimate D2E/DX2                !
 ! A31   A(1,9,8)               94.8643         estimate D2E/DX2                !
 ! A32   A(1,9,10)             124.885          estimate D2E/DX2                !
 ! A33   A(1,9,11)              99.1488         estimate D2E/DX2                !
 ! A34   A(1,9,24)             163.2045         estimate D2E/DX2                !
 ! A35   A(1,9,26)             155.6398         estimate D2E/DX2                !
 ! A36   A(2,9,4)              106.6642         estimate D2E/DX2                !
 ! A37   A(2,9,6)               93.9707         estimate D2E/DX2                !
 ! A38   A(2,9,8)               86.1292         estimate D2E/DX2                !
 ! A39   A(2,9,11)              88.5461         estimate D2E/DX2                !
 ! A40   A(2,9,24)             142.088          estimate D2E/DX2                !
 ! A41   A(2,9,26)             107.3686         estimate D2E/DX2                !
 ! A42   A(4,9,8)              105.9378         estimate D2E/DX2                !
 ! A43   A(4,9,10)              69.8965         estimate D2E/DX2                !
 ! A44   A(4,9,11)              96.8882         estimate D2E/DX2                !
 ! A45   A(4,9,24)             110.8987         estimate D2E/DX2                !
 ! A46   A(4,9,26)             140.6345         estimate D2E/DX2                !
 ! A47   A(6,9,10)              94.0654         estimate D2E/DX2                !
 ! A48   A(6,9,11)             152.2816         estimate D2E/DX2                !
 ! A49   A(6,9,24)             102.6001         estimate D2E/DX2                !
 ! A50   A(6,9,26)             138.9592         estimate D2E/DX2                !
 ! A51   A(8,9,10)             106.8239         estimate D2E/DX2                !
 ! A52   A(8,9,11)             157.1408         estimate D2E/DX2                !
 ! A53   A(8,9,24)              79.002          estimate D2E/DX2                !
 ! A54   A(8,9,26)              95.5353         estimate D2E/DX2                !
 ! A55   A(10,9,11)             79.6392         estimate D2E/DX2                !
 ! A56   A(10,9,26)             72.4866         estimate D2E/DX2                !
 ! A57   A(11,9,24)             91.8929         estimate D2E/DX2                !
 ! A58   A(11,9,26)             64.9633         estimate D2E/DX2                !
 ! A59   A(9,10,13)             95.8433         estimate D2E/DX2                !
 ! A60   A(9,11,12)            103.7325         estimate D2E/DX2                !
 ! A61   A(5,12,11)            119.0318         estimate D2E/DX2                !
 ! A62   A(5,12,14)            102.6637         estimate D2E/DX2                !
 ! A63   A(5,12,15)            103.486          estimate D2E/DX2                !
 ! A64   A(11,12,14)           115.5194         estimate D2E/DX2                !
 ! A65   A(11,12,15)           109.665          estimate D2E/DX2                !
 ! A66   A(11,12,21)           138.705          estimate D2E/DX2                !
 ! A67   A(14,12,15)           104.9735         estimate D2E/DX2                !
 ! A68   A(15,12,21)           111.5692         estimate D2E/DX2                !
 ! A69   A(7,13,10)             89.5189         estimate D2E/DX2                !
 ! A70   A(7,13,16)            103.0706         estimate D2E/DX2                !
 ! A71   A(7,13,17)            132.1308         estimate D2E/DX2                !
 ! A72   A(7,13,24)            133.0947         estimate D2E/DX2                !
 ! A73   A(10,13,16)           143.7242         estimate D2E/DX2                !
 ! A74   A(10,13,17)            77.8377         estimate D2E/DX2                !
 ! A75   A(10,13,18)           132.4701         estimate D2E/DX2                !
 ! A76   A(16,13,17)           114.3351         estimate D2E/DX2                !
 ! A77   A(16,13,24)            99.7095         estimate D2E/DX2                !
 ! A78   A(17,13,18)           147.0978         estimate D2E/DX2                !
 ! A79   A(18,13,24)           136.4364         estimate D2E/DX2                !
 ! A80   A(7,18,16)            104.409          estimate D2E/DX2                !
 ! A81   A(7,18,19)            111.6267         estimate D2E/DX2                !
 ! A82   A(7,18,20)             97.5319         estimate D2E/DX2                !
 ! A83   A(13,18,19)           122.269          estimate D2E/DX2                !
 ! A84   A(13,18,20)           121.8449         estimate D2E/DX2                !
 ! A85   A(16,18,19)           110.5862         estimate D2E/DX2                !
 ! A86   A(16,18,20)           116.4474         estimate D2E/DX2                !
 ! A87   A(19,18,20)           114.927          estimate D2E/DX2                !
 ! A88   A(6,20,18)             83.4846         estimate D2E/DX2                !
 ! A89   A(5,21,14)            103.7144         estimate D2E/DX2                !
 ! A90   A(5,21,22)            105.0696         estimate D2E/DX2                !
 ! A91   A(5,21,23)             93.3606         estimate D2E/DX2                !
 ! A92   A(12,21,22)           118.8906         estimate D2E/DX2                !
 ! A93   A(12,21,23)           116.7369         estimate D2E/DX2                !
 ! A94   A(14,21,22)           111.467          estimate D2E/DX2                !
 ! A95   A(14,21,23)           117.4389         estimate D2E/DX2                !
 ! A96   A(22,21,23)           121.1889         estimate D2E/DX2                !
 ! A97   A(9,24,13)             86.5518         estimate D2E/DX2                !
 ! A98   A(9,24,17)            125.6409         estimate D2E/DX2                !
 ! A99   A(9,24,25)            107.2445         estimate D2E/DX2                !
 ! A100  A(9,24,27)            124.8943         estimate D2E/DX2                !
 ! A101  A(10,24,17)            76.4152         estimate D2E/DX2                !
 ! A102  A(10,24,25)           161.1459         estimate D2E/DX2                !
 ! A103  A(10,24,26)            87.0452         estimate D2E/DX2                !
 ! A104  A(10,24,27)           100.8569         estimate D2E/DX2                !
 ! A105  A(13,24,25)           108.0789         estimate D2E/DX2                !
 ! A106  A(13,24,26)           136.3081         estimate D2E/DX2                !
 ! A107  A(13,24,27)           133.4133         estimate D2E/DX2                !
 ! A108  A(17,24,25)           115.6596         estimate D2E/DX2                !
 ! A109  A(17,24,26)           157.2991         estimate D2E/DX2                !
 ! A110  A(17,24,27)            83.6025         estimate D2E/DX2                !
 ! A111  A(25,24,26)            84.5466         estimate D2E/DX2                !
 ! A112  A(25,24,27)            95.0871         estimate D2E/DX2                !
 ! A113  A(26,24,27)            84.3928         estimate D2E/DX2                !
 ! A114  A(9,26,30)             98.8048         estimate D2E/DX2                !
 ! A115  L(2,9,10,4,-1)        176.5607         estimate D2E/DX2                !
 ! A116  L(24,25,28,8,-1)      179.4537         estimate D2E/DX2                !
 ! A117  L(24,26,30,1,-1)      187.6575         estimate D2E/DX2                !
 ! A118  L(24,27,29,15,-1)     178.2414         estimate D2E/DX2                !
 ! A119  L(2,9,10,4,-2)        193.1735         estimate D2E/DX2                !
 ! A120  L(24,25,28,8,-2)      181.8303         estimate D2E/DX2                !
 ! A121  L(24,26,30,1,-2)      180.8756         estimate D2E/DX2                !
 ! A122  L(24,27,29,15,-2)     178.5721         estimate D2E/DX2                !
 ! D1    D(2,1,5,12)           -24.3461         estimate D2E/DX2                !
 ! D2    D(2,1,5,21)            50.5614         estimate D2E/DX2                !
 ! D3    D(3,1,5,12)          -175.5886         estimate D2E/DX2                !
 ! D4    D(3,1,5,21)          -100.6811         estimate D2E/DX2                !
 ! D5    D(4,1,5,12)            85.2167         estimate D2E/DX2                !
 ! D6    D(4,1,5,21)           160.1241         estimate D2E/DX2                !
 ! D7    D(6,1,5,12)           104.164          estimate D2E/DX2                !
 ! D8    D(6,1,5,21)           179.0715         estimate D2E/DX2                !
 ! D9    D(9,1,5,12)            37.0183         estimate D2E/DX2                !
 ! D10   D(9,1,5,21)           111.9258         estimate D2E/DX2                !
 ! D11   D(2,1,6,7)            124.2143         estimate D2E/DX2                !
 ! D12   D(2,1,6,8)              2.1411         estimate D2E/DX2                !
 ! D13   D(2,1,6,20)           -90.8434         estimate D2E/DX2                !
 ! D14   D(5,1,6,7)             -9.9386         estimate D2E/DX2                !
 ! D15   D(5,1,6,8)           -132.0118         estimate D2E/DX2                !
 ! D16   D(5,1,6,20)           135.0037         estimate D2E/DX2                !
 ! D17   D(3,1,9,8)             15.2549         estimate D2E/DX2                !
 ! D18   D(3,1,9,10)           -99.1665         estimate D2E/DX2                !
 ! D19   D(3,1,9,11)           177.1363         estimate D2E/DX2                !
 ! D20   D(3,1,9,24)           -52.3709         estimate D2E/DX2                !
 ! D21   D(3,1,9,26)           130.2572         estimate D2E/DX2                !
 ! D22   D(5,1,9,8)            172.7906         estimate D2E/DX2                !
 ! D23   D(5,1,9,10)            58.3691         estimate D2E/DX2                !
 ! D24   D(5,1,9,11)           -25.3281         estimate D2E/DX2                !
 ! D25   D(5,1,9,24)           105.1647         estimate D2E/DX2                !
 ! D26   D(5,1,9,26)           -72.2071         estimate D2E/DX2                !
 ! D27   D(1,4,6,9)             74.9143         estimate D2E/DX2                !
 ! D28   D(1,5,12,11)          -43.0523         estimate D2E/DX2                !
 ! D29   D(1,5,12,14)           85.9776         estimate D2E/DX2                !
 ! D30   D(1,5,12,15)         -164.9836         estimate D2E/DX2                !
 ! D31   D(1,5,21,14)          -88.231          estimate D2E/DX2                !
 ! D32   D(1,5,21,22)          154.6507         estimate D2E/DX2                !
 ! D33   D(1,5,21,23)           31.0749         estimate D2E/DX2                !
 ! D34   D(1,6,7,13)          -101.6775         estimate D2E/DX2                !
 ! D35   D(1,6,7,18)          -176.3451         estimate D2E/DX2                !
 ! D36   D(3,6,7,13)          -179.8458         estimate D2E/DX2                !
 ! D37   D(3,6,7,18)           105.4866         estimate D2E/DX2                !
 ! D38   D(4,6,7,13)           -90.7988         estimate D2E/DX2                !
 ! D39   D(4,6,7,18)          -165.4664         estimate D2E/DX2                !
 ! D40   D(8,6,7,13)            14.4981         estimate D2E/DX2                !
 ! D41   D(8,6,7,18)           -60.1695         estimate D2E/DX2                !
 ! D42   D(9,6,7,13)           -43.4801         estimate D2E/DX2                !
 ! D43   D(9,6,7,18)          -118.1477         estimate D2E/DX2                !
 ! D44   D(20,6,7,13)          100.0829         estimate D2E/DX2                !
 ! D45   D(20,6,7,18)           25.4153         estimate D2E/DX2                !
 ! D46   D(3,6,9,2)            -17.8407         estimate D2E/DX2                !
 ! D47   D(3,6,9,10)           151.9825         estimate D2E/DX2                !
 ! D48   D(3,6,9,11)            76.6001         estimate D2E/DX2                !
 ! D49   D(3,6,9,24)          -163.5192         estimate D2E/DX2                !
 ! D50   D(3,6,9,26)          -140.2168         estimate D2E/DX2                !
 ! D51   D(7,6,9,2)           -172.6128         estimate D2E/DX2                !
 ! D52   D(7,6,9,10)            -2.7896         estimate D2E/DX2                !
 ! D53   D(7,6,9,11)           -78.1721         estimate D2E/DX2                !
 ! D54   D(7,6,9,24)            41.7087         estimate D2E/DX2                !
 ! D55   D(7,6,9,26)            65.0111         estimate D2E/DX2                !
 ! D56   D(20,6,9,2)            90.0662         estimate D2E/DX2                !
 ! D57   D(20,6,9,10)         -100.1106         estimate D2E/DX2                !
 ! D58   D(20,6,9,11)         -175.493          estimate D2E/DX2                !
 ! D59   D(20,6,9,24)          -55.6123         estimate D2E/DX2                !
 ! D60   D(20,6,9,26)          -32.3099         estimate D2E/DX2                !
 ! D61   D(1,6,20,18)          179.5263         estimate D2E/DX2                !
 ! D62   D(3,6,20,18)         -170.3412         estimate D2E/DX2                !
 ! D63   D(4,6,20,18)          -59.0433         estimate D2E/DX2                !
 ! D64   D(7,6,20,18)          -26.4585         estimate D2E/DX2                !
 ! D65   D(8,6,20,18)           83.8216         estimate D2E/DX2                !
 ! D66   D(9,6,20,18)           76.8625         estimate D2E/DX2                !
 ! D67   D(6,7,13,10)           70.3949         estimate D2E/DX2                !
 ! D68   D(6,7,13,16)          -75.2647         estimate D2E/DX2                !
 ! D69   D(6,7,13,17)          143.4357         estimate D2E/DX2                !
 ! D70   D(6,7,13,24)           41.7566         estimate D2E/DX2                !
 ! D71   D(6,7,18,16)           90.4631         estimate D2E/DX2                !
 ! D72   D(6,7,18,19)         -150.0391         estimate D2E/DX2                !
 ! D73   D(6,7,18,20)          -29.3923         estimate D2E/DX2                !
 ! D74   D(1,9,10,13)          102.479          estimate D2E/DX2                !
 ! D75   D(4,9,10,13)           95.1215         estimate D2E/DX2                !
 ! D76   D(6,9,10,13)           43.6963         estimate D2E/DX2                !
 ! D77   D(8,9,10,13)           -6.1122         estimate D2E/DX2                !
 ! D78   D(11,9,10,13)        -163.5316         estimate D2E/DX2                !
 ! D79   D(26,9,10,13)         -96.6998         estimate D2E/DX2                !
 ! D80   D(1,9,11,12)           -1.286          estimate D2E/DX2                !
 ! D81   D(2,9,11,12)           49.3416         estimate D2E/DX2                !
 ! D82   D(4,9,11,12)          -57.2695         estimate D2E/DX2                !
 ! D83   D(6,9,11,12)          -46.4332         estimate D2E/DX2                !
 ! D84   D(8,9,11,12)          125.8066         estimate D2E/DX2                !
 ! D85   D(10,9,11,12)        -125.3044         estimate D2E/DX2                !
 ! D86   D(24,9,11,12)        -168.5847         estimate D2E/DX2                !
 ! D87   D(26,9,11,12)         159.3061         estimate D2E/DX2                !
 ! D88   D(1,9,24,13)            6.7507         estimate D2E/DX2                !
 ! D89   D(1,9,24,17)          -26.6853         estimate D2E/DX2                !
 ! D90   D(1,9,24,25)          114.6184         estimate D2E/DX2                !
 ! D91   D(1,9,24,27)         -136.1317         estimate D2E/DX2                !
 ! D92   D(2,9,24,13)         -131.8815         estimate D2E/DX2                !
 ! D93   D(2,9,24,17)         -165.3176         estimate D2E/DX2                !
 ! D94   D(2,9,24,25)          -24.0139         estimate D2E/DX2                !
 ! D95   D(2,9,24,27)           85.236          estimate D2E/DX2                !
 ! D96   D(4,9,24,13)           39.9447         estimate D2E/DX2                !
 ! D97   D(4,9,24,17)            6.5086         estimate D2E/DX2                !
 ! D98   D(4,9,24,25)          147.8123         estimate D2E/DX2                !
 ! D99   D(4,9,24,27)         -102.9378         estimate D2E/DX2                !
 ! D100  D(6,9,24,13)          -18.1476         estimate D2E/DX2                !
 ! D101  D(6,9,24,17)          -51.5837         estimate D2E/DX2                !
 ! D102  D(6,9,24,25)           89.7201         estimate D2E/DX2                !
 ! D103  D(6,9,24,27)         -161.03           estimate D2E/DX2                !
 ! D104  D(8,9,24,13)          -63.0713         estimate D2E/DX2                !
 ! D105  D(8,9,24,17)          -96.5074         estimate D2E/DX2                !
 ! D106  D(8,9,24,25)           44.7963         estimate D2E/DX2                !
 ! D107  D(8,9,24,27)          154.0462         estimate D2E/DX2                !
 ! D108  D(11,9,24,13)         138.0543         estimate D2E/DX2                !
 ! D109  D(11,9,24,17)         104.6182         estimate D2E/DX2                !
 ! D110  D(11,9,24,25)        -114.078          estimate D2E/DX2                !
 ! D111  D(11,9,24,27)          -4.8281         estimate D2E/DX2                !
 ! D112  D(1,9,26,30)           -2.0735         estimate D2E/DX2                !
 ! D113  D(2,9,26,30)           25.133          estimate D2E/DX2                !
 ! D114  D(4,9,26,30)         -123.6234         estimate D2E/DX2                !
 ! D115  D(6,9,26,30)          143.154          estimate D2E/DX2                !
 ! D116  D(8,9,26,30)          112.7974         estimate D2E/DX2                !
 ! D117  D(10,9,26,30)        -141.2799         estimate D2E/DX2                !
 ! D118  D(11,9,26,30)         -54.7629         estimate D2E/DX2                !
 ! D119  D(9,10,13,7)          -77.4958         estimate D2E/DX2                !
 ! D120  D(9,10,13,16)          34.269          estimate D2E/DX2                !
 ! D121  D(9,10,13,17)         149.0273         estimate D2E/DX2                !
 ! D122  D(9,10,13,18)         -45.7119         estimate D2E/DX2                !
 ! D123  D(9,11,12,5)           30.3541         estimate D2E/DX2                !
 ! D124  D(9,11,12,14)         -92.5208         estimate D2E/DX2                !
 ! D125  D(9,11,12,15)         149.1433         estimate D2E/DX2                !
 ! D126  D(9,11,12,21)         -34.0838         estimate D2E/DX2                !
 ! D127  D(11,12,21,22)       -179.8845         estimate D2E/DX2                !
 ! D128  D(11,12,21,23)         20.0194         estimate D2E/DX2                !
 ! D129  D(15,12,21,22)         -3.1522         estimate D2E/DX2                !
 ! D130  D(15,12,21,23)       -163.2484         estimate D2E/DX2                !
 ! D131  D(10,13,18,19)       -136.3142         estimate D2E/DX2                !
 ! D132  D(10,13,18,20)         31.9085         estimate D2E/DX2                !
 ! D133  D(17,13,18,19)         16.437          estimate D2E/DX2                !
 ! D134  D(17,13,18,20)       -175.3402         estimate D2E/DX2                !
 ! D135  D(24,13,18,19)        150.3616         estimate D2E/DX2                !
 ! D136  D(24,13,18,20)        -41.4157         estimate D2E/DX2                !
 ! D137  D(7,13,24,9)          -15.0634         estimate D2E/DX2                !
 ! D138  D(7,13,24,25)        -122.0856         estimate D2E/DX2                !
 ! D139  D(7,13,24,26)         -20.7254         estimate D2E/DX2                !
 ! D140  D(7,13,24,27)         121.9858         estimate D2E/DX2                !
 ! D141  D(16,13,24,9)         103.2497         estimate D2E/DX2                !
 ! D142  D(16,13,24,25)         -3.7725         estimate D2E/DX2                !
 ! D143  D(16,13,24,26)         97.5877         estimate D2E/DX2                !
 ! D144  D(16,13,24,27)       -119.7011         estimate D2E/DX2                !
 ! D145  D(18,13,24,9)          60.4055         estimate D2E/DX2                !
 ! D146  D(18,13,24,25)        -46.6167         estimate D2E/DX2                !
 ! D147  D(18,13,24,26)         54.7435         estimate D2E/DX2                !
 ! D148  D(18,13,24,27)       -162.5453         estimate D2E/DX2                !
 ! D149  D(7,18,20,6)           29.5852         estimate D2E/DX2                !
 ! D150  D(13,18,20,6)         -21.3183         estimate D2E/DX2                !
 ! D151  D(16,18,20,6)         -80.6649         estimate D2E/DX2                !
 ! D152  D(19,18,20,6)         147.7107         estimate D2E/DX2                !
 --------------------------------------------------------------------------------
 Trust Radius=3.00D-01 FncErr=1.00D-07 GrdErr=1.00D-06 EigMax=2.50D+02 EigMin=1.00D-04
 Number of steps in this run=    180 maximum allowed number of steps=    180.
 GradGradGradGradGradGradGradGradGradGradGradGradGradGradGradGradGradGrad

                          Input orientation:                          
 ---------------------------------------------------------------------
 Center     Atomic      Atomic             Coordinates (Angstroms)
 Number     Number       Type             X           Y           Z
 ---------------------------------------------------------------------
      1         42           0        0.448347    2.051240   12.166058
      2         16           0        1.373291    4.091522   12.060604
      3         16           0       -1.542345    2.388395   13.306027
      4         16           0       -0.389844    1.426075   10.032059
      5         16           0        2.045633    0.201415   11.822948
      6         42           0       -2.065528    2.838310   11.083510
      7         16           0       -3.376055    1.941394    9.037007
      8         16           0       -1.486528    4.969069   10.742718
      9         42           0        0.345808    3.636439    9.953483
     10         16           0       -0.273711    2.841164    7.627705
     11         16           0        2.569266    3.173559    9.039638
     12         42           0        3.506816    1.706665   10.583880
     13         42           0       -2.702689    3.783833    7.663244
     14         16           0        4.768930    2.698834   12.273004
     15         16           0        4.832485    0.408363    9.608765
     16         16           0       -4.025096    5.532599    8.443022
     17         16           0       -2.184347    3.921297    5.534562
     18         42           0       -4.805092    3.697055    9.653336
     19         16           0       -6.812165    3.277870    9.154338
     20         16           0       -4.354368    3.684955   11.853467
     21         42           0        3.456199    1.221187   13.490970
     22         16           0        4.609849   -0.368568   14.283169
     23         16           0        1.762996    2.054306   14.598888
     24         42           0       -0.544867    4.987196    7.371821
     25          6           0       -0.853150    6.935961    7.792043
     26          6           0        1.139317    5.221772    8.434282
     27          6           0        0.634038    5.330176    5.795726
     28          8           0       -1.065648    8.045222    8.033316
     29          8           0        1.326778    5.484452    4.884175
     30          8           0        2.147923    5.474463    8.951593
 ---------------------------------------------------------------------
                    Distance matrix (angstroms):
                    1          2          3          4          5
     1  Mo   0.000000
     2  S    2.242631   0.000000
     3  S    2.318633   3.598979   0.000000
     4  S    2.376415   3.785267   3.601831   0.000000
     5  S    2.467975   3.954928   4.456006   3.261690   0.000000
     6  Mo   2.847974   3.788236   2.327171   2.430612   4.939800
     7  S    4.942578   6.026730   4.667637   3.189536   6.339061
     8  S    3.779334   3.268865   3.637794   3.776315   6.031052
     9  Mo   2.723758   2.388050   4.045032   2.330894   4.264234
    10  S    4.662832   4.891483   5.835904   2.792290   5.472449
    11  S    3.941117   3.376277   5.976948   3.577000   4.105441
    12  Mo   3.460672   3.524228   5.776579   3.945529   2.436416
    13  Mo   5.762486   6.003754   5.927448   4.064426   7.258334
    14  S    4.370155   3.676283   6.402789   5.766689   3.722365
    15  S    5.334741   5.616333   7.630775   5.337381   3.565386
    16  S    6.781781   6.656289   6.300705   5.709959   8.757806
    17  S    7.375970   7.434715   7.947177   5.447371   8.442396
    18  Mo   6.051537   6.642512   5.069542   4.979477   7.991192
    19  S    7.955508   8.724110   6.767473   6.741346   9.749187
    20  S    5.082599   5.745805   3.420303   4.912995   7.286700
    21  Mo   3.389919   3.824039   5.136343   5.176687   2.410794
    22  S    5.258871   5.942012   6.812132   6.803647   3.598996
    23  S    2.765316   3.277957   3.564882   5.087762   3.349467
    24  Mo   5.708855   5.144535   6.554657   4.447750   7.030428
    25  C    6.684789   5.591823   7.180485   5.965834   8.366914
    26  C    4.945287   3.805577   6.241253   4.393011   6.124414
    27  C    7.167080   6.428799   8.354361   5.851227   8.038918
    28  O    7.436367   6.148107   7.747801   6.947287   9.250227
    29  O    8.098420   7.310509   9.420458   6.776277   8.750646
    30  O    4.993977   3.489775   6.488682   4.898685   6.005013
                    6          7          8          9         10
     6  Mo   0.000000
     7  S    2.590389   0.000000
     8  S    2.234170   3.955576   0.000000
     9  Mo   2.780020   4.191106   2.399219   0.000000
    10  S    3.892712   3.524238   3.962602   2.534859   0.000000
    11  S    5.076526   6.071662   4.751190   2.448088   3.191639
    12  Mo   5.708000   7.058458   5.966741   3.756780   4.931374
    13  Mo   3.605303   2.394834   3.516673   3.815790   2.605729
    14  S    6.938600   8.796941   6.828360   5.081662   6.857645
    15  S    7.460704   8.370019   7.875012   5.538012   5.993026
    16  S    4.251032   3.697408   3.471382   4.998171   4.688438
    17  S    5.654892   4.196106   5.358140   5.099969   3.032897
    18  Mo   3.207499   2.346136   3.717209   5.159994   5.036779
    19  S    5.142517   3.688738   5.809089   7.211365   6.728499
    20  S    2.558990   3.453918   3.332749   5.069906   5.934712
    21  Mo   6.237020   8.187562   6.784546   5.293561   7.135435
    22  S    8.067375   9.830199   8.842566   7.277933   8.857017
    23  S    5.256438   7.573448   5.824543   5.107970   7.305116
    24  Mo   4.550468   4.479440   3.500000   3.046773   2.178178
    25  C    5.393919   5.732425   3.602265   4.122641   4.138856
    26  C    4.792738   5.613622   3.505396   2.334718   2.883490
    27  C    6.438767   6.170138   5.394435   4.498751   3.221077
    28  O    6.116811   6.603189   4.120767   5.011648   5.279575
    29  O    7.545963   7.205270   6.519420   5.484099   4.132251
    30  O    5.408100   6.557760   4.083233   2.762198   3.814612
                   11         12         13         14         15
    11  S    0.000000
    12  Mo   2.327114   0.000000
    13  Mo   5.482737   7.169567   0.000000
    14  S    3.939358   2.330337   8.846027   0.000000
    15  S    3.618339   2.096148   8.482788   3.514038   0.000000
    16  S    7.028985   8.714972   2.327015  10.001694  10.299199
    17  S    5.953277   7.923985   2.195191   9.759563   8.841706
    18  Mo   7.418344   8.597405   2.896221   9.976021  10.183338
    19  S    9.382712  10.535352   4.400813  12.007628  12.001602
    20  S    7.491052   8.205102   4.505085   9.186023  10.008647
    21  Mo   4.940927   2.947783   8.857847   2.321668   4.198376
    22  S    6.648704   4.382695  10.702292   3.670834   4.743758
    23  S    5.727832   4.391133   8.428331   3.854970   6.085410
    24  Mo   3.970984   6.123344   2.487812   7.582521   7.408478
    25  C    5.236897   7.358614   3.656952   8.345061   8.845138
    26  C    2.570289   4.752031   4.174109   5.854493   6.179628
    27  C    4.349606   6.656508   4.124627   8.122587   7.509359
    28  O    6.161038   8.221320   4.579989   8.977813   9.777097
    29  O    4.914456   7.177108   5.181886   8.614109   7.770355
    30  O    2.340821   4.325188   5.295896   5.060194   5.770972
                   16         17         18         19         20
    16  S    0.000000
    17  S    3.800499   0.000000
    18  Mo   2.332911   4.887012   0.000000
    19  S    3.654795   5.910455   2.110227   0.000000
    20  S    3.892730   6.685313   2.245857   3.673116   0.000000
    21  Mo  10.001991  10.119821   9.439613  11.334709   8.352037
    22  S   11.978872  11.878643  11.251922  13.040852  10.133691
    23  S    9.137572  10.061271   8.384324  10.231013   6.900616
    24  Mo   3.681974   2.683199   5.001929   6.736334   6.024391
    25  C    3.529085   3.994559   5.438086   7.123717   6.270784
    26  C    5.173766   4.598517   6.256745   8.217257   6.650805
    27  C    5.362526   3.161715   6.865303   8.422481   8.017928
    28  O    3.903776   4.949951   5.959402   7.550285   6.664921
    29  O    6.427306   3.898007   7.971168   9.452285   9.169768
    30  O    6.194206   5.732102   7.210828   9.227639   7.341867
                   21         22         23         24         25
    21  Mo   0.000000
    22  S    2.117973   0.000000
    23  S    2.188266   3.751609   0.000000
    24  Mo   8.224070  10.149977   8.133792   0.000000
    25  C    9.149147  11.195321   8.775415   2.017253   0.000000
    26  C    6.851475   8.803748   6.958749   2.005075   2.705705
    27  C    9.168706  10.969022   9.460525   1.997881   2.962356
    28  O    9.838727  11.919052   9.327327   3.171799   1.154915
    29  O    9.838027  11.548917  10.311733   3.152571   3.913395
    30  O    6.356720   8.284189   6.613440   3.159783   3.533691
                   26         27         28         29         30
    26  C    0.000000
    27  C    2.688687   0.000000
    28  O    3.604790   3.907329   0.000000
    29  O    3.564744   1.155255   4.711511   0.000000
    30  O    1.161357   3.503165   4.216524   4.149490   0.000000
 Symmetry turned off by external request.
 Stoichiometry    C3Mo8O3S16
 Framework group  C1[X(C3Mo8O3S16)]
 Deg. of freedom    84
 Full point group                 C1      NOp   1
 Rotational constants (GHZ):           0.0752555           0.0299350           0.0243628
 General basis read from cards:  (5D, 7F)
 ======================================================================================================
                                       Pseudopotential Parameters
 ======================================================================================================
  Center     Atomic      Valence      Angular      Power
  Number     Number     Electrons     Momentum     of R      Exponent        Coefficient   SO-Coeffient
 ======================================================================================================
    1         42           14
                                      F and up 
                                                     0      537.9667807       -0.04694920    0.00000000
                                                     1      147.8982938      -20.20800840    0.00000000
                                                     2       45.7358898     -106.21163020    0.00000000
                                                     2       13.2911467      -41.81073680    0.00000000
                                                     2        4.7059961       -4.20541030    0.00000000
                                      S - F
                                                     0      110.2991760        2.80637170    0.00000000
                                                     1       23.2014645       44.51620120    0.00000000
                                                     2        5.3530131       82.77852270    0.00000000
                                      P - F
                                                     0       63.2901397        4.94208760    0.00000000
                                                     1       23.3315302       25.86049760    0.00000000
                                                     2       24.6759423      132.47087420    0.00000000
                                                     2        4.6493040       57.31497940    0.00000000
                                      D - F
                                                     0      104.4839977        3.00545910    0.00000000
                                                     1       66.2307245       26.36378510    0.00000000
                                                     2       39.1283176      183.38491990    0.00000000
                                                     2       13.1164437       98.44530680    0.00000000
                                                     2        3.6280263       22.49013770    0.00000000
    2         16
                                   No pseudopotential on this center.
    3         16
                                   No pseudopotential on this center.
    4         16
                                   No pseudopotential on this center.
    5         16
                                   No pseudopotential on this center.
    6         42           14
                                      F and up 
                                                     0      537.9667807       -0.04694920    0.00000000
                                                     1      147.8982938      -20.20800840    0.00000000
                                                     2       45.7358898     -106.21163020    0.00000000
                                                     2       13.2911467      -41.81073680    0.00000000
                                                     2        4.7059961       -4.20541030    0.00000000
                                      S - F
                                                     0      110.2991760        2.80637170    0.00000000
                                                     1       23.2014645       44.51620120    0.00000000
                                                     2        5.3530131       82.77852270    0.00000000
                                      P - F
                                                     0       63.2901397        4.94208760    0.00000000
                                                     1       23.3315302       25.86049760    0.00000000
                                                     2       24.6759423      132.47087420    0.00000000
                                                     2        4.6493040       57.31497940    0.00000000
                                      D - F
                                                     0      104.4839977        3.00545910    0.00000000
                                                     1       66.2307245       26.36378510    0.00000000
                                                     2       39.1283176      183.38491990    0.00000000
                                                     2       13.1164437       98.44530680    0.00000000
                                                     2        3.6280263       22.49013770    0.00000000
    7         16
                                   No pseudopotential on this center.
    8         16
                                   No pseudopotential on this center.
    9         42           14
                                      F and up 
                                                     0      537.9667807       -0.04694920    0.00000000
                                                     1      147.8982938      -20.20800840    0.00000000
                                                     2       45.7358898     -106.21163020    0.00000000
                                                     2       13.2911467      -41.81073680    0.00000000
                                                     2        4.7059961       -4.20541030    0.00000000
                                      S - F
                                                     0      110.2991760        2.80637170    0.00000000
                                                     1       23.2014645       44.51620120    0.00000000
                                                     2        5.3530131       82.77852270    0.00000000
                                      P - F
                                                     0       63.2901397        4.94208760    0.00000000
                                                     1       23.3315302       25.86049760    0.00000000
                                                     2       24.6759423      132.47087420    0.00000000
                                                     2        4.6493040       57.31497940    0.00000000
                                      D - F
                                                     0      104.4839977        3.00545910    0.00000000
                                                     1       66.2307245       26.36378510    0.00000000
                                                     2       39.1283176      183.38491990    0.00000000
                                                     2       13.1164437       98.44530680    0.00000000
                                                     2        3.6280263       22.49013770    0.00000000
   10         16
                                   No pseudopotential on this center.
   11         16
                                   No pseudopotential on this center.
   12         42           14
                                      F and up 
                                                     0      537.9667807       -0.04694920    0.00000000
                                                     1      147.8982938      -20.20800840    0.00000000
                                                     2       45.7358898     -106.21163020    0.00000000
                                                     2       13.2911467      -41.81073680    0.00000000
                                                     2        4.7059961       -4.20541030    0.00000000
                                      S - F
                                                     0      110.2991760        2.80637170    0.00000000
                                                     1       23.2014645       44.51620120    0.00000000
                                                     2        5.3530131       82.77852270    0.00000000
                                      P - F
                                                     0       63.2901397        4.94208760    0.00000000
                                                     1       23.3315302       25.86049760    0.00000000
                                                     2       24.6759423      132.47087420    0.00000000
                                                     2        4.6493040       57.31497940    0.00000000
                                      D - F
                                                     0      104.4839977        3.00545910    0.00000000
                                                     1       66.2307245       26.36378510    0.00000000
                                                     2       39.1283176      183.38491990    0.00000000
                                                     2       13.1164437       98.44530680    0.00000000
                                                     2        3.6280263       22.49013770    0.00000000
   13         42           14
                                      F and up 
                                                     0      537.9667807       -0.04694920    0.00000000
                                                     1      147.8982938      -20.20800840    0.00000000
                                                     2       45.7358898     -106.21163020    0.00000000
                                                     2       13.2911467      -41.81073680    0.00000000
                                                     2        4.7059961       -4.20541030    0.00000000
                                      S - F
                                                     0      110.2991760        2.80637170    0.00000000
                                                     1       23.2014645       44.51620120    0.00000000
                                                     2        5.3530131       82.77852270    0.00000000
                                      P - F
                                                     0       63.2901397        4.94208760    0.00000000
                                                     1       23.3315302       25.86049760    0.00000000
                                                     2       24.6759423      132.47087420    0.00000000
                                                     2        4.6493040       57.31497940    0.00000000
                                      D - F
                                                     0      104.4839977        3.00545910    0.00000000
                                                     1       66.2307245       26.36378510    0.00000000
                                                     2       39.1283176      183.38491990    0.00000000
                                                     2       13.1164437       98.44530680    0.00000000
                                                     2        3.6280263       22.49013770    0.00000000
   14         16
                                   No pseudopotential on this center.
   15         16
                                   No pseudopotential on this center.
   16         16
                                   No pseudopotential on this center.
   17         16
                                   No pseudopotential on this center.
   18         42           14
                                      F and up 
                                                     0      537.9667807       -0.04694920    0.00000000
                                                     1      147.8982938      -20.20800840    0.00000000
                                                     2       45.7358898     -106.21163020    0.00000000
                                                     2       13.2911467      -41.81073680    0.00000000
                                                     2        4.7059961       -4.20541030    0.00000000
                                      S - F
                                                     0      110.2991760        2.80637170    0.00000000
                                                     1       23.2014645       44.51620120    0.00000000
                                                     2        5.3530131       82.77852270    0.00000000
                                      P - F
                                                     0       63.2901397        4.94208760    0.00000000
                                                     1       23.3315302       25.86049760    0.00000000
                                                     2       24.6759423      132.47087420    0.00000000
                                                     2        4.6493040       57.31497940    0.00000000
                                      D - F
                                                     0      104.4839977        3.00545910    0.00000000
                                                     1       66.2307245       26.36378510    0.00000000
                                                     2       39.1283176      183.38491990    0.00000000
                                                     2       13.1164437       98.44530680    0.00000000
                                                     2        3.6280263       22.49013770    0.00000000
   19         16
                                   No pseudopotential on this center.
   20         16
                                   No pseudopotential on this center.
   21         42           14
                                      F and up 
                                                     0      537.9667807       -0.04694920    0.00000000
                                                     1      147.8982938      -20.20800840    0.00000000
                                                     2       45.7358898     -106.21163020    0.00000000
                                                     2       13.2911467      -41.81073680    0.00000000
                                                     2        4.7059961       -4.20541030    0.00000000
                                      S - F
                                                     0      110.2991760        2.80637170    0.00000000
                                                     1       23.2014645       44.51620120    0.00000000
                                                     2        5.3530131       82.77852270    0.00000000
                                      P - F
                                                     0       63.2901397        4.94208760    0.00000000
                                                     1       23.3315302       25.86049760    0.00000000
                                                     2       24.6759423      132.47087420    0.00000000
                                                     2        4.6493040       57.31497940    0.00000000
                                      D - F
                                                     0      104.4839977        3.00545910    0.00000000
                                                     1       66.2307245       26.36378510    0.00000000
                                                     2       39.1283176      183.38491990    0.00000000
                                                     2       13.1164437       98.44530680    0.00000000
                                                     2        3.6280263       22.49013770    0.00000000
   22         16
                                   No pseudopotential on this center.
   23         16
                                   No pseudopotential on this center.
   24         42           14
                                      F and up 
                                                     0      537.9667807       -0.04694920    0.00000000
                                                     1      147.8982938      -20.20800840    0.00000000
                                                     2       45.7358898     -106.21163020    0.00000000
                                                     2       13.2911467      -41.81073680    0.00000000
                                                     2        4.7059961       -4.20541030    0.00000000
                                      S - F
                                                     0      110.2991760        2.80637170    0.00000000
                                                     1       23.2014645       44.51620120    0.00000000
                                                     2        5.3530131       82.77852270    0.00000000
                                      P - F
                                                     0       63.2901397        4.94208760    0.00000000
                                                     1       23.3315302       25.86049760    0.00000000
                                                     2       24.6759423      132.47087420    0.00000000
                                                     2        4.6493040       57.31497940    0.00000000
                                      D - F
                                                     0      104.4839977        3.00545910    0.00000000
                                                     1       66.2307245       26.36378510    0.00000000
                                                     2       39.1283176      183.38491990    0.00000000
                                                     2       13.1164437       98.44530680    0.00000000
                                                     2        3.6280263       22.49013770    0.00000000
   25          6
                                   No pseudopotential on this center.
   26          6
                                   No pseudopotential on this center.
   27          6
                                   No pseudopotential on this center.
   28          8
                                   No pseudopotential on this center.
   29          8
                                   No pseudopotential on this center.
   30          8
                                   No pseudopotential on this center.
 ======================================================================================================
   548 basis functions,  1392 primitive gaussians,   586 cartesian basis functions
   205 alpha electrons      205 beta electrons
       nuclear repulsion energy      9126.7434326727 Hartrees.
 NAtoms=   30 NActive=   30 NUniq=   30 SFac= 1.00D+00 NAtFMM=   60 NAOKFM=F Big=F
 Integral buffers will be    131072 words long.
 Raffenetti 2 integral format.
 Two-electron integral symmetry is turned off.
 One-electron integrals computed using PRISM.
   1 Symmetry operations used in ECPInt.
 ECPInt:  NShTT=   14196 NPrTT=  113315 LenC2=   12065 LenP2D=   55853.
 LDataN:  DoStor=T MaxTD1= 5 Len=  102
 NBasis=   548 RedAO= T EigKep=  4.23D-04  NBF=   548
 NBsUse=   548 1.00D-06 EigRej= -1.00D+00 NBFU=   548
 Defaulting to unpruned grid for atomic number  42.
 Defaulting to unpruned grid for atomic number  42.
 Defaulting to unpruned grid for atomic number  42.
 Defaulting to unpruned grid for atomic number  42.
 Defaulting to unpruned grid for atomic number  42.
 Defaulting to unpruned grid for atomic number  42.
 Defaulting to unpruned grid for atomic number  42.
 Defaulting to unpruned grid for atomic number  42.
 ExpMin= 2.47D-02 ExpMax= 2.19D+04 ExpMxC= 3.30D+03 IAcc=3 IRadAn=         5 AccDes= 0.00D+00
 Harris functional with IExCor=  402 and IRadAn=       5 diagonalized for initial guess.
 HarFok:  IExCor=  402 AccDes= 0.00D+00 IRadAn=         5 IDoV= 1 UseB2=F ITyADJ=14
 ICtDFT=  3500011 ScaDFX=  1.000000  1.000000  1.000000  1.000000
 Defaulting to unpruned grid for atomic number  42.
 FoFCou: FMM=F IPFlag=           0 FMFlag=      100000 FMFlg1=           0
         NFxFlg=           0 DoJE=T BraDBF=F KetDBF=T FulRan=T
         wScrn=  0.000000 ICntrl=       500 IOpCl=  0 I1Cent=   200000004 NGrid=           0
         NMat0=    1 NMatS0=      1 NMatT0=    0 NMatD0=    1 NMtDS0=    0 NMtDT0=    0
 Symmetry not used in FoFCou.
 Requested convergence on RMS density matrix=1.00D-08 within 128 cycles.
 Requested convergence on MAX density matrix=1.00D-06.
 Requested convergence on             energy=1.00D-06.
 No special actions if energy rises.
 Defaulting to unpruned grid for atomic number  42.
 Defaulting to unpruned grid for atomic number  42.
 Defaulting to unpruned grid for atomic number  42.
 Defaulting to unpruned grid for atomic number  42.
 Defaulting to unpruned grid for atomic number  42.
 Defaulting to unpruned grid for atomic number  42.
 Defaulting to unpruned grid for atomic number  42.
 Defaulting to unpruned grid for atomic number  42.
 Defaulting to unpruned grid for atomic number  42.
 Defaulting to unpruned grid for atomic number  42.
 Defaulting to unpruned grid for atomic number  42.
 Defaulting to unpruned grid for atomic number  42.
 Defaulting to unpruned grid for atomic number  42.
 Defaulting to unpruned grid for atomic number  42.
 Defaulting to unpruned grid for atomic number  42.
 Defaulting to unpruned grid for atomic number  42.
 Defaulting to unpruned grid for atomic number  42.
 Defaulting to unpruned grid for atomic number  42.
 Defaulting to unpruned grid for atomic number  42.
 Defaulting to unpruned grid for atomic number  42.
 Defaulting to unpruned grid for atomic number  42.
 Defaulting to unpruned grid for atomic number  42.
 Defaulting to unpruned grid for atomic number  42.
 Defaulting to unpruned grid for atomic number  42.
 Defaulting to unpruned grid for atomic number  42.
 Defaulting to unpruned grid for atomic number  42.
 Defaulting to unpruned grid for atomic number  42.
 Defaulting to unpruned grid for atomic number  42.
 Defaulting to unpruned grid for atomic number  42.
 Defaulting to unpruned grid for atomic number  42.
 Defaulting to unpruned grid for atomic number  42.
 Defaulting to unpruned grid for atomic number  42.
 Defaulting to unpruned grid for atomic number  42.
 Defaulting to unpruned grid for atomic number  42.
 Defaulting to unpruned grid for atomic number  42.
 Defaulting to unpruned grid for atomic number  42.
 Defaulting to unpruned grid for atomic number  42.
 Defaulting to unpruned grid for atomic number  42.
 Defaulting to unpruned grid for atomic number  42.
 Defaulting to unpruned grid for atomic number  42.
 Defaulting to unpruned grid for atomic number  42.
 Defaulting to unpruned grid for atomic number  42.
 Defaulting to unpruned grid for atomic number  42.
 Defaulting to unpruned grid for atomic number  42.
 Defaulting to unpruned grid for atomic number  42.
 Defaulting to unpruned grid for atomic number  42.
 EnCoef did     5 forward-backward iterations
 EnCoef did   100 forward-backward iterations
 EnCoef did   100 forward-backward iterations
 EnCoef did   100 forward-backward iterations
 EnCoef did   100 forward-backward iterations
 EnCoef did     6 forward-backward iterations
 EnCoef did     3 forward-backward iterations
 EnCoef did     8 forward-backward iterations
 EnCoef did     1 forward-backward iterations
 EnCoef did     3 forward-backward iterations
 EnCoef did     3 forward-backward iterations
 EnCoef did     3 forward-backward iterations
 EnCoef did     3 forward-backward iterations
 Restarting incremental Fock formation.
 Restarting incremental Fock formation.
 SCF Done:  E(RB3LYP) =  -7252.03797197     A.U. after   48 cycles
            NFock= 48  Conv=0.25D-08     -V/T= 2.0548

 **********************************************************************

            Population analysis using the SCF Density.

 **********************************************************************

 Alpha  occ. eigenvalues --  -88.93337 -88.93203 -88.92762 -88.92017 -88.91668
 Alpha  occ. eigenvalues --  -88.91608 -88.90974 -88.90824 -88.90598 -88.89609
 Alpha  occ. eigenvalues --  -88.89505 -88.89194 -88.88175 -88.87930 -88.87902
 Alpha  occ. eigenvalues --  -88.87341 -19.28254 -19.27111 -19.26594 -10.35571
 Alpha  occ. eigenvalues --  -10.34742 -10.33444  -8.00786  -8.00692  -8.00373
 Alpha  occ. eigenvalues --   -7.99604  -7.99347  -7.99248  -7.98670  -7.98492
 Alpha  occ. eigenvalues --   -7.98297  -7.97419  -7.97345  -7.97163  -7.96080
 Alpha  occ. eigenvalues --   -7.95739  -7.95695  -7.95283  -5.96815  -5.96790
 Alpha  occ. eigenvalues --   -5.96734  -5.96663  -5.96649  -5.96570  -5.96386
 Alpha  occ. eigenvalues --   -5.96329  -5.96280  -5.95616  -5.95573  -5.95510
 Alpha  occ. eigenvalues --   -5.95507  -5.95267  -5.95245  -5.95235  -5.95111
 Alpha  occ. eigenvalues --   -5.95103  -5.94698  -5.94617  -5.94604  -5.94555
 Alpha  occ. eigenvalues --   -5.94404  -5.94382  -5.94318  -5.94259  -5.94105
 Alpha  occ. eigenvalues --   -5.93419  -5.93407  -5.93369  -5.93288  -5.93282
 Alpha  occ. eigenvalues --   -5.93178  -5.93144  -5.93137  -5.92994  -5.92131
 Alpha  occ. eigenvalues --   -5.92019  -5.91892  -5.91823  -5.91802  -5.91677
 Alpha  occ. eigenvalues --   -5.91655  -5.91547  -5.91470  -5.91305  -5.91238
 Alpha  occ. eigenvalues --   -5.91104  -2.57503  -2.57139  -2.56863  -2.56776
 Alpha  occ. eigenvalues --   -2.56418  -2.56226  -2.55413  -2.53352  -1.60961
 Alpha  occ. eigenvalues --   -1.60719  -1.60503  -1.60223  -1.60121  -1.59581
 Alpha  occ. eigenvalues --   -1.59446  -1.59314  -1.59253  -1.59143  -1.59025
 Alpha  occ. eigenvalues --   -1.58964  -1.58728  -1.58721  -1.58486  -1.58275
 Alpha  occ. eigenvalues --   -1.57817  -1.57675  -1.57654  -1.57173  -1.56919
 Alpha  occ. eigenvalues --   -1.56231  -1.55502  -1.55084  -1.19157  -1.16981
 Alpha  occ. eigenvalues --   -1.16423  -0.78481  -0.75881  -0.75630  -0.75460
 Alpha  occ. eigenvalues --   -0.74697  -0.73853  -0.73226  -0.73025  -0.72258
 Alpha  occ. eigenvalues --   -0.71921  -0.71747  -0.71049  -0.70604  -0.70484
 Alpha  occ. eigenvalues --   -0.69888  -0.68566  -0.63514  -0.60362  -0.59643
 Alpha  occ. eigenvalues --   -0.53864  -0.52347  -0.52202  -0.49420  -0.49338
 Alpha  occ. eigenvalues --   -0.49051  -0.48587  -0.48271  -0.48052  -0.44948
 Alpha  occ. eigenvalues --   -0.44610  -0.43834  -0.43111  -0.42600  -0.42209
 Alpha  occ. eigenvalues --   -0.41942  -0.41635  -0.41187  -0.41095  -0.40166
 Alpha  occ. eigenvalues --   -0.39741  -0.39425  -0.39312  -0.38974  -0.38791
 Alpha  occ. eigenvalues --   -0.38591  -0.38021  -0.37683  -0.37526  -0.37169
 Alpha  occ. eigenvalues --   -0.37025  -0.36767  -0.36671  -0.36235  -0.35972
 Alpha  occ. eigenvalues --   -0.35863  -0.35206  -0.35018  -0.34915  -0.34586
 Alpha  occ. eigenvalues --   -0.34456  -0.33825  -0.33616  -0.33515  -0.33033
 Alpha  occ. eigenvalues --   -0.32836  -0.32085  -0.31966  -0.31537  -0.31425
 Alpha  occ. eigenvalues --   -0.30674  -0.30326  -0.30262  -0.29890  -0.29597
 Alpha  occ. eigenvalues --   -0.28865  -0.28257  -0.27435  -0.27242  -0.27044
 Alpha  occ. eigenvalues --   -0.26108  -0.25678  -0.25384  -0.24666  -0.23458
 Alpha virt. eigenvalues --   -0.20082  -0.18273  -0.17869  -0.17009  -0.16766
 Alpha virt. eigenvalues --   -0.15688  -0.15387  -0.15085  -0.14155  -0.13846
 Alpha virt. eigenvalues --   -0.13615  -0.13417  -0.13136  -0.12768  -0.12453
 Alpha virt. eigenvalues --   -0.11907  -0.11696  -0.11188  -0.11062  -0.09961
 Alpha virt. eigenvalues --   -0.09614  -0.09449  -0.09067  -0.08370  -0.08217
 Alpha virt. eigenvalues --   -0.07901  -0.07546  -0.07408  -0.07137  -0.06469
 Alpha virt. eigenvalues --   -0.05766  -0.05086  -0.04541  -0.03679  -0.03291
 Alpha virt. eigenvalues --   -0.02687  -0.01574  -0.01207  -0.00851   0.00094
 Alpha virt. eigenvalues --    0.00509   0.01293   0.01461   0.02061   0.02666
 Alpha virt. eigenvalues --    0.02852   0.03053   0.03606   0.03835   0.04241
 Alpha virt. eigenvalues --    0.04620   0.05064   0.05141   0.05679   0.05980
 Alpha virt. eigenvalues --    0.06347   0.06621   0.06831   0.07281   0.07657
 Alpha virt. eigenvalues --    0.08010   0.08802   0.08964   0.09523   0.09819
 Alpha virt. eigenvalues --    0.10472   0.11003   0.11249   0.12343   0.12712
 Alpha virt. eigenvalues --    0.14555   0.15147   0.15648   0.16001   0.16429
 Alpha virt. eigenvalues --    0.16818   0.16992   0.17648   0.18071   0.18980
 Alpha virt. eigenvalues --    0.19443   0.19950   0.20497   0.21194   0.21744
 Alpha virt. eigenvalues --    0.22180   0.22621   0.23417   0.24603   0.25072
 Alpha virt. eigenvalues --    0.25499   0.26594   0.26999   0.27418   0.27536
 Alpha virt. eigenvalues --    0.28070   0.28536   0.29103   0.29532   0.29685
 Alpha virt. eigenvalues --    0.29988   0.30541   0.30696   0.30939   0.31401
 Alpha virt. eigenvalues --    0.31636   0.31907   0.32806   0.33240   0.33449
 Alpha virt. eigenvalues --    0.33875   0.34475   0.34740   0.35099   0.35245
 Alpha virt. eigenvalues --    0.35859   0.36117   0.36370   0.36564   0.36915
 Alpha virt. eigenvalues --    0.37103   0.37396   0.37831   0.38021   0.38404
 Alpha virt. eigenvalues --    0.38662   0.38961   0.39137   0.39791   0.40050
 Alpha virt. eigenvalues --    0.40406   0.40643   0.40767   0.40928   0.41625
 Alpha virt. eigenvalues --    0.41814   0.41877   0.42347   0.42639   0.42730
 Alpha virt. eigenvalues --    0.42793   0.43425   0.43728   0.44140   0.44325
 Alpha virt. eigenvalues --    0.44623   0.44980   0.45402   0.45857   0.46055
 Alpha virt. eigenvalues --    0.46501   0.46866   0.47231   0.48326   0.49219
 Alpha virt. eigenvalues --    0.49634   0.49894   0.50178   0.50463   0.51642
 Alpha virt. eigenvalues --    0.52138   0.52354   0.53146   0.53605   0.54112
 Alpha virt. eigenvalues --    0.54247   0.54659   0.55188   0.55461   0.56362
 Alpha virt. eigenvalues --    0.57275   0.57433   0.57837   0.58796   0.59328
 Alpha virt. eigenvalues --    0.59462   0.60292   0.60973   0.61577   0.62191
 Alpha virt. eigenvalues --    0.62438   0.63184   0.63432   0.64208   0.65215
 Alpha virt. eigenvalues --    0.65636   0.66023   0.66683   0.66715   0.67229
 Alpha virt. eigenvalues --    0.67381   0.68000   0.68675   0.69020   0.69759
 Alpha virt. eigenvalues --    0.69803   0.70282   0.71400   0.71800   0.72523
 Alpha virt. eigenvalues --    0.72924   0.73284   0.73689   0.73935   0.74394
 Alpha virt. eigenvalues --    0.74789   0.74834   0.75128   0.75620   0.76112
 Alpha virt. eigenvalues --    0.76660   0.77144   0.77417   0.77710   0.77875
 Alpha virt. eigenvalues --    0.78885   0.78978   0.79410   0.79781   0.80190
 Alpha virt. eigenvalues --    0.80918   0.81063   0.81485   0.82023   0.82571
 Alpha virt. eigenvalues --    0.83193   0.83341   0.83699   0.83862   0.84375
 Alpha virt. eigenvalues --    0.84660   0.84982   0.85386   0.85659   0.86399
 Alpha virt. eigenvalues --    0.86761   0.87435   0.87591   0.87877   0.88480
 Alpha virt. eigenvalues --    0.88813   0.89042   0.89809   0.90746   0.90974
 Alpha virt. eigenvalues --    0.92022   0.92457   0.92842   0.93788   0.94261
 Alpha virt. eigenvalues --    0.94921   0.95466   0.95710   0.95892   0.96092
 Alpha virt. eigenvalues --    0.96738   0.96880   0.97752   0.98401   0.98795
 Alpha virt. eigenvalues --    0.98971   0.99796   1.00335   1.00835   1.01249
 Alpha virt. eigenvalues --    1.01836   1.02218   1.02954   1.03181   1.03374
 Alpha virt. eigenvalues --    1.03753   1.04282   1.04454   1.04776   1.05095
 Alpha virt. eigenvalues --    1.05584   1.06444   1.06479   1.06864   1.07335
 Alpha virt. eigenvalues --    1.08210   1.09642   1.09790   1.10330   1.10398
 Alpha virt. eigenvalues --    1.11113   1.11585   1.12018   1.13781   1.14667
 Alpha virt. eigenvalues --    1.15005   1.15379   1.16956   1.17866   1.19727
 Alpha virt. eigenvalues --    1.21684   1.24975   1.27488   1.28936   1.34067
 Alpha virt. eigenvalues --    1.38249   1.42262   1.46412   1.48056   1.49526
 Alpha virt. eigenvalues --    1.50361   1.50579   1.53565   1.55775   1.56207
 Alpha virt. eigenvalues --    1.59868   1.62841   1.64331   1.67400   1.75421
 Alpha virt. eigenvalues --    1.77718   1.80221   1.91340   1.92476   1.93420
 Alpha virt. eigenvalues --    1.95281   1.97494   1.99004   2.36058   2.37040
 Alpha virt. eigenvalues --    2.41097   2.54099   2.54705   2.55027   2.55751
 Alpha virt. eigenvalues --    2.56106   2.57457   2.96895   3.01825   3.04041
 Alpha virt. eigenvalues --    8.65922   9.15259  11.25189  12.13317  13.17681
 Alpha virt. eigenvalues --   14.78214  19.89604  22.67871
          Condensed to atoms (all electrons):
               1          2          3          4          5          6
     1  Mo  14.808521   0.345883   0.227857   0.163204   0.190255  -0.651638
     2  S    0.345883  15.468657   0.001920  -0.000697  -0.010009  -0.115577
     3  S    0.227857   0.001920  15.519943  -0.044342  -0.001450   0.240563
     4  S    0.163204  -0.000697  -0.044342  15.646195  -0.029086   0.063322
     5  S    0.190255  -0.010009  -0.001450  -0.029086  15.672486   0.025762
     6  Mo  -0.651638  -0.115577   0.240563   0.063322   0.025762  14.999382
     7  S    0.019308  -0.000196  -0.002635  -0.035367   0.000050   0.184278
     8  S   -0.095346  -0.036676   0.015085  -0.000568  -0.000173   0.419752
     9  Mo  -0.449481   0.201308  -0.035454   0.064861  -0.028384  -0.703639
    10  S    0.024387  -0.008181  -0.000160  -0.055442   0.000074  -0.036834
    11  S    0.002450  -0.053244  -0.000162  -0.006015   0.004484  -0.022493
    12  Mo  -0.079399  -0.004572  -0.002559  -0.022434   0.115220   0.070492
    13  Mo   0.001073   0.002925   0.000468  -0.011094   0.000548  -0.035642
    14  S   -0.034000  -0.015321   0.000028  -0.000146  -0.028303  -0.000179
    15  S   -0.003115  -0.000510  -0.000002   0.000021   0.002879   0.002152
    16  S   -0.001451  -0.000011   0.000033  -0.000301   0.000000  -0.043257
    17  S    0.000107  -0.000001   0.000000   0.000343  -0.000000  -0.002236
    18  Mo  -0.073751   0.000013   0.007307   0.010084   0.000184  -0.239294
    19  S   -0.001409  -0.000000   0.000016   0.000051   0.000000  -0.024402
    20  S   -0.007741  -0.000114  -0.005858  -0.005134  -0.000006   0.136924
    21  Mo  -0.215697  -0.021640   0.006097   0.010439   0.088123  -0.078060
    22  S   -0.020453   0.000011  -0.000001   0.000039   0.007857  -0.002155
    23  S    0.148023  -0.036601  -0.001156  -0.003901  -0.042825   0.007250
    24  Mo  -0.026972   0.008058  -0.000294   0.003118  -0.001605  -0.033355
    25  C   -0.000453  -0.000124  -0.000000  -0.000023   0.000000  -0.004668
    26  C   -0.020521   0.004601  -0.000005  -0.002800  -0.000019   0.006167
    27  C   -0.000475  -0.000003   0.000000   0.000006  -0.000000   0.001462
    28  O   -0.000415   0.000003   0.000000   0.000000   0.000000  -0.002182
    29  O    0.000013   0.000000   0.000000   0.000000  -0.000000  -0.000089
    30  O   -0.001257  -0.002940   0.000001  -0.000121   0.000001  -0.000443
               7          8          9         10         11         12
     1  Mo   0.019308  -0.095346  -0.449481   0.024387   0.002450  -0.079399
     2  S   -0.000196  -0.036676   0.201308  -0.008181  -0.053244  -0.004572
     3  S   -0.002635   0.015085  -0.035454  -0.000160  -0.000162  -0.002559
     4  S   -0.035367  -0.000568   0.064861  -0.055442  -0.006015  -0.022434
     5  S    0.000050  -0.000173  -0.028384   0.000074   0.004484   0.115220
     6  Mo   0.184278   0.419752  -0.703639  -0.036834  -0.022493   0.070492
     7  S   15.718801  -0.012943  -0.026850  -0.007257  -0.000093   0.000060
     8  S   -0.012943  15.433955   0.169508  -0.008772  -0.005639   0.002858
     9  Mo  -0.026850   0.169508  15.477958   0.134723   0.197549  -0.159028
    10  S   -0.007257  -0.008772   0.134723  15.743047  -0.053109   0.003232
    11  S   -0.000093  -0.005639   0.197549  -0.053109  15.829540   0.288099
    12  Mo   0.000060   0.002858  -0.159028   0.003232   0.288099  13.246186
    13  Mo   0.133302  -0.003676  -0.058930   0.137155   0.004547  -0.004879
    14  S    0.000000  -0.000002  -0.001427  -0.000005   0.012779   0.232579
    15  S    0.000000  -0.000000  -0.011213   0.000021   0.017913   0.376015
    16  S   -0.037147  -0.019926   0.000315   0.005015   0.000003  -0.000008
    17  S   -0.000582  -0.000258   0.006427  -0.061007  -0.000081   0.000136
    18  Mo   0.090308  -0.037759   0.039179   0.006534   0.000254   0.000604
    19  S    0.011414  -0.000210   0.002545  -0.000005   0.000000   0.000004
    20  S   -0.037682  -0.029061  -0.004812  -0.000009  -0.000005  -0.000046
    21  Mo   0.000103  -0.000668   0.102232  -0.000472  -0.012140  -0.235535
    22  S    0.000000   0.000000   0.005895   0.000000  -0.000010  -0.025762
    23  S   -0.000003   0.000030   0.000152  -0.000010  -0.000070  -0.015330
    24  Mo  -0.020229  -0.030591  -0.209375   0.019961  -0.033229   0.000372
    25  C   -0.000090  -0.000252  -0.001670  -0.017981  -0.000063   0.001079
    26  C    0.000121  -0.011494   0.033157  -0.053255  -0.049645   0.000585
    27  C   -0.000007  -0.000078  -0.027070  -0.001995  -0.000213  -0.000264
    28  O   -0.000000  -0.000021   0.008435   0.000047  -0.000002   0.000153
    29  O   -0.000000   0.000000   0.000103  -0.001255  -0.000052  -0.000045
[...]
 00042141,0.00125616,0.00058641,-0.00056604,0.00076321,0.00009693,0.000
 31860,-0.00031574,0.00044580,0.00123428,0.00005422,0.00026464,0.030548
 97,0.28170303,0.00174505,-0.00056606,-0.00010160,-0.00309601,0.0012554
 8,0.00156472,0.00087970,0.00033208,-0.00079071,0.00173338,0.00449791,-
 0.00372423,-0.00045101,-0.00001856,0.00025795,-0.00034762,0.00300157,0
 .00638068,-0.00129707,0.00459223,0.00230672,0.00972933,-0.01147110,-0.
 01490344,-0.00437924,0.00803954,-0.01424172,-0.00509588,-0.01396491,-0
 .01717018,-0.00123871,-0.00118254,0.00024607,0.00077653,-0.00026665,-0
 .00012306,0.01792143,0.00879934,-0.01147888,-0.00041640,0.00028088,-0.
 00013682,-0.00033126,0.00019591,0.00005829,0.00032942,-0.00293905,0.00
 278721,-0.01850134,0.00144206,-0.02820246,-0.00560735,-0.00235931,0.00
 233709,0.00047610,0.00010536,0.00005972,0.00041731,-0.00001341,-0.0004
 6062,0.00042727,-0.00010498,0.00047846,-0.00014882,0.00017769,-0.00029
 631,-0.00072906,-0.00016941,0.00004051,-0.01922858,-0.00287846,0.27062
 992,0.00076820,-0.00141958,-0.00056304,-0.00042449,0.00059412,0.000029
 93,0.00023660,0.00029865,0.00033273,-0.00005798,-0.00000992,0.00037403
 ,-0.00013294,0.00007391,0.00014424,0.00135584,-0.00072641,-0.00084165,
 0.00066819,-0.00111896,0.00070428,0.00048520,-0.00350817,-0.00254355,-
 0.00077481,-0.00127636,0.00176807,0.00475096,-0.00031408,-0.00029923,0
 .00007660,-0.00031604,0.00007109,-0.00021908,-0.00003518,-0.00059949,-
 0.00522198,0.00116473,0.00725374,-0.00001571,0.00011260,0.00013106,-0.
 00003126,0.00008414,0.00002469,0.00046502,0.00128967,-0.00109440,0.000
 24379,-0.00503145,-0.00427717,0.00173379,-0.00050087,-0.00203590,-0.00
 009173,0.00005854,0.00000751,-0.00028128,0.00017370,0.00007268,0.00019
 258,0.00007606,0.00008095,-0.00006036,0.00007312,-0.00003632,0.0000157
 2,0.00010875,0.00006513,-0.05263140,-0.01305176,0.00125951,0.08691111,
 0.00179558,0.00152895,0.00075202,-0.00160003,-0.00092134,-0.00003089,0
 .00037426,0.00001055,-0.00062179,0.00039681,0.00155149,-0.00119248,-0.
 00061025,-0.00008922,-0.00029453,-0.00391902,0.00335761,-0.00098429,-0
 .00075462,-0.00070690,0.00034238,-0.00190219,-0.00492297,-0.00154902,0
 .01022591,-0.01156074,0.00446674,-0.00307475,-0.01719611,0.00195673,-0
 .00227966,0.00141197,-0.00168614,0.00142589,-0.00088916,0.00143391,0.0
 0092181,0.00833226,-0.00200224,-0.00037261,-0.00028201,-0.00041948,-0.
 00076203,0.00082371,0.00037988,0.00034121,0.00103785,0.00060488,-0.008
 18637,-0.00328373,-0.00075805,-0.00119092,-0.00295905,-0.00189106,0.00
 136449,0.00088465,0.00045989,0.00005913,0.00035712,-0.00017031,0.00081
 382,-0.00046378,0.00085686,-0.00079563,0.00066970,-0.00084851,-0.00055
 827,-0.00045765,-0.00062362,-0.00317513,-0.06698459,0.00382544,-0.0056
 0741,1.15061610,0.00008464,0.00046423,0.00077259,0.00052150,-0.0005726
 6,0.00012449,0.00003690,-0.00008378,-0.00020019,0.00019593,0.00104370,
 -0.00035881,-0.00000676,0.00004487,0.00005982,-0.00022147,0.00027792,0
 .00032849,-0.00046151,-0.00032929,0.00015549,-0.00014209,0.00049222,0.
 00073129,-0.00167461,-0.00209755,0.00247225,-0.00194854,0.00051709,0.0
 0804621,0.00059869,0.00013727,0.00002283,-0.00011677,-0.00000164,-0.00
 025998,-0.00088296,-0.00319805,0.00317119,0.00006558,-0.00006630,0.000
 09151,-0.00001770,0.00004215,0.00003389,0.00100141,0.00109061,-0.00107
 800,-0.00236147,-0.00151196,-0.00227691,0.00091151,-0.00077481,-0.0003
 2020,0.00008633,0.00017608,0.00000522,-0.00001797,0.00009036,-0.000123
 84,0.00020528,-0.00005948,-0.00001800,-0.00006406,0.00004700,-0.000037
 32,0.00005155,0.00012470,-0.00004348,0.00476154,0.01028239,-0.05889774
 ,-0.00346827,0.17821968,0.11360102,0.00327703,0.00355630,-0.00061303,-
 0.00098540,-0.00463795,-0.00017297,-0.00047676,0.00008928,-0.00000772,
 -0.00123708,-0.00088328,-0.00049895,-0.00142130,0.00027829,-0.00058485
 ,-0.00508204,0.00153158,-0.00512251,-0.00204419,-0.00192060,0.00091339
 ,-0.00218560,-0.00187543,0.00121288,0.01655200,0.00555584,0.00643187,-
 0.00346248,-0.00402564,-0.00088394,-0.00099767,0.00017347,0.00128785,-
 0.00045192,0.00040518,-0.00138764,0.00999378,0.01252092,-0.00740853,-0
 .00104171,-0.00054949,0.00081316,-0.00047849,0.00066934,0.00015235,-0.
 00165100,-0.00086576,0.00254721,-0.02782998,-0.00423899,-0.00589590,-0
 .00290107,-0.00418687,-0.00077788,0.00150084,0.00107351,0.00090954,-0.
 00097918,0.00085629,-0.00049688,0.00278666,-0.00058153,-0.00117292,-0.
 00044845,0.00036597,-0.00037999,-0.00205981,0.00066653,-0.00043580,-0.
 06141503,-0.00275730,-0.00228745,-0.00279545,0.01569058,0.00075080,1.1
 2070002,-0.00054173,0.00083995,-0.00104964,-0.00009925,-0.00130021,0.0
 0282940,0.00017962,0.00037321,0.00023508,0.00034373,0.00100695,-0.0003
 7276,0.00015997,0.00000844,0.00030076,0.00417957,-0.00258463,0.0018761
 7,0.00144015,0.00076304,0.00011662,-0.00028160,0.00073416,0.00097376,-
 0.00257979,0.00090137,0.00238401,-0.00379915,0.00169966,-0.00455488,0.
 00063601,-0.00210036,0.00010265,0.00036666,-0.00023875,0.00004056,-0.0
 0428767,-0.00218845,0.00170406,-0.00007972,-0.00009073,-0.00004586,-0.
 00010586,0.00011920,0.00008119,0.00026603,-0.00070141,-0.00015341,0.00
 475232,0.00320936,-0.00184681,-0.00053859,0.00273528,0.00021856,0.0000
 2173,-0.00009314,-0.00023321,0.00034485,-0.00066343,-0.00006088,0.0002
 9252,-0.00038376,-0.00004948,-0.00006197,0.00009968,-0.00012126,-0.000
 39525,0.00019125,0.00013877,-0.01121829,-0.04974313,-0.00300488,0.0178
 2194,0.00328236,0.00269341,0.08465887,0.08558160,0.00064031,-0.0003096
 6,-0.00096181,-0.00060961,0.00161967,-0.00453200,-0.00019415,0.0005441
 2,0.00045038,-0.00026386,-0.00016393,0.00050247,-0.00010097,-0.0001028
 3,-0.00017218,0.00090311,-0.00008738,-0.00118121,0.00202834,-0.0016069
 8,-0.00049855,0.00180507,-0.00303242,-0.00171115,0.00256768,-0.0049649
 0,0.00542861,-0.00046255,-0.00038498,0.00259949,-0.00068123,0.00081015
 ,-0.00047267,-0.00013014,0.00011982,0.00036082,-0.01245469,0.00355417,
 0.00168640,-0.00013318,-0.00014947,-0.00002024,0.00005082,0.00004319,0
 .00003525,-0.00006523,0.00046752,-0.00032608,-0.00417742,-0.00509937,0
 .00457556,0.00080270,0.00158262,-0.00100927,0.00010111,-0.00006545,-0.
 00003468,-0.00037230,-0.00014064,-0.00041704,-0.00011036,0.00014006,-0
 .00013131,0.00000244,0.00002148,0.00001679,0.00004560,-0.00003807,-0.0
 0005211,0.01081080,0.00796981,-0.04355996,0.00108019,-0.00129800,0.003
 85786,0.17775992,0.01527610,0.10545510,0.00039788,0.00031830,-0.000292
 58,-0.00024929,0.00005147,0.00038252,-0.00003234,-0.00020863,0.0001133
 9,0.00028749,0.00107023,-0.00056587,-0.00033133,0.00004392,0.00006912,
 -0.00225690,0.00147972,0.00125630,-0.00061311,0.00031090,-0.00025170,-
 0.00016640,-0.00335110,0.00226861,0.00359291,-0.00516642,-0.00058355,-
 0.00092291,-0.00233663,0.00306336,-0.00088248,0.00004373,0.00017423,0.
 00049876,-0.00032160,0.00009676,0.00608329,0.00088993,-0.00275354,-0.0
 0015173,-0.00004367,-0.00004434,-0.00036300,0.00035308,0.00013839,-0.0
 0117983,-0.00100557,-0.00041169,-0.01241076,0.00041551,0.00668297,-0.0
 0105945,0.00011162,0.00098319,0.00060399,0.00042026,0.00010740,0.00014
 022,-0.00023200,-0.00011723,0.00050940,-0.00019818,0.00024887,-0.00022
 392,0.00019402,-0.00026629,-0.00036155,0.00000715,-0.00015079,-0.05486
 826,-0.00119053,0.01599332,0.00117402,0.00832471,0.00191409,0.01044442
 ,0.00430288,-0.01511245,0.23740832,0.00002108,0.00036128,0.00037703,0.
 00025729,-0.00045465,-0.00024456,-0.00011781,-0.00031736,-0.00015818,-
 0.00054109,-0.00058235,0.00035572,0.00006782,0.00007524,-0.00003142,-0
 .00012909,-0.00053653,-0.00069147,-0.00088395,-0.00080128,0.00034283,-
 0.00264673,0.00044662,0.00507650,-0.00450157,0.00397426,0.00299384,-0.
 00173260,-0.00234616,0.00593429,0.00063637,0.00041575,-0.00031571,0.00
 003760,-0.00011043,-0.00021245,0.00433697,0.00381195,-0.00370204,0.000
 03326,-0.00003541,0.00004676,-0.00011854,0.00011888,0.00007047,-0.0003
 1162,0.00004675,0.00068619,-0.00315145,0.00062949,0.00190113,-0.000732
 50,-0.00105626,0.00005345,0.00037883,0.00028173,0.00023113,-0.00028151
 ,0.00002618,-0.00022050,0.00030211,-0.00010683,-0.00008001,-0.00011111
 ,0.00006528,-0.00006763,-0.00004632,0.00008676,-0.00009349,0.00224573,
 -0.06289353,0.00510085,0.00857483,0.00704461,-0.01654479,0.00050196,0.
 00577676,0.00257081,0.04503601,0.10444419,-0.00142214,0.00000189,-0.00
 076868,0.00119166,-0.00010435,-0.00045273,-0.00046471,0.00020660,0.000
 35113,-0.00045725,-0.00170546,0.00152603,0.00076351,-0.00009586,-0.000
 02482,0.00219478,-0.00201126,-0.00167226,0.00096738,-0.00061243,-0.000
 47870,0.00444164,0.00832927,-0.00449620,-0.00158983,0.00836266,-0.0044
 8055,0.00254494,0.00086558,-0.00467531,0.00134503,-0.00024525,0.000347
 40,-0.00104386,0.00078274,0.00019122,-0.00541589,-0.00735062,0.0109193
 0,0.00032862,0.00000039,0.00000877,0.00086962,-0.00089287,-0.00036078,
 0.00083112,0.00164160,-0.00137702,0.00568217,0.00410290,-0.00200093,0.
 00377672,0.00197201,-0.00067205,-0.00144130,-0.00087369,-0.00039896,0.
 00000637,0.00001372,0.00035661,-0.00129646,0.00044162,-0.00067732,0.00
 059869,-0.00053630,0.00068903,0.00071864,-0.00007917,0.00027713,0.0008
 7611,0.00235586,-0.07497500,0.00099182,-0.01750755,-0.00759963,-0.0076
 8567,-0.00379959,-0.01160805,-0.36980285,-0.11812990,1.04525097,-0.000
 15815,0.00041295,0.00012298,0.00008758,-0.00014483,-0.00005266,-0.0000
 3892,-0.00009824,-0.00008088,0.00000167,-0.00001489,-0.00013296,0.0000
 4186,-0.00002724,-0.00004536,-0.00034279,0.00031629,0.00012034,-0.0001
 6730,0.00023885,-0.00020528,0.00000162,0.00071204,0.00063138,0.0003597
 9,0.00007994,0.00002879,-0.00163078,0.00052490,0.00012725,-0.00005244,
 0.00010295,-0.00006481,0.00005525,0.00000574,0.00016507,0.00094302,-0.
 00051955,-0.00154038,0.00000873,-0.00002595,-0.00003210,0.00000308,-0.
 00001450,-0.00000301,-0.00003269,-0.00023575,0.00034447,-0.00032408,0.
 00116190,0.00073605,-0.00040806,0.00008871,0.00039653,0.00002159,-0.00
 001359,-0.00000296,0.00007044,-0.00003425,-0.00002342,-0.00006273,-0.0
 0002845,-0.00002677,0.00001045,-0.00001284,0.00000515,-0.00000793,-0.0
 0002083,-0.00001817,0.01870166,0.00328909,-0.00051412,-0.03787620,0.00
 848298,0.00202229,0.00143922,-0.00352218,0.00006132,0.00006672,-0.0019
 1255,-0.00035238,0.02002743,-0.00109020,-0.00068092,-0.00012682,0.0011
 5319,0.00061744,-0.00014634,-0.00022952,-0.00003478,0.00038696,-0.0002
 1759,-0.00067596,0.00061584,0.00034381,0.00001725,0.00010323,0.0015747
 6,-0.00147514,0.00040714,0.00047193,0.00041264,-0.00025991,0.00111842,
 0.00261554,0.00048831,-0.00483612,0.00489724,-0.00386351,-0.00084385,0
 .00200846,-0.00088923,0.00130934,-0.00084928,0.00093143,-0.00098347,0.
 00059957,-0.00077970,0.00062325,-0.00613846,0.00096157,0.00025033,0.00
 016551,0.00025750,0.00050775,-0.00053621,-0.00025236,-0.00037926,-0.00
 028772,-0.00038403,0.00354690,0.00325952,-0.00036216,0.00099670,0.0017
 5371,0.00075252,-0.00096355,-0.00063425,-0.00028163,-0.00000853,-0.000
 11745,0.00018130,-0.00061876,0.00034112,-0.00055737,0.00053057,-0.0004
 4702,0.00056613,0.00041997,0.00023291,0.00037258,0.00403933,-0.0553897
 9,-0.01312771,0.00775138,-1.06767913,-0.17350829,-0.01041204,-0.001645
 53,-0.00054158,-0.00440814,-0.00234842,0.01049645,-0.00988760,1.120495
 54,-0.00009873,-0.00004213,-0.00026878,-0.00006819,0.00013344,0.000037
 02,-0.00003561,0.00001705,0.00010470,-0.00002398,-0.00024780,0.0000546
 6,0.00004644,-0.00002302,0.00000025,0.00016335,-0.00006880,0.00009058,
 0.00030105,0.00012269,-0.00015245,0.00022106,0.00000543,-0.00015431,0.
 00021323,0.00082474,-0.00104125,0.00025339,-0.00036052,-0.00292710,-0.
 00006247,-0.00013569,0.00008796,-0.00005960,0.00005960,-0.00000118,-0.
 00006820,0.00000267,-0.00032007,0.00000987,0.00003870,0.00000874,0.000
 05258,-0.00005944,-0.00003217,-0.00025676,-0.00027007,0.00013491,0.000
 92871,0.00071867,0.00044384,-0.00003286,0.00047668,0.00015706,-0.00013
 765,-0.00012729,-0.00005759,0.00002382,-0.00005257,0.00006340,-0.00012
 032,0.00002066,-0.00007370,0.00007017,-0.00005417,0.00006439,-0.000016
 65,-0.00000814,0.00006303,-0.00100078,-0.01606105,0.01829665,0.0020361
 5,-0.17164169,-0.06556266,-0.00101147,-0.00070963,-0.00084754,-0.00106
 120,0.00317353,0.00341358,-0.00180571,0.18469731,0.05007121,-0.0002553
 4,-0.00006955,0.00004063,0.00009861,-0.00008883,-0.00012749,-0.0000740
 5,0.00005020,-0.00003599,-0.00009155,-0.00046609,0.00022775,0.00020621
 ,-0.00002079,-0.00002138,0.00057063,-0.00040073,-0.00041928,0.00023328
 ,-0.00011494,-0.00004642,-0.00032953,0.00091631,0.00010197,-0.00175217
 ,0.00273233,-0.00035316,0.00063407,0.00052653,-0.00149966,0.00050748,-
 0.00009190,0.00003185,-0.00031677,0.00021770,-0.00000750,-0.00163732,-
 0.00081471,0.00172435,0.00008296,0.00002159,0.00000258,0.00024427,-0.0
 0025319,-0.00010225,0.00017093,0.00010655,0.00007116,0.00360321,-0.000
 05758,-0.00129800,0.00048916,0.00026624,-0.00009453,-0.00036139,-0.000
 23089,-0.00005509,-0.00002233,0.00004621,0.00004912,-0.00033674,0.0001
 4735,-0.00015628,0.00015901,-0.00014614,0.00018364,0.00021785,-0.00002
 064,0.00007540,0.00734654,-0.00308629,0.02532424,0.00029488,-0.0047924
 2,-0.00117553,-0.00412789,-0.00153642,0.00231035,-0.17973707,-0.043823
 60,0.35557073,-0.00016993,0.00290383,0.00067107,0.17145551,-0.00009582
 ,-0.00010840,-0.00004942,-0.00004840,0.00011187,-0.00003190,0.00000536
 ,0.00007138,0.00003092,0.00009547,0.00001508,-0.00000960,0.00000472,-0
 .00002628,-0.00000392,-0.00020527,0.00032678,0.00009764,0.00019387,0.0
 0019049,-0.00008262,0.00061824,-0.00043377,-0.00107742,0.00146805,-0.0
 0068676,-0.00124599,0.00036524,0.00053108,-0.00151920,-0.00013657,-0.0
 0008638,0.00007012,-0.00003278,0.00005037,0.00011011,-0.00086982,-0.00
 109653,0.00106354,0.00000191,0.00000300,-0.00003157,0.00006029,-0.0000
 6692,-0.00003070,-0.00001268,-0.00000357,-0.00013569,0.00090528,0.0001
 2633,-0.00045764,0.00025423,0.00031810,-0.00003123,-0.00015752,-0.0001
 0032,-0.00005450,0.00007465,0.00000622,0.00007433,-0.00014534,0.000069
 03,0.00001307,0.00005769,-0.00004658,0.00004892,0.00007232,-0.00004303
 ,0.00002510,-0.00472426,0.02030279,0.00913682,-0.00183771,-0.00205585,
 0.00358373,-0.00080797,-0.00087926,-0.00068979,-0.04399413,-0.05456994
 ,0.11265484,0.00043038,0.00094809,-0.00064916,0.04761708,0.03683729,0.
 00082475,0.00019593,0.00046009,-0.00042537,0.00007940,0.00023644,0.000
 25234,-0.00010368,-0.00019124,0.00018080,0.00092145,-0.00069108,-0.000
 50891,0.00007291,-0.00001438,-0.00104805,0.00068395,0.00035527,-0.0005
 8358,0.00020552,0.00026140,-0.00024679,-0.00094865,-0.00018570,0.00205
 097,-0.00506099,0.00163043,-0.00114702,-0.00102364,0.00313463,-0.00105
 066,0.00032283,-0.00022518,0.00077827,-0.00055644,-0.00000105,0.002861
 00,0.00339140,-0.00634610,-0.00020784,-0.00004789,-0.00001117,-0.00060
 136,0.00063189,0.00024759,-0.00025769,-0.00048499,0.00060507,-0.004719
 32,-0.00159956,0.00176141,-0.00189397,-0.00134646,0.00003462,0.0009753
 8,0.00060424,0.00023827,0.00002473,0.00002282,-0.00011813,0.00088801,-
 0.00034304,0.00041997,-0.00042193,0.00037357,-0.00047447,-0.00050172,0
 .00002478,-0.00020833,0.02792893,0.00743649,-0.04867352,-0.00036938,0.
 01058195,0.00395784,0.00800439,0.00253018,0.00377390,0.35626905,0.1125
 5325,-0.95039004,0.00015805,-0.00692415,-0.00188698,-0.38095919,-0.121
 12867,0.99385841,-0.00197831,-0.00194807,0.00047139,0.00031917,0.00223
 308,0.00049568,0.00028781,-0.00008840,-0.00001645,0.00047181,-0.000208
 49,0.00060726,0.00103408,-0.00019815,0.00029696,0.00319478,-0.00108472
 ,0.00257724,0.00090601,0.00051987,-0.00032475,0.00098168,0.00079360,-0
 .00065908,-0.01244227,-0.00200984,-0.00385736,0.00246132,0.00143187,0.
 00052808,0.00086617,0.00051680,-0.00117013,0.00014450,-0.00020187,0.00
 097215,-0.00400298,-0.00274008,0.00104764,0.00079821,0.00037249,-0.000
 50133,0.00034637,-0.00044280,-0.00009406,0.00035924,0.00019363,-0.0008
 2746,0.00691909,0.00024981,0.00032716,0.00134572,0.00240529,0.00010176
 ,-0.00087406,-0.00063639,-0.00042509,0.00050322,-0.00045735,0.00030859
 ,-0.00191018,0.00040862,0.00072431,0.00027459,-0.00024914,0.00027008,0
 .00145438,-0.00049166,0.00029429,-0.05420988,0.00004011,-0.01334267,0.
 00124216,-0.01063587,-0.00064834,-1.04262146,-0.09071940,-0.16610161,-
 0.00539709,-0.00138782,0.00727280,-0.00056812,0.00733717,0.00086927,0.
 00289751,0.00084349,-0.00625389,1.09719652,0.00006512,-0.00014838,0.00
 034894,-0.00056782,0.00002279,-0.00011985,-0.00003477,-0.00007437,-0.0
 0003589,-0.00011745,-0.00042226,0.00021317,-0.00001568,-0.00003893,-0.
 00010354,-0.00084796,0.00061978,-0.00041378,-0.00034436,-0.00028998,-0
 .00008869,0.00027291,-0.00029516,-0.00031183,-0.00115590,-0.00071899,-
 0.00017497,0.00100456,-0.00025486,0.00102722,-0.00024718,-0.00089572,0
 .00040934,-0.00046784,0.00001595,-0.00019030,0.00077414,0.00050380,-0.
 00028778,0.00005147,0.00011351,0.00003512,0.00009648,-0.00006198,-0.00
 003505,-0.00004208,0.00021682,0.00004228,-0.00100902,-0.00157972,0.000
 09428,0.00028733,-0.00064788,-0.00013414,-0.00006731,-0.00000753,0.000
 04046,-0.00005097,0.00016590,0.00006733,-0.00007333,0.00011506,-0.0001
 3651,0.00004944,-0.00007466,0.00008277,0.00007688,-0.00003442,-0.00003
 085,0.00034999,0.01818449,0.00128387,-0.00350222,-0.00045672,-0.000578
 81,-0.09085107,-0.04470947,-0.01604405,-0.00091685,-0.00144658,0.00171
 614,0.00066649,0.00057552,0.00022004,0.00046277,0.00029569,-0.00106439
 ,0.09615422,0.03132829,-0.00049514,-0.00060235,0.00039066,0.00143140,0
 .00136566,-0.00038975,0.00011061,-0.00013741,-0.00017527,0.00020851,0.
 00016816,-0.00004247,0.00011857,0.00004710,0.00010589,0.00045134,-0.00
 027563,0.00055664,-0.00051067,0.00031801,0.00032034,-0.00028193,0.0004
 9132,0.00030051,-0.00188345,0.00120974,-0.00144684,0.00023641,0.000347
 08,-0.00045489,0.00035997,0.00002946,0.00002779,0.00002176,-0.00014096
 ,-0.00015905,0.00276712,-0.00063708,-0.00051888,0.00016248,0.00015340,
 -0.00004021,-0.00002921,-0.00000743,0.00000413,0.00014461,-0.00004909,
 0.00003800,0.00165892,0.00099904,-0.00205852,-0.00013698,-0.00022257,0
 .00011760,-0.00009611,-0.00003531,-0.00001784,0.00010048,-0.00002622,0
 .00008986,-0.00015603,-0.00000392,0.00019917,-0.00000384,-0.00001498,-
 0.00000063,0.00017530,-0.00005198,0.00002741,-0.01875369,-0.00136463,0
 .01229227,-0.00029942,-0.00036068,-0.00065524,-0.16395929,-0.01549899,
 -0.06120677,0.00165252,-0.00097564,0.00377785,-0.00001873,0.00078655,0
 .00023379,-0.00003307,0.00031989,-0.00155798,0.17705756,0.01416947,0.0
 5024241\\0.00000858,-0.00001606,-0.00000555,-0.00000117,0.00000443,0.0
 0001143,-0.00001084,0.00001160,-0.00001599,0.00001201,-0.00001052,0.00
 000517,-0.00000815,0.00000158,0.00000828,0.00001447,-0.00004583,0.0000
 2529,0.00001421,0.00002151,-0.00000079,0.00002104,0.00000277,-0.000004
 67,-0.00005650,0.00003425,-0.00003652,-0.00000105,-0.00001093,0.000002
 76,0.00000102,0.00001353,0.00000461,-0.00000258,0.00000011,0.00000159,
 -0.00001388,-0.00000994,0.00002008,-0.00000214,-0.00000039,-0.00000034
 ,0.00000038,-0.00000091,-0.00000052,-0.00000479,-0.00000108,-0.0000099
 8,-0.00000297,0.00000489,0.00000425,-0.00000733,0.00000420,-0.00000092
 ,0.00000221,0.00000167,-0.00000273,-0.00000395,0.00000203,0.00000996,0
 .00001122,0.00000116,-0.00000979,-0.00000331,0.00000396,0.00000405,-0.
 00000591,0.00000182,0.00000532,0.00005198,-0.00001045,0.00000386,-0.00
 001567,0.00002119,-0.00001065,-0.00002730,-0.00001609,-0.00000709,0.00
 000612,-0.00000483,0.00000362,-0.00000369,-0.00001251,-0.00000087,-0.0
 0000218,0.00000105,-0.00000350,0.00003017,0.00000783,-0.00000037\\\@
 The archive entry for this job was punched.


 IT IS UNWORTHY OF EXCELLENT MEN TO LOSE HOURS LIKE SLAVES IN THE LABOR
 OF CALCULATION WHICH COULD BE SAFELY RELEGATED TO ANYONE ELSE
 IF A MACHINE WERE USED.
    -- G.W. VON LEIBNIZ
 Job cpu time:       0 days  7 hours 45 minutes 22.9 seconds.
 Elapsed time:       0 days  0 hours 10 minutes  9.9 seconds.
 File lengths (MBytes):  RWF=   1439 Int=      0 D2E=      0 Chk=     27 Scr=      2
 Normal termination of Gaussian 16 at Fri Dec  9 20:16:19 2022.
