 Entering Gaussian System, Link 0=g16
 Initial command:
 /home/chesagar/softwares/G16_AVX2//g16/l1.exe "/home/chesagar/scratch/Gau-82032.inp" -scrdir="/home/chesagar/scratch/"
 Entering Link 1 = /home/chesagar/softwares/G16_AVX2//g16/l1.exe PID=     82033.
  
 Copyright (c) 1988-2019, Gaussian, Inc.  All Rights Reserved.
  
 This is part of the Gaussian(R) 16 program.  It is based on
 the Gaussian(R) 09 system (copyright 2009, Gaussian, Inc.),
 the Gaussian(R) 03 system (copyright 2003, Gaussian, Inc.),
 the Gaussian(R) 98 system (copyright 1998, Gaussian, Inc.),
 the Gaussian(R) 94 system (copyright 1995, Gaussian, Inc.),
 the Gaussian 92(TM) system (copyright 1992, Gaussian, Inc.),
 the Gaussian 90(TM) system (copyright 1990, Gaussian, Inc.),
 the Gaussian 88(TM) system (copyright 1988, Gaussian, Inc.),
 the Gaussian 86(TM) system (copyright 1986, Carnegie Mellon
 University), and the Gaussian 82(TM) system (copyright 1983,
 Carnegie Mellon University). Gaussian is a federally registered
 trademark of Gaussian, Inc.
  
 This software contains proprietary and confidential information,
 including trade secrets, belonging to Gaussian, Inc.
  
 This software is provided under written license and may be
 used, copied, transmitted, or stored only in accord with that
 written license.
  
 The following legend is applicable only to US Government
 contracts under FAR:
  
                    RESTRICTED RIGHTS LEGEND
  
 Use, reproduction and disclosure by the US Government is
 subject to restrictions as set forth in subparagraphs (a)
 and (c) of the Commercial Computer Software - Restricted
 Rights clause in FAR 52.227-19.
  
 Gaussian, Inc.
 340 Quinnipiac St., Bldg. 40, Wallingford CT 06492
  
  
 ---------------------------------------------------------------
 Warning -- This program may not be used in any manner that
 competes with the business of Gaussian, Inc. or will provide
 assistance to any competitor of Gaussian, Inc.  The licensee
 of this program is prohibited from giving any competitor of
 Gaussian, Inc. access to this program.  By using this program,
 the user acknowledges that Gaussian, Inc. is engaged in the
 business of creating and licensing software in the field of
 computational chemistry and represents and warrants to the
 licensee that it is not a competitor of Gaussian, Inc. and that
 it will not use this program in any manner prohibited above.
 ---------------------------------------------------------------
  

 Cite this work as:
 Gaussian 16, Revision C.01,
 M. J. Frisch, G. W. Trucks, H. B. Schlegel, G. E. Scuseria, 
 M. A. Robb, J. R. Cheeseman, G. Scalmani, V. Barone, 
 G. A. Petersson, H. Nakatsuji, X. Li, M. Caricato, A. V. Marenich, 
 J. Bloino, B. G. Janesko, R. Gomperts, B. Mennucci, H. P. Hratchian, 
 J. V. Ortiz, A. F. Izmaylov, J. L. Sonnenberg, D. Williams-Young, 
 F. Ding, F. Lipparini, F. Egidi, J. Goings, B. Peng, A. Petrone, 
 T. Henderson, D. Ranasinghe, V. G. Zakrzewski, J. Gao, N. Rega, 
 G. Zheng, W. Liang, M. Hada, M. Ehara, K. Toyota, R. Fukuda, 
 J. Hasegawa, M. Ishida, T. Nakajima, Y. Honda, O. Kitao, H. Nakai, 
 T. Vreven, K. Throssell, J. A. Montgomery, Jr., J. E. Peralta, 
 F. Ogliaro, M. J. Bearpark, J. J. Heyd, E. N. Brothers, K. N. Kudin, 
 V. N. Staroverov, T. A. Keith, R. Kobayashi, J. Normand, 
 K. Raghavachari, A. P. Rendell, J. C. Burant, S. S. Iyengar, 
 J. Tomasi, M. Cossi, J. M. Millam, M. Klene, C. Adamo, R. Cammi, 
 J. W. Ochterski, R. L. Martin, K. Morokuma, O. Farkas, 
 J. B. Foresman, and D. J. Fox, Gaussian, Inc., Wallingford CT, 2019.
 
 ******************************************
 Gaussian 16:  ES64L-G16RevC.01  3-Jul-2019
                10-Dec-2022 
 ******************************************
 %nprocshared=46
 Will use up to   46 processors via shared memory.
 %mem=100GB
 ---------------------------------------
 # opt freq b3lyp/gen nosymm pseudo=read
 ---------------------------------------
 1/18=20,19=15,26=3,38=1/1,3;
 2/9=110,12=2,15=1,17=6,18=5,40=1/2;
 3/5=7,11=2,16=1,17=8,25=1,30=1,71=1,74=-5/1,2,3;
 4//1;
 5/5=2,38=5/2;
 6/7=2,8=2,9=2,10=2,28=1/1;
 7/30=1/1,2,3,16;
 1/18=20,19=15,26=3/3(2);
 2/9=110,15=1/2;
 99//99;
 2/9=110,15=1/2;
 3/5=7,6=1,11=2,16=1,17=8,25=1,30=1,71=1,74=-5,82=7/1,2,3;
 4/5=5,16=3,69=1/1;
 5/5=2,38=5/2;
 7/30=1/1,2,3,16;
 1/18=20,19=15,26=3/3(-5);
 2/9=110,15=1/2;
 6/7=2,8=2,9=2,10=2,19=2,28=1/1;
 99/9=1/99;
 -------------------
 Title Card Required
 -------------------
 Symbolic Z-matrix:
 Charge =  0 Multiplicity = 1
 42                    0.371     2.31174   12.15493 
 16                    1.37477   4.16725   11.32396 
 16                   -1.53033   3.0978    13.08096 
 16                   -0.5666    0.99547   10.36259 
 16                    1.90652   0.1925    12.17193 
 42                   -2.17774   2.69      10.75053 
 16                   -3.24011   1.55671   8.78709 
 16                   -1.63782   4.98089   10.0379 
 42                    0.16958   3.15549   9.58202 
 16                   -0.54305   2.95013   7.24733 
 16                    2.2836    1.95701   8.81545 
 42                    3.43274   1.16189   10.59488 
 42                   -2.56948   3.91516   8.1823 
 16                    4.5815    2.74568   11.85172 
 16                    4.81144  -0.31963   10.01799 
 16                   -4.94831   4.63862   8.33138 
 16                   -2.34273   5.61097   6.68397 
 42                   -5.00055   2.78371   9.60103 
 16                   -6.84429   1.74218   9.51875 
 16                   -4.42863   3.33918   11.68829 
 42                    3.29163   1.61781   13.42814 
 16                    4.50314   0.55681   14.79459 
 16                    1.65196   2.84376   14.33074 
 42                   -0.14457   5.43926   7.8067 
 6                     1.84698   5.43043   8.31405 
 6                     0.57819   5.69684   5.93505 
 8                     0.99535   5.82932   4.87272 
 8                     2.97812   5.5325    8.49888 
 

 GradGradGradGradGradGradGradGradGradGradGradGradGradGradGradGradGradGrad
 Berny optimization.
 Initialization pass.
                           ----------------------------
                           !    Initial Parameters    !
                           ! (Angstroms and Degrees)  !
 --------------------------                            --------------------------
 ! Name  Definition              Value          Derivative Info.                !
 --------------------------------------------------------------------------------
 ! R1    R(1,2)                  2.2674         estimate D2E/DX2                !
 ! R2    R(1,3)                  2.2562         estimate D2E/DX2                !
 ! R3    R(1,4)                  2.4133         estimate D2E/DX2                !
 ! R4    R(1,5)                  2.6171         estimate D2E/DX2                !
 ! R5    R(1,6)                  2.9345         estimate D2E/DX2                !
 ! R6    R(1,9)                  2.7152         estimate D2E/DX2                !
 ! R7    R(1,23)                 2.5803         estimate D2E/DX2                !
 ! R8    R(2,9)                  2.3474         estimate D2E/DX2                !
 ! R9    R(3,6)                  2.4528         estimate D2E/DX2                !
 ! R10   R(4,6)                  2.3702         estimate D2E/DX2                !
 ! R11   R(4,9)                  2.4118         estimate D2E/DX2                !
 ! R12   R(5,12)                 2.3992         estimate D2E/DX2                !
 ! R13   R(5,21)                 2.3512         estimate D2E/DX2                !
 ! R14   R(6,7)                  2.5036         estimate D2E/DX2                !
 ! R15   R(6,8)                  2.4592         estimate D2E/DX2                !
 ! R16   R(6,9)                  2.6631         estimate D2E/DX2                !
 ! R17   R(6,13)                 2.8723         estimate D2E/DX2                !
 ! R18   R(6,18)                 3.0493         estimate D2E/DX2                !
 ! R19   R(6,20)                 2.5234         estimate D2E/DX2                !
 ! R20   R(7,13)                 2.5254         estimate D2E/DX2                !
 ! R21   R(7,18)                 2.295          estimate D2E/DX2                !
 ! R22   R(8,9)                  2.6089         estimate D2E/DX2                !
 ! R23   R(8,13)                 2.3339         estimate D2E/DX2                !
 ! R24   R(8,24)                 2.7236         estimate D2E/DX2                !
 ! R25   R(9,10)                 2.4496         estimate D2E/DX2                !
 ! R26   R(9,11)                 2.5481         estimate D2E/DX2                !
 ! R27   R(9,24)                 2.9096         estimate D2E/DX2                !
 ! R28   R(10,13)                2.4314         estimate D2E/DX2                !
 ! R29   R(10,24)                2.5821         estimate D2E/DX2                !
 ! R30   R(11,12)                2.2625         estimate D2E/DX2                !
 ! R31   R(12,14)                2.3254         estimate D2E/DX2                !
 ! R32   R(12,15)                2.1044         estimate D2E/DX2                !
 ! R33   R(12,21)                2.8732         estimate D2E/DX2                !
 ! R34   R(13,16)                2.4909         estimate D2E/DX2                !
 ! R35   R(13,17)                2.2742         estimate D2E/DX2                !
 ! R36   R(13,18)                3.0337         estimate D2E/DX2                !
 ! R37   R(13,24)                2.8886         estimate D2E/DX2                !
 ! R38   R(14,21)                2.3283         estimate D2E/DX2                !
 ! R39   R(16,18)                2.2484         estimate D2E/DX2                !
 ! R40   R(17,24)                2.4742         estimate D2E/DX2                !
 ! R41   R(18,19)                2.1192         estimate D2E/DX2                !
 ! R42   R(18,20)                2.2343         estimate D2E/DX2                !
 ! R43   R(21,22)                2.112          estimate D2E/DX2                !
 ! R44   R(21,23)                2.2374         estimate D2E/DX2                !
 ! R45   R(24,25)                2.0552         estimate D2E/DX2                !
 ! R46   R(24,26)                2.0228         estimate D2E/DX2                !
 ! R47   R(25,28)                1.1507         estimate D2E/DX2                !
 ! R48   R(26,27)                1.149          estimate D2E/DX2                !
 ! A1    A(2,1,3)              103.791          estimate D2E/DX2                !
 ! A2    A(2,1,4)              110.252          estimate D2E/DX2                !
 ! A3    A(2,1,5)              113.9104         estimate D2E/DX2                !
 ! A4    A(2,1,6)               95.9479         estimate D2E/DX2                !
 ! A5    A(2,1,23)              85.4421         estimate D2E/DX2                !
 ! A6    A(3,1,4)               99.6393         estimate D2E/DX2                !
 ! A7    A(3,1,5)              140.7045         estimate D2E/DX2                !
 ! A8    A(3,1,9)              102.6002         estimate D2E/DX2                !
 ! A9    A(3,1,23)              90.0244         estimate D2E/DX2                !
 ! A10   A(4,1,5)               77.9429         estimate D2E/DX2                !
 ! A11   A(4,1,23)             158.6827         estimate D2E/DX2                !
 ! A12   A(5,1,6)              128.1028         estimate D2E/DX2                !
 ! A13   A(5,1,9)              107.5365         estimate D2E/DX2                !
 ! A14   A(5,1,23)              82.5426         estimate D2E/DX2                !
 ! A15   A(6,1,23)             143.9151         estimate D2E/DX2                !
 ! A16   A(9,1,23)             140.5154         estimate D2E/DX2                !
 ! A17   A(1,5,12)              92.3946         estimate D2E/DX2                !
 ! A18   A(1,5,21)              81.8497         estimate D2E/DX2                !
 ! A19   A(1,6,7)              133.2765         estimate D2E/DX2                !
 ! A20   A(1,6,8)               93.9032         estimate D2E/DX2                !
 ! A21   A(1,6,13)             126.9661         estimate D2E/DX2                !
 ! A22   A(1,6,20)             129.0544         estimate D2E/DX2                !
 ! A23   A(3,6,4)               95.4486         estimate D2E/DX2                !
 ! A24   A(3,6,7)              158.8073         estimate D2E/DX2                !
 ! A25   A(3,6,8)               93.583          estimate D2E/DX2                !
 ! A26   A(3,6,9)               98.9269         estimate D2E/DX2                !
 ! A27   A(3,6,13)             144.5474         estimate D2E/DX2                !
 ! A28   A(3,6,18)             126.6832         estimate D2E/DX2                !
 ! A29   A(3,6,20)              80.7691         estimate D2E/DX2                !
 ! A30   A(4,6,7)               80.5873         estimate D2E/DX2                !
 ! A31   A(4,6,8)              117.9915         estimate D2E/DX2                !
 ! A32   A(4,6,13)             104.555          estimate D2E/DX2                !
 ! A33   A(4,6,18)             126.1238         estimate D2E/DX2                !
 ! A34   A(4,6,20)             148.3336         estimate D2E/DX2                !
 ! A35   A(7,6,8)              106.7137         estimate D2E/DX2                !
 ! A36   A(7,6,9)               96.2594         estimate D2E/DX2                !
 ! A37   A(7,6,20)              91.6843         estimate D2E/DX2                !
 ! A38   A(8,6,18)              93.7485         estimate D2E/DX2                !
 ! A39   A(8,6,20)              93.6623         estimate D2E/DX2                !
 ! A40   A(9,6,13)              69.7162         estimate D2E/DX2                !
 ! A41   A(9,6,18)             130.1788         estimate D2E/DX2                !
 ! A42   A(9,6,20)             154.7358         estimate D2E/DX2                !
 ! A43   A(13,6,20)             95.7906         estimate D2E/DX2                !
 ! A44   A(6,8,24)             120.9669         estimate D2E/DX2                !
 ! A45   A(9,8,13)              79.521          estimate D2E/DX2                !
 ! A46   A(1,9,8)               95.9252         estimate D2E/DX2                !
 ! A47   A(1,9,10)             153.9814         estimate D2E/DX2                !
 ! A48   A(1,9,11)              94.4372         estimate D2E/DX2                !
 ! A49   A(1,9,24)             146.1078         estimate D2E/DX2                !
 ! A50   A(2,9,4)              107.611          estimate D2E/DX2                !
 ! A51   A(2,9,6)              101.6695         estimate D2E/DX2                !
 ! A52   A(2,9,8)               85.667          estimate D2E/DX2                !
 ! A53   A(2,9,10)             153.2172         estimate D2E/DX2                !
 ! A54   A(2,9,11)              90.0009         estimate D2E/DX2                !
 ! A55   A(2,9,24)              99.7824         estimate D2E/DX2                !
 ! A56   A(4,9,8)              111.0145         estimate D2E/DX2                !
 ! A57   A(4,9,10)              98.3128         estimate D2E/DX2                !
 ! A58   A(4,9,11)              85.9495         estimate D2E/DX2                !
 ! A59   A(4,9,24)             150.1648         estimate D2E/DX2                !
 ! A60   A(6,9,10)              98.46           estimate D2E/DX2                !
 ! A61   A(6,9,11)             141.3565         estimate D2E/DX2                !
 ! A62   A(6,9,24)             108.0441         estimate D2E/DX2                !
 ! A63   A(8,9,10)              91.3557         estimate D2E/DX2                !
 ! A64   A(8,9,11)             163.0166         estimate D2E/DX2                !
 ! A65   A(10,9,11)             85.1357         estimate D2E/DX2                !
 ! A66   A(11,9,24)            105.9732         estimate D2E/DX2                !
 ! A67   A(9,10,13)             80.9494         estimate D2E/DX2                !
 ! A68   A(9,11,12)            110.4911         estimate D2E/DX2                !
 ! A69   A(5,12,11)            109.6253         estimate D2E/DX2                !
 ! A70   A(5,12,14)            103.5426         estimate D2E/DX2                !
 ! A71   A(5,12,15)            108.2103         estimate D2E/DX2                !
 ! A72   A(11,12,14)           115.8885         estimate D2E/DX2                !
 ! A73   A(11,12,15)           111.3805         estimate D2E/DX2                !
 ! A74   A(11,12,21)           134.0142         estimate D2E/DX2                !
 ! A75   A(14,12,15)           107.698          estimate D2E/DX2                !
 ! A76   A(15,12,21)           114.4698         estimate D2E/DX2                !
 ! A77   A(6,13,10)             93.4895         estimate D2E/DX2                !
 ! A78   A(6,13,16)            101.5732         estimate D2E/DX2                !
 ! A79   A(6,13,17)            153.3201         estimate D2E/DX2                !
 ! A80   A(6,13,24)            103.1102         estimate D2E/DX2                !
 ! A81   A(7,13,8)             110.0013         estimate D2E/DX2                !
 ! A82   A(7,13,10)             86.7182         estimate D2E/DX2                !
 ! A83   A(7,13,16)             90.1893         estimate D2E/DX2                !
 ! A84   A(7,13,17)            151.7159         estimate D2E/DX2                !
 ! A85   A(7,13,24)            138.3136         estimate D2E/DX2                !
 ! A86   A(8,13,10)             98.8745         estimate D2E/DX2                !
 ! A87   A(8,13,16)            101.5965         estimate D2E/DX2                !
 ! A88   A(8,13,17)             98.2516         estimate D2E/DX2                !
 ! A89   A(8,13,18)             96.7986         estimate D2E/DX2                !
 ! A90   A(10,13,16)           159.1046         estimate D2E/DX2                !
 ! A91   A(10,13,17)            87.6794         estimate D2E/DX2                !
 ! A92   A(10,13,18)           134.4021         estimate D2E/DX2                !
 ! A93   A(16,13,17)            85.301          estimate D2E/DX2                !
 ! A94   A(16,13,24)           131.014          estimate D2E/DX2                !
 ! A95   A(17,13,18)           131.7677         estimate D2E/DX2                !
 ! A96   A(18,13,24)           158.4842         estimate D2E/DX2                !
 ! A97   A(6,18,16)            102.5159         estimate D2E/DX2                !
 ! A98   A(6,18,19)            143.6033         estimate D2E/DX2                !
 ! A99   A(7,18,16)            102.8837         estimate D2E/DX2                !
 ! A100  A(7,18,19)            113.0069         estimate D2E/DX2                !
 ! A101  A(7,18,20)            105.5376         estimate D2E/DX2                !
 ! A102  A(13,18,19)           149.5822         estimate D2E/DX2                !
 ! A103  A(13,18,20)            97.9916         estimate D2E/DX2                !
 ! A104  A(16,18,19)           113.8129         estimate D2E/DX2                !
 ! A105  A(16,18,20)           108.4492         estimate D2E/DX2                !
 ! A106  A(19,18,20)           112.4051         estimate D2E/DX2                !
 ! A107  A(5,21,14)            104.9677         estimate D2E/DX2                !
 ! A108  A(5,21,22)            112.2759         estimate D2E/DX2                !
 ! A109  A(5,21,23)             96.6598         estimate D2E/DX2                !
 ! A110  A(12,21,22)           122.013          estimate D2E/DX2                !
 ! A111  A(12,21,23)           121.3818         estimate D2E/DX2                !
 ! A112  A(14,21,22)           111.3229         estimate D2E/DX2                !
 ! A113  A(14,21,23)           114.4371         estimate D2E/DX2                !
 ! A114  A(22,21,23)           115.7615         estimate D2E/DX2                !
 ! A115  A(1,23,21)             84.8746         estimate D2E/DX2                !
 ! A116  A(8,24,10)             86.0217         estimate D2E/DX2                !
 ! A117  A(8,24,17)             84.0493         estimate D2E/DX2                !
 ! A118  A(8,24,25)            109.1671         estimate D2E/DX2                !
 ! A119  A(9,24,13)             66.2449         estimate D2E/DX2                !
 ! A120  A(9,24,17)            115.2936         estimate D2E/DX2                !
 ! A121  A(9,24,25)             75.0113         estimate D2E/DX2                !
 ! A122  A(9,24,26)            128.7498         estimate D2E/DX2                !
 ! A123  A(10,24,17)            80.2994         estimate D2E/DX2                !
 ! A124  A(10,24,25)           101.4711         estimate D2E/DX2                !
 ! A125  A(10,24,26)            88.7079         estimate D2E/DX2                !
 ! A126  A(13,24,25)           141.179          estimate D2E/DX2                !
 ! A127  A(13,24,26)           119.1725         estimate D2E/DX2                !
 ! A128  A(17,24,26)            83.612          estimate D2E/DX2                !
 ! A129  A(25,24,26)            83.2652         estimate D2E/DX2                !
 ! A130  L(1,6,18,8,-1)        187.6518         estimate D2E/DX2                !
 ! A131  L(8,24,26,10,-1)      174.7296         estimate D2E/DX2                !
 ! A132  L(17,24,25,8,-1)      193.2164         estimate D2E/DX2                !
 ! A133  L(24,25,28,1,-1)      187.214          estimate D2E/DX2                !
 ! A134  L(24,26,27,15,-1)     179.2743         estimate D2E/DX2                !
 ! A135  L(1,6,18,8,-2)        184.2294         estimate D2E/DX2                !
 ! A136  L(8,24,26,10,-2)      168.3722         estimate D2E/DX2                !
 ! A137  L(17,24,25,8,-2)      181.4145         estimate D2E/DX2                !
 ! A138  L(24,25,28,1,-2)      181.2363         estimate D2E/DX2                !
 ! A139  L(24,26,27,15,-2)     179.7373         estimate D2E/DX2                !
 ! D1    D(2,1,5,12)           -17.7069         estimate D2E/DX2                !
 ! D2    D(2,1,5,21)            56.1846         estimate D2E/DX2                !
 ! D3    D(3,1,5,12)           179.8355         estimate D2E/DX2                !
 ! D4    D(3,1,5,21)          -106.273          estimate D2E/DX2                !
 ! D5    D(4,1,5,12)            89.2999         estimate D2E/DX2                !
 ! D6    D(4,1,5,21)           163.1915         estimate D2E/DX2                !
 ! D7    D(6,1,5,12)           101.7466         estimate D2E/DX2                !
 ! D8    D(6,1,5,21)           175.6381         estimate D2E/DX2                !
 ! D9    D(9,1,5,12)            41.4719         estimate D2E/DX2                !
 ! D10   D(9,1,5,21)           115.3634         estimate D2E/DX2                !
 ! D11   D(23,1,5,12)          -99.329          estimate D2E/DX2                !
 ! D12   D(23,1,5,21)          -25.4375         estimate D2E/DX2                !
 ! D13   D(2,1,6,7)            106.0195         estimate D2E/DX2                !
 ! D14   D(2,1,6,8)            -11.3787         estimate D2E/DX2                !
 ! D15   D(2,1,6,13)            31.3481         estimate D2E/DX2                !
 ! D16   D(2,1,6,20)          -109.2996         estimate D2E/DX2                !
 ! D17   D(5,1,6,7)            -20.8183         estimate D2E/DX2                !
 ! D18   D(5,1,6,8)           -138.2166         estimate D2E/DX2                !
 ! D19   D(5,1,6,13)           -95.4898         estimate D2E/DX2                !
 ! D20   D(5,1,6,20)           123.8626         estimate D2E/DX2                !
 ! D21   D(23,1,6,7)          -163.5623         estimate D2E/DX2                !
 ! D22   D(23,1,6,8)            79.0395         estimate D2E/DX2                !
 ! D23   D(23,1,6,13)          121.7663         estimate D2E/DX2                !
 ! D24   D(23,1,6,20)          -18.8814         estimate D2E/DX2                !
 ! D25   D(3,1,9,8)             18.2628         estimate D2E/DX2                !
 ! D26   D(3,1,9,10)           -87.2136         estimate D2E/DX2                !
 ! D27   D(3,1,9,11)          -175.2125         estimate D2E/DX2                !
 ! D28   D(3,1,9,24)            57.1626         estimate D2E/DX2                !
 ! D29   D(5,1,9,8)            172.7213         estimate D2E/DX2                !
 ! D30   D(5,1,9,10)            67.245          estimate D2E/DX2                !
 ! D31   D(5,1,9,11)           -20.7539         estimate D2E/DX2                !
 ! D32   D(5,1,9,24)          -148.3788         estimate D2E/DX2                !
 ! D33   D(23,1,9,8)           -87.5206         estimate D2E/DX2                !
 ! D34   D(23,1,9,10)          167.003          estimate D2E/DX2                !
 ! D35   D(23,1,9,11)           79.0042         estimate D2E/DX2                !
 ! D36   D(23,1,9,24)          -48.6207         estimate D2E/DX2                !
 ! D37   D(2,1,23,21)          -88.2123         estimate D2E/DX2                !
 ! D38   D(3,1,23,21)          167.9541         estimate D2E/DX2                !
 ! D39   D(4,1,23,21)           50.4575         estimate D2E/DX2                !
 ! D40   D(5,1,23,21)           26.6536         estimate D2E/DX2                !
 ! D41   D(6,1,23,21)          177.9396         estimate D2E/DX2                !
 ! D42   D(9,1,23,21)          -81.9504         estimate D2E/DX2                !
 ! D43   D(1,4,6,9)             72.2854         estimate D2E/DX2                !
 ! D44   D(1,5,12,11)          -50.2545         estimate D2E/DX2                !
 ! D45   D(1,5,12,14)           73.9878         estimate D2E/DX2                !
 ! D46   D(1,5,12,15)         -171.9066         estimate D2E/DX2                !
 ! D47   D(1,5,21,14)          -87.9023         estimate D2E/DX2                !
 ! D48   D(1,5,21,22)          151.0156         estimate D2E/DX2                !
 ! D49   D(1,5,21,23)           29.6364         estimate D2E/DX2                !
 ! D50   D(1,6,8,24)            83.4583         estimate D2E/DX2                !
 ! D51   D(3,6,8,24)           132.076          estimate D2E/DX2                !
 ! D52   D(4,6,8,24)            33.9688         estimate D2E/DX2                !
 ! D53   D(7,6,8,24)           -54.0954         estimate D2E/DX2                !
 ! D54   D(18,6,8,24)         -100.7711         estimate D2E/DX2                !
 ! D55   D(20,6,8,24)         -146.9597         estimate D2E/DX2                !
 ! D56   D(3,6,9,2)            -12.7572         estimate D2E/DX2                !
 ! D57   D(3,6,9,10)          -174.9911         estimate D2E/DX2                !
 ! D58   D(3,6,9,11)            92.2147         estimate D2E/DX2                !
 ! D59   D(3,6,9,24)          -117.2199         estimate D2E/DX2                !
 ! D60   D(7,6,9,2)           -177.9276         estimate D2E/DX2                !
 ! D61   D(7,6,9,10)            19.8385         estimate D2E/DX2                !
 ! D62   D(7,6,9,11)           -72.9557         estimate D2E/DX2                !
 ! D63   D(7,6,9,24)            77.6097         estimate D2E/DX2                !
 ! D64   D(13,6,9,2)           132.4323         estimate D2E/DX2                !
 ! D65   D(13,6,9,10)          -29.8016         estimate D2E/DX2                !
 ! D66   D(13,6,9,11)         -122.5957         estimate D2E/DX2                !
 ! D67   D(13,6,9,24)           27.9696         estimate D2E/DX2                !
 ! D68   D(18,6,9,2)           144.7782         estimate D2E/DX2                !
 ! D69   D(18,6,9,10)          -17.4557         estimate D2E/DX2                !
 ! D70   D(18,6,9,11)         -110.2499         estimate D2E/DX2                !
 ! D71   D(18,6,9,24)           40.3155         estimate D2E/DX2                !
 ! D72   D(20,6,9,2)            74.5128         estimate D2E/DX2                !
 ! D73   D(20,6,9,10)          -87.7211         estimate D2E/DX2                !
 ! D74   D(20,6,9,11)          179.4848         estimate D2E/DX2                !
 ! D75   D(20,6,9,24)          -29.9499         estimate D2E/DX2                !
 ! D76   D(1,6,13,10)           38.0993         estimate D2E/DX2                !
 ! D77   D(1,6,13,16)         -156.4618         estimate D2E/DX2                !
 ! D78   D(1,6,13,17)          -53.6774         estimate D2E/DX2                !
 ! D79   D(1,6,13,24)          -19.1139         estimate D2E/DX2                !
 ! D80   D(3,6,13,10)          106.2254         estimate D2E/DX2                !
 ! D81   D(3,6,13,16)          -88.3358         estimate D2E/DX2                !
 ! D82   D(3,6,13,17)           14.4487         estimate D2E/DX2                !
 ! D83   D(3,6,13,24)           49.0122         estimate D2E/DX2                !
 ! D84   D(4,6,13,10)          -16.0353         estimate D2E/DX2                !
 ! D85   D(4,6,13,16)          149.4036         estimate D2E/DX2                !
 ! D86   D(4,6,13,17)         -107.812          estimate D2E/DX2                !
 ! D87   D(4,6,13,24)          -73.2484         estimate D2E/DX2                !
 ! D88   D(9,6,13,10)           29.7484         estimate D2E/DX2                !
 ! D89   D(9,6,13,16)         -164.8127         estimate D2E/DX2                !
 ! D90   D(9,6,13,17)          -62.0283         estimate D2E/DX2                !
 ! D91   D(9,6,13,24)          -27.4648         estimate D2E/DX2                !
 ! D92   D(20,6,13,10)        -171.5655         estimate D2E/DX2                !
 ! D93   D(20,6,13,16)          -6.1266         estimate D2E/DX2                !
 ! D94   D(20,6,13,17)          96.6578         estimate D2E/DX2                !
 ! D95   D(20,6,13,24)         131.2213         estimate D2E/DX2                !
 ! D96   D(3,6,18,16)          109.6878         estimate D2E/DX2                !
 ! D97   D(3,6,18,19)          -73.8177         estimate D2E/DX2                !
 ! D98   D(4,6,18,16)         -116.6614         estimate D2E/DX2                !
 ! D99   D(4,6,18,19)           59.8332         estimate D2E/DX2                !
 ! D100  D(8,6,18,16)           12.3972         estimate D2E/DX2                !
 ! D101  D(8,6,18,19)         -171.1082         estimate D2E/DX2                !
 ! D102  D(9,6,18,16)          -42.2321         estimate D2E/DX2                !
 ! D103  D(9,6,18,19)          134.2625         estimate D2E/DX2                !
 ! D104  D(6,7,13,18)          -82.3876         estimate D2E/DX2                !
 ! D105  D(13,8,9,1)          -132.4299         estimate D2E/DX2                !
 ! D106  D(13,8,9,2)           175.9005         estimate D2E/DX2                !
 ! D107  D(13,8,9,4)           -76.886          estimate D2E/DX2                !
 ! D108  D(13,8,9,10)           22.5538         estimate D2E/DX2                !
 ! D109  D(13,8,9,11)          100.2616         estimate D2E/DX2                !
 ! D110  D(9,8,13,7)            66.7071         estimate D2E/DX2                !
 ! D111  D(9,8,13,10)          -23.0165         estimate D2E/DX2                !
 ! D112  D(9,8,13,16)          161.1969         estimate D2E/DX2                !
 ! D113  D(9,8,13,17)         -111.9412         estimate D2E/DX2                !
 ! D114  D(9,8,13,18)          114.0207         estimate D2E/DX2                !
 ! D115  D(6,8,24,10)           13.0156         estimate D2E/DX2                !
 ! D116  D(6,8,24,17)           93.6594         estimate D2E/DX2                !
 ! D117  D(6,8,24,25)          -87.7552         estimate D2E/DX2                !
 ! D118  D(1,9,10,13)           84.9866         estimate D2E/DX2                !
 ! D119  D(2,9,10,13)         -104.5654         estimate D2E/DX2                !
 ! D120  D(4,9,10,13)           89.9621         estimate D2E/DX2                !
 ! D121  D(6,9,10,13)           33.8936         estimate D2E/DX2                !
 ! D122  D(8,9,10,13)          -21.5053         estimate D2E/DX2                !
 ! D123  D(11,9,10,13)         175.1391         estimate D2E/DX2                !
 ! D124  D(1,9,11,12)          -10.179          estimate D2E/DX2                !
 ! D125  D(2,9,11,12)           42.2933         estimate D2E/DX2                !
 ! D126  D(4,9,11,12)          -65.3632         estimate D2E/DX2                !
 ! D127  D(6,9,11,12)          -66.6068         estimate D2E/DX2                !
 ! D128  D(8,9,11,12)          117.306          estimate D2E/DX2                !
 ! D129  D(10,9,11,12)        -164.0764         estimate D2E/DX2                !
 ! D130  D(24,9,11,12)         142.4729         estimate D2E/DX2                !
 ! D131  D(1,9,24,13)         -102.3868         estimate D2E/DX2                !
 ! D132  D(1,9,24,17)         -108.838          estimate D2E/DX2                !
 ! D133  D(1,9,24,25)           80.1156         estimate D2E/DX2                !
 ! D134  D(1,9,24,26)          148.3661         estimate D2E/DX2                !
 ! D135  D(2,9,24,13)         -134.3356         estimate D2E/DX2                !
 ! D136  D(2,9,24,17)         -140.7868         estimate D2E/DX2                !
 ! D137  D(2,9,24,25)           48.1668         estimate D2E/DX2                !
 ! D138  D(2,9,24,26)          116.4173         estimate D2E/DX2                !
 ! D139  D(4,9,24,13)           22.2611         estimate D2E/DX2                !
 ! D140  D(4,9,24,17)           15.81           estimate D2E/DX2                !
 ! D141  D(4,9,24,25)         -155.2364         estimate D2E/DX2                !
 ! D142  D(4,9,24,26)          -86.9859         estimate D2E/DX2                !
 ! D143  D(6,9,24,13)          -28.5502         estimate D2E/DX2                !
 ! D144  D(6,9,24,17)          -35.0014         estimate D2E/DX2                !
 ! D145  D(6,9,24,25)          153.9522         estimate D2E/DX2                !
 ! D146  D(6,9,24,26)         -137.7973         estimate D2E/DX2                !
 ! D147  D(11,9,24,13)         132.8346         estimate D2E/DX2                !
 ! D148  D(11,9,24,17)         126.3835         estimate D2E/DX2                !
 ! D149  D(11,9,24,25)         -44.6629         estimate D2E/DX2                !
 ! D150  D(11,9,24,26)          23.5876         estimate D2E/DX2                !
 ! D151  D(9,10,13,6)          -30.8207         estimate D2E/DX2                !
 ! D152  D(9,10,13,7)          -85.2463         estimate D2E/DX2                !
 ! D153  D(9,10,13,8)           24.4966         estimate D2E/DX2                !
 ! D154  D(9,10,13,16)        -167.1453         estimate D2E/DX2                !
 ! D155  D(9,10,13,17)         122.4895         estimate D2E/DX2                !
 ! D156  D(9,10,13,18)         -84.2036         estimate D2E/DX2                !
 ! D157  D(9,11,12,5)           42.2565         estimate D2E/DX2                !
 ! D158  D(9,11,12,14)         -74.4488         estimate D2E/DX2                !
 ! D159  D(9,11,12,15)         161.9857         estimate D2E/DX2                !
 ! D160  D(9,11,12,21)         -13.4209         estimate D2E/DX2                !
 ! D161  D(11,12,21,22)        176.0871         estimate D2E/DX2                !
 ! D162  D(11,12,21,23)          7.0517         estimate D2E/DX2                !
 ! D163  D(15,12,21,22)          0.7867         estimate D2E/DX2                !
 ! D164  D(15,12,21,23)       -168.2488         estimate D2E/DX2                !
 ! D165  D(8,13,18,19)         174.599          estimate D2E/DX2                !
 ! D166  D(8,13,18,20)          -7.5097         estimate D2E/DX2                !
 ! D167  D(10,13,18,19)        -75.8762         estimate D2E/DX2                !
 ! D168  D(10,13,18,20)        102.0151         estimate D2E/DX2                !
 ! D169  D(17,13,18,19)         67.1258         estimate D2E/DX2                !
 ! D170  D(17,13,18,20)       -114.9829         estimate D2E/DX2                !
 ! D171  D(24,13,18,19)        169.1323         estimate D2E/DX2                !
 ! D172  D(24,13,18,20)        -12.9765         estimate D2E/DX2                !
 ! D173  D(6,13,24,9)           25.6324         estimate D2E/DX2                !
 ! D174  D(6,13,24,25)          29.4901         estimate D2E/DX2                !
 ! D175  D(6,13,24,26)         148.1466         estimate D2E/DX2                !
 ! D176  D(7,13,24,9)          -25.4551         estimate D2E/DX2                !
 ! D177  D(7,13,24,25)         -21.5974         estimate D2E/DX2                !
 ! D178  D(7,13,24,26)          97.0591         estimate D2E/DX2                !
 ! D179  D(16,13,24,9)         144.0274         estimate D2E/DX2                !
 ! D180  D(16,13,24,25)        147.8851         estimate D2E/DX2                !
 ! D181  D(16,13,24,26)        -93.4584         estimate D2E/DX2                !
 ! D182  D(18,13,24,9)          69.6382         estimate D2E/DX2                !
 ! D183  D(18,13,24,25)         73.4959         estimate D2E/DX2                !
 ! D184  D(18,13,24,26)       -167.8476         estimate D2E/DX2                !
 ! D185  D(5,21,23,1)          -29.8991         estimate D2E/DX2                !
 ! D186  D(12,21,23,1)          21.0925         estimate D2E/DX2                !
 ! D187  D(14,21,23,1)          79.8969         estimate D2E/DX2                !
 ! D188  D(22,21,23,1)        -148.5916         estimate D2E/DX2                !
 --------------------------------------------------------------------------------
 Trust Radius=3.00D-01 FncErr=1.00D-07 GrdErr=1.00D-06 EigMax=2.50D+02 EigMin=1.00D-04
 Number of steps in this run=    168 maximum allowed number of steps=    168.
 GradGradGradGradGradGradGradGradGradGradGradGradGradGradGradGradGradGrad

                          Input orientation:                          
 ---------------------------------------------------------------------
 Center     Atomic      Atomic             Coordinates (Angstroms)
 Number     Number       Type             X           Y           Z
 ---------------------------------------------------------------------
      1         42           0        0.371000    2.311743   12.154930
      2         16           0        1.374772    4.167252   11.323959
      3         16           0       -1.530330    3.097797   13.080956
      4         16           0       -0.566600    0.995471   10.362587
      5         16           0        1.906522    0.192498   12.171932
      6         42           0       -2.177744    2.690001   10.750529
      7         16           0       -3.240105    1.556713    8.787091
      8         16           0       -1.637824    4.980885   10.037902
      9         42           0        0.169581    3.155494    9.582017
     10         16           0       -0.543045    2.950133    7.247331
     11         16           0        2.283595    1.957007    8.815454
     12         42           0        3.432739    1.161890   10.594878
     13         42           0       -2.569482    3.915156    8.182301
     14         16           0        4.581501    2.745679   11.851716
     15         16           0        4.811440   -0.319630   10.017989
     16         16           0       -4.948311    4.638617    8.331384
     17         16           0       -2.342730    5.610970    6.683965
     18         42           0       -5.000553    2.783708    9.601026
     19         16           0       -6.844290    1.742184    9.518752
     20         16           0       -4.428628    3.339184   11.688286
     21         42           0        3.291629    1.617806   13.428139
     22         16           0        4.503135    0.556805   14.794594
     23         16           0        1.651962    2.843762   14.330737
     24         42           0       -0.144573    5.439263    7.806696
     25          6           0        1.846983    5.430425    8.314054
     26          6           0        0.578185    5.696844    5.935045
     27          8           0        0.995354    5.829318    4.872719
     28          8           0        2.978119    5.532500    8.498876
 ---------------------------------------------------------------------
                    Distance matrix (angstroms):
                    1          2          3          4          5
     1  Mo   0.000000
     2  S    2.267374   0.000000
     3  S    2.256205   3.559549   0.000000
     4  S    2.413329   3.841010   3.569045   0.000000
     5  S    2.617120   4.098840   4.591191   3.167780   0.000000
     6  Mo   2.934539   3.889918   2.452821   2.370172   4.993910
     7  S    4.995247   5.877729   4.871914   3.153539   6.309200
     8  S    3.954934   3.375156   3.580189   4.139621   6.328122
     9  Mo   2.715210   2.347446   3.890450   2.411836   4.301624
    10  S    5.032648   4.666722   5.918422   3.677782   6.152774
    11  S    3.864707   3.464641   5.834547   3.382571   3.810724
    12  Mo   3.623558   3.714699   5.878807   4.009534   2.399200
    13  Mo   5.196071   5.048832   5.073927   4.158094   7.057616
    14  S    4.243649   3.547183   6.244157   5.637701   3.711709
    15  S    5.586425   5.800720   7.828066   5.547211   3.652437
    16  S    6.951900   7.011353   6.051046   6.049602   9.028096
    17  S    6.941231   6.118308   6.920804   6.163581   8.805326
    18  Mo   5.966469   6.747404   4.924532   4.841250   7.812273
    19  S    7.702872   8.757437   6.539507   6.378011   9.274567
    20  S    4.930499   5.873490   3.224582   4.708049   7.090111
    21  Mo   3.260780   3.821203   5.055907   4.966975   2.351187
    22  S    5.207895   5.904853   6.767266   6.748135   3.708568
    23  S    2.580319   3.296843   3.428333   4.907587   3.428475
    24  Mo   5.380923   4.037024   5.934695   5.143731   7.126768
    25  C    5.163045   3.298199   6.290529   5.448916   6.505586
    26  C    7.084406   5.658144   7.890813   6.558702   8.423839
    27  O    8.111335   6.672700   9.011961   7.479601   9.267280
    28  O    5.526036   3.523594   6.873816   6.051701   6.569268
                    6          7          8          9         10
     6  Mo   0.000000
     7  S    2.503606   0.000000
     8  S    2.459167   3.982058   0.000000
     9  Mo   2.663088   3.848892   2.608945   0.000000
    10  S    3.874572   3.403911   3.620743   2.449646   0.000000
    11  S    4.917859   5.538258   5.100563   2.548145   3.381598
    12  Mo   5.816947   6.924653   6.372249   3.955824   5.496430
    13  Mo   2.872326   2.525423   2.333885   3.168400   2.431437
    14  S    6.848584   8.484285   6.853180   4.978405   6.892252
    15  S    7.644814   8.358418   8.347986   5.814930   6.858455
    16  S    4.162380   3.552994   3.740144   5.473258   4.840715
    17  S    5.009613   4.654613   3.484651   4.554094   3.261334
    18  Mo   3.049326   2.295035   4.040593   5.183519   5.043506
    19  S    4.918565   3.682374   6.153535   7.155126   6.806187
    20  S    2.523352   3.606483   3.634217   5.060992   5.913645
    21  Mo   6.183303   8.012903   6.863200   5.186938   7.394742
    22  S    8.095624   9.851278   8.939238   7.259741   9.388990
    23  S    5.244824   7.504720   5.815361   4.984473   7.416469
    24  Mo   4.512026   5.061392   2.723635   2.909649   2.582138
    25  C    5.444700   6.411542   3.913773   3.097857   3.605826
    26  C    6.310716   6.313017   4.717704   4.463835   3.244021
    27  O    7.380550   7.177505   5.859401   5.478022   4.036726
    28  O    6.303385   7.386221   4.896918   3.835523   4.542420
                   11         12         13         14         15
    11  S    0.000000
    12  Mo   2.262541   0.000000
    13  Mo   5.271393   7.030481   0.000000
    14  S    3.888607   2.325443   8.122120   0.000000
    15  S    3.608208   2.104405   8.705238   3.579322   0.000000
    16  S    7.728248   9.351633   2.490873  10.334083  11.076172
    17  S    6.268778   8.273185   2.274250   9.102775   9.872684
    18  Mo   7.372881   8.645140   3.033655   9.842907  10.299503
    19  S    9.157459  10.349498   4.978141  11.704633  11.847209
    20  S    7.430849   8.230264   4.010000   9.031134  10.077483
    21  Mo   4.733714   2.873176   8.194465   2.328299   4.206258
    22  S    6.529704   4.376013  10.248066   3.668493   4.866122
    23  S    5.621712   4.467270   7.534702   3.838927   6.212016
    24  Mo   4.363450   6.234344   2.888627   6.778891   7.913073
    25  C    3.536476   5.092855   4.671034   5.215410   6.689883
    26  C    5.019119   7.101291   4.258213   7.729354   8.413610
    27  O    5.674462   7.776171   5.227371   8.430639   8.879520
    28  O    3.656055   4.868484   5.787219   4.645292   6.317927
                   16         17         18         19         20
    16  S    0.000000
    17  S    3.232416   0.000000
    18  Mo   2.248423   4.854552   0.000000
    19  S    3.659768   6.577809   2.119176   0.000000
    20  S    3.636948   5.878368   2.234347   3.618385   0.000000
    21  Mo  10.148834   9.652732   9.206867  10.864420   8.098926
    22  S   12.155826  11.755541  11.056778  12.569952   9.857341
    23  S    9.098206   9.060250   8.162704   9.826239   6.648426
    24  Mo   4.898186   2.474248   5.818259   7.841284   6.150626
    25  C    6.841292   4.499276   7.453198   9.518017   7.425768
    26  C    6.115917   3.016621   7.283412   9.141960   7.982889
    27  O    6.979061   3.804089   8.220920   9.987507   9.059376
    28  O    7.978432   5.622410   8.510570  10.577635   8.357205
                   21         22         23         24         25
    21  Mo   0.000000
    22  S    2.112030   0.000000
    23  S    2.237445   3.684362   0.000000
    24  Mo   7.616537   9.709290   7.247570   0.000000
    25  C    6.540408   8.532568   6.552048   2.055185   0.000000
    26  C    8.952530  10.968903   8.932005   2.022821   2.709338
    27  O    9.808411  11.770621   9.939758   3.171718   3.567517
    28  O    6.302440   8.168187   6.557332   3.199846   1.150672
                   26         27         28
    26  C    0.000000
    27  O    1.148963   0.000000
    28  O    3.515668   4.143486   0.000000
 Symmetry turned off by external request.
 Stoichiometry    C2Mo8O2S16
 Framework group  C1[X(C2Mo8O2S16)]
 Deg. of freedom    78
 Full point group                 C1      NOp   1
 Rotational constants (GHZ):           0.0755688           0.0315460           0.0258143
 General basis read from cards:  (5D, 7F)
 ======================================================================================================
                                       Pseudopotential Parameters
 ======================================================================================================
  Center     Atomic      Valence      Angular      Power
  Number     Number     Electrons     Momentum     of R      Exponent        Coefficient   SO-Coeffient
 ======================================================================================================
    1         42           14
                                      F and up 
                                                     0      537.9667807       -0.04694920    0.00000000
                                                     1      147.8982938      -20.20800840    0.00000000
                                                     2       45.7358898     -106.21163020    0.00000000
                                                     2       13.2911467      -41.81073680    0.00000000
                                                     2        4.7059961       -4.20541030    0.00000000
                                      S - F
                                                     0      110.2991760        2.80637170    0.00000000
                                                     1       23.2014645       44.51620120    0.00000000
                                                     2        5.3530131       82.77852270    0.00000000
                                      P - F
                                                     0       63.2901397        4.94208760    0.00000000
                                                     1       23.3315302       25.86049760    0.00000000
                                                     2       24.6759423      132.47087420    0.00000000
                                                     2        4.6493040       57.31497940    0.00000000
                                      D - F
                                                     0      104.4839977        3.00545910    0.00000000
                                                     1       66.2307245       26.36378510    0.00000000
                                                     2       39.1283176      183.38491990    0.00000000
                                                     2       13.1164437       98.44530680    0.00000000
                                                     2        3.6280263       22.49013770    0.00000000
    2         16
                                   No pseudopotential on this center.
    3         16
                                   No pseudopotential on this center.
    4         16
                                   No pseudopotential on this center.
    5         16
                                   No pseudopotential on this center.
    6         42           14
                                      F and up 
                                                     0      537.9667807       -0.04694920    0.00000000
                                                     1      147.8982938      -20.20800840    0.00000000
                                                     2       45.7358898     -106.21163020    0.00000000
                                                     2       13.2911467      -41.81073680    0.00000000
                                                     2        4.7059961       -4.20541030    0.00000000
                                      S - F
                                                     0      110.2991760        2.80637170    0.00000000
                                                     1       23.2014645       44.51620120    0.00000000
                                                     2        5.3530131       82.77852270    0.00000000
                                      P - F
                                                     0       63.2901397        4.94208760    0.00000000
                                                     1       23.3315302       25.86049760    0.00000000
                                                     2       24.6759423      132.47087420    0.00000000
                                                     2        4.6493040       57.31497940    0.00000000
                                      D - F
                                                     0      104.4839977        3.00545910    0.00000000
                                                     1       66.2307245       26.36378510    0.00000000
                                                     2       39.1283176      183.38491990    0.00000000
                                                     2       13.1164437       98.44530680    0.00000000
                                                     2        3.6280263       22.49013770    0.00000000
    7         16
                                   No pseudopotential on this center.
    8         16
                                   No pseudopotential on this center.
    9         42           14
                                      F and up 
                                                     0      537.9667807       -0.04694920    0.00000000
                                                     1      147.8982938      -20.20800840    0.00000000
                                                     2       45.7358898     -106.21163020    0.00000000
                                                     2       13.2911467      -41.81073680    0.00000000
                                                     2        4.7059961       -4.20541030    0.00000000
                                      S - F
                                                     0      110.2991760        2.80637170    0.00000000
                                                     1       23.2014645       44.51620120    0.00000000
                                                     2        5.3530131       82.77852270    0.00000000
                                      P - F
                                                     0       63.2901397        4.94208760    0.00000000
                                                     1       23.3315302       25.86049760    0.00000000
                                                     2       24.6759423      132.47087420    0.00000000
                                                     2        4.6493040       57.31497940    0.00000000
                                      D - F
                                                     0      104.4839977        3.00545910    0.00000000
                                                     1       66.2307245       26.36378510    0.00000000
                                                     2       39.1283176      183.38491990    0.00000000
                                                     2       13.1164437       98.44530680    0.00000000
                                                     2        3.6280263       22.49013770    0.00000000
   10         16
                                   No pseudopotential on this center.
   11         16
                                   No pseudopotential on this center.
   12         42           14
                                      F and up 
                                                     0      537.9667807       -0.04694920    0.00000000
                                                     1      147.8982938      -20.20800840    0.00000000
                                                     2       45.7358898     -106.21163020    0.00000000
                                                     2       13.2911467      -41.81073680    0.00000000
                                                     2        4.7059961       -4.20541030    0.00000000
                                      S - F
                                                     0      110.2991760        2.80637170    0.00000000
                                                     1       23.2014645       44.51620120    0.00000000
                                                     2        5.3530131       82.77852270    0.00000000
                                      P - F
                                                     0       63.2901397        4.94208760    0.00000000
                                                     1       23.3315302       25.86049760    0.00000000
                                                     2       24.6759423      132.47087420    0.00000000
                                                     2        4.6493040       57.31497940    0.00000000
                                      D - F
                                                     0      104.4839977        3.00545910    0.00000000
                                                     1       66.2307245       26.36378510    0.00000000
                                                     2       39.1283176      183.38491990    0.00000000
                                                     2       13.1164437       98.44530680    0.00000000
                                                     2        3.6280263       22.49013770    0.00000000
   13         42           14
                                      F and up 
                                                     0      537.9667807       -0.04694920    0.00000000
                                                     1      147.8982938      -20.20800840    0.00000000
                                                     2       45.7358898     -106.21163020    0.00000000
                                                     2       13.2911467      -41.81073680    0.00000000
                                                     2        4.7059961       -4.20541030    0.00000000
                                      S - F
                                                     0      110.2991760        2.80637170    0.00000000
                                                     1       23.2014645       44.51620120    0.00000000
                                                     2        5.3530131       82.77852270    0.00000000
                                      P - F
                                                     0       63.2901397        4.94208760    0.00000000
                                                     1       23.3315302       25.86049760    0.00000000
                                                     2       24.6759423      132.47087420    0.00000000
                                                     2        4.6493040       57.31497940    0.00000000
                                      D - F
                                                     0      104.4839977        3.00545910    0.00000000
                                                     1       66.2307245       26.36378510    0.00000000
                                                     2       39.1283176      183.38491990    0.00000000
                                                     2       13.1164437       98.44530680    0.00000000
                                                     2        3.6280263       22.49013770    0.00000000
   14         16
                                   No pseudopotential on this center.
   15         16
                                   No pseudopotential on this center.
   16         16
                                   No pseudopotential on this center.
   17         16
                                   No pseudopotential on this center.
   18         42           14
                                      F and up 
                                                     0      537.9667807       -0.04694920    0.00000000
                                                     1      147.8982938      -20.20800840    0.00000000
                                                     2       45.7358898     -106.21163020    0.00000000
                                                     2       13.2911467      -41.81073680    0.00000000
                                                     2        4.7059961       -4.20541030    0.00000000
                                      S - F
                                                     0      110.2991760        2.80637170    0.00000000
                                                     1       23.2014645       44.51620120    0.00000000
                                                     2        5.3530131       82.77852270    0.00000000
                                      P - F
                                                     0       63.2901397        4.94208760    0.00000000
                                                     1       23.3315302       25.86049760    0.00000000
                                                     2       24.6759423      132.47087420    0.00000000
                                                     2        4.6493040       57.31497940    0.00000000
                                      D - F
                                                     0      104.4839977        3.00545910    0.00000000
                                                     1       66.2307245       26.36378510    0.00000000
                                                     2       39.1283176      183.38491990    0.00000000
                                                     2       13.1164437       98.44530680    0.00000000
                                                     2        3.6280263       22.49013770    0.00000000
   19         16
                                   No pseudopotential on this center.
   20         16
                                   No pseudopotential on this center.
   21         42           14
                                      F and up 
                                                     0      537.9667807       -0.04694920    0.00000000
                                                     1      147.8982938      -20.20800840    0.00000000
                                                     2       45.7358898     -106.21163020    0.00000000
                                                     2       13.2911467      -41.81073680    0.00000000
                                                     2        4.7059961       -4.20541030    0.00000000
                                      S - F
                                                     0      110.2991760        2.80637170    0.00000000
                                                     1       23.2014645       44.51620120    0.00000000
                                                     2        5.3530131       82.77852270    0.00000000
                                      P - F
                                                     0       63.2901397        4.94208760    0.00000000
                                                     1       23.3315302       25.86049760    0.00000000
                                                     2       24.6759423      132.47087420    0.00000000
                                                     2        4.6493040       57.31497940    0.00000000
                                      D - F
                                                     0      104.4839977        3.00545910    0.00000000
                                                     1       66.2307245       26.36378510    0.00000000
                                                     2       39.1283176      183.38491990    0.00000000
                                                     2       13.1164437       98.44530680    0.00000000
                                                     2        3.6280263       22.49013770    0.00000000
   22         16
                                   No pseudopotential on this center.
   23         16
                                   No pseudopotential on this center.
   24         42           14
                                      F and up 
                                                     0      537.9667807       -0.04694920    0.00000000
                                                     1      147.8982938      -20.20800840    0.00000000
                                                     2       45.7358898     -106.21163020    0.00000000
                                                     2       13.2911467      -41.81073680    0.00000000
                                                     2        4.7059961       -4.20541030    0.00000000
                                      S - F
                                                     0      110.2991760        2.80637170    0.00000000
                                                     1       23.2014645       44.51620120    0.00000000
                                                     2        5.3530131       82.77852270    0.00000000
                                      P - F
                                                     0       63.2901397        4.94208760    0.00000000
                                                     1       23.3315302       25.86049760    0.00000000
                                                     2       24.6759423      132.47087420    0.00000000
                                                     2        4.6493040       57.31497940    0.00000000
                                      D - F
                                                     0      104.4839977        3.00545910    0.00000000
                                                     1       66.2307245       26.36378510    0.00000000
                                                     2       39.1283176      183.38491990    0.00000000
                                                     2       13.1164437       98.44530680    0.00000000
                                                     2        3.6280263       22.49013770    0.00000000
   25          6
                                   No pseudopotential on this center.
   26          6
                                   No pseudopotential on this center.
   27          8
                                   No pseudopotential on this center.
   28          8
                                   No pseudopotential on this center.
 ======================================================================================================
   520 basis functions,  1336 primitive gaussians,   556 cartesian basis functions
   198 alpha electrons      198 beta electrons
       nuclear repulsion energy      8541.7794166668 Hartrees.
 NAtoms=   28 NActive=   28 NUniq=   28 SFac= 1.00D+00 NAtFMM=   60 NAOKFM=F Big=F
 Integral buffers will be    131072 words long.
 Raffenetti 2 integral format.
 Two-electron integral symmetry is turned off.
 One-electron integrals computed using PRISM.
   1 Symmetry operations used in ECPInt.
 ECPInt:  NShTT=   12880 NPrTT=  103082 LenC2=   11031 LenP2D=   51905.
 LDataN:  DoStor=T MaxTD1= 5 Len=  102
 NBasis=   520 RedAO= T EigKep=  4.63D-04  NBF=   520
 NBsUse=   520 1.00D-06 EigRej= -1.00D+00 NBFU=   520
 Defaulting to unpruned grid for atomic number  42.
 Defaulting to unpruned grid for atomic number  42.
 Defaulting to unpruned grid for atomic number  42.
 Defaulting to unpruned grid for atomic number  42.
 Defaulting to unpruned grid for atomic number  42.
 Defaulting to unpruned grid for atomic number  42.
 Defaulting to unpruned grid for atomic number  42.
 Defaulting to unpruned grid for atomic number  42.
 ExpMin= 2.47D-02 ExpMax= 2.19D+04 ExpMxC= 3.30D+03 IAcc=3 IRadAn=         5 AccDes= 0.00D+00
 Harris functional with IExCor=  402 and IRadAn=       5 diagonalized for initial guess.
 HarFok:  IExCor=  402 AccDes= 0.00D+00 IRadAn=         5 IDoV= 1 UseB2=F ITyADJ=14
 ICtDFT=  3500011 ScaDFX=  1.000000  1.000000  1.000000  1.000000
 Defaulting to unpruned grid for atomic number  42.
 FoFCou: FMM=F IPFlag=           0 FMFlag=      100000 FMFlg1=           0
         NFxFlg=           0 DoJE=T BraDBF=F KetDBF=T FulRan=T
         wScrn=  0.000000 ICntrl=       500 IOpCl=  0 I1Cent=   200000004 NGrid=           0
         NMat0=    1 NMatS0=      1 NMatT0=    0 NMatD0=    1 NMtDS0=    0 NMtDT0=    0
 Symmetry not used in FoFCou.
 Requested convergence on RMS density matrix=1.00D-08 within 128 cycles.
 Requested convergence on MAX density matrix=1.00D-06.
 Requested convergence on             energy=1.00D-06.
 No special actions if energy rises.
 Defaulting to unpruned grid for atomic number  42.
 Defaulting to unpruned grid for atomic number  42.
 Defaulting to unpruned grid for atomic number  42.
 Defaulting to unpruned grid for atomic number  42.
 Defaulting to unpruned grid for atomic number  42.
 Defaulting to unpruned grid for atomic number  42.
 Defaulting to unpruned grid for atomic number  42.
 Defaulting to unpruned grid for atomic number  42.
 Defaulting to unpruned grid for atomic number  42.
 Defaulting to unpruned grid for atomic number  42.
 Defaulting to unpruned grid for atomic number  42.
 Defaulting to unpruned grid for atomic number  42.
 Defaulting to unpruned grid for atomic number  42.
 Defaulting to unpruned grid for atomic number  42.
 Defaulting to unpruned grid for atomic number  42.
 Defaulting to unpruned grid for atomic number  42.
 Defaulting to unpruned grid for atomic number  42.
 Defaulting to unpruned grid for atomic number  42.
 Defaulting to unpruned grid for atomic number  42.
 Defaulting to unpruned grid for atomic number  42.
 Defaulting to unpruned grid for atomic number  42.
 Defaulting to unpruned grid for atomic number  42.
 Defaulting to unpruned grid for atomic number  42.
 Defaulting to unpruned grid for atomic number  42.
 Defaulting to unpruned grid for atomic number  42.
 Defaulting to unpruned grid for atomic number  42.
 Defaulting to unpruned grid for atomic number  42.
 Defaulting to unpruned grid for atomic number  42.
 Defaulting to unpruned grid for atomic number  42.
 Defaulting to unpruned grid for atomic number  42.
 Defaulting to unpruned grid for atomic number  42.
 Defaulting to unpruned grid for atomic number  42.
 Defaulting to unpruned grid for atomic number  42.
 Defaulting to unpruned grid for atomic number  42.
 Defaulting to unpruned grid for atomic number  42.
 Defaulting to unpruned grid for atomic number  42.
 Defaulting to unpruned grid for atomic number  42.
 Defaulting to unpruned grid for atomic number  42.
 Defaulting to unpruned grid for atomic number  42.
 Defaulting to unpruned grid for atomic number  42.
 Defaulting to unpruned grid for atomic number  42.
 Defaulting to unpruned grid for atomic number  42.
 Defaulting to unpruned grid for atomic number  42.
 Defaulting to unpruned grid for atomic number  42.
 Defaulting to unpruned grid for atomic number  42.
 Defaulting to unpruned grid for atomic number  42.
 EnCoef did     4 forward-backward iterations
 EnCoef did   100 forward-backward iterations
 EnCoef did   100 forward-backward iterations
 EnCoef did   100 forward-backward iterations
 EnCoef did     5 forward-backward iterations
 EnCoef did     2 forward-backward iterations
 EnCoef did     6 forward-backward iterations
 EnCoef did     5 forward-backward iterations
 EnCoef did     2 forward-backward iterations
 EnCoef did     5 forward-backward iterations
 EnCoef did     4 forward-backward iterations
 EnCoef did     4 forward-backward iterations
 EnCoef did     4 forward-backward iterations
 EnCoef did     2 forward-backward iterations
 Restarting incremental Fock formation.
 SCF Done:  E(RB3LYP) =  -7138.86894838     A.U. after   36 cycles
            NFock= 36  Conv=0.50D-08     -V/T= 2.0558

 **********************************************************************

            Population analysis using the SCF Density.

 **********************************************************************

 Alpha  occ. eigenvalues --  -88.94400 -88.92985 -88.92229 -88.91697 -88.91535
 Alpha  occ. eigenvalues --  -88.91364 -88.90673 -88.90642 -88.90630 -88.90256
 Alpha  occ. eigenvalues --  -88.89171 -88.88281 -88.88253 -88.88135 -88.87836
 Alpha  occ. eigenvalues --  -88.87527 -19.27078 -19.26915 -10.34384 -10.34335
 Alpha  occ. eigenvalues --   -8.01787  -8.00543  -7.99721  -7.99243  -7.99005
 Alpha  occ. eigenvalues --   -7.98824  -7.98383  -7.98312  -7.98214  -7.97970
 Alpha  occ. eigenvalues --   -7.97057  -7.96222  -7.96047  -7.95857  -7.95605
 Alpha  occ. eigenvalues --   -7.95467  -5.97804  -5.97749  -5.97729  -5.96550
 Alpha  occ. eigenvalues --   -5.96544  -5.96413  -5.95781  -5.95644  -5.95632
 Alpha  occ. eigenvalues --   -5.95253  -5.95230  -5.95127  -5.95027  -5.94951
 Alpha  occ. eigenvalues --   -5.94905  -5.94872  -5.94827  -5.94714  -5.94475
 Alpha  occ. eigenvalues --   -5.94391  -5.94370  -5.94333  -5.94234  -5.94180
 Alpha  occ. eigenvalues --   -5.94173  -5.94088  -5.94068  -5.94059  -5.93926
 Alpha  occ. eigenvalues --   -5.93774  -5.93043  -5.92979  -5.92960  -5.92221
 Alpha  occ. eigenvalues --   -5.92179  -5.92104  -5.92054  -5.91994  -5.91948
 Alpha  occ. eigenvalues --   -5.91890  -5.91784  -5.91704  -5.91673  -5.91580
 Alpha  occ. eigenvalues --   -5.91446  -5.91437  -5.91405  -5.91317  -2.58296
 Alpha  occ. eigenvalues --   -2.57393  -2.56979  -2.56659  -2.56323  -2.55637
 Alpha  occ. eigenvalues --   -2.55443  -2.52748  -1.61149  -1.60725  -1.60633
 Alpha  occ. eigenvalues --   -1.60380  -1.60279  -1.59967  -1.59734  -1.59427
 Alpha  occ. eigenvalues --   -1.59117  -1.58988  -1.58954  -1.58721  -1.58551
 Alpha  occ. eigenvalues --   -1.58391  -1.58303  -1.58026  -1.57592  -1.57342
 Alpha  occ. eigenvalues --   -1.57192  -1.57053  -1.56824  -1.55405  -1.55276
 Alpha  occ. eigenvalues --   -1.54588  -1.17253  -1.17184  -0.77795  -0.76456
 Alpha  occ. eigenvalues --   -0.75582  -0.74351  -0.74077  -0.73688  -0.73273
 Alpha  occ. eigenvalues --   -0.72552  -0.72172  -0.71850  -0.71125  -0.70737
 Alpha  occ. eigenvalues --   -0.70357  -0.69984  -0.69469  -0.68799  -0.60649
 Alpha  occ. eigenvalues --   -0.59593  -0.50707  -0.49415  -0.49304  -0.49123
 Alpha  occ. eigenvalues --   -0.48888  -0.47586  -0.44811  -0.44122  -0.44012
 Alpha  occ. eigenvalues --   -0.43751  -0.42853  -0.42238  -0.41493  -0.41001
 Alpha  occ. eigenvalues --   -0.40868  -0.40626  -0.40341  -0.39940  -0.39490
 Alpha  occ. eigenvalues --   -0.39416  -0.38940  -0.38573  -0.38436  -0.38309
 Alpha  occ. eigenvalues --   -0.37570  -0.37417  -0.37204  -0.37046  -0.36616
 Alpha  occ. eigenvalues --   -0.36248  -0.36177  -0.35816  -0.35769  -0.35411
 Alpha  occ. eigenvalues --   -0.35118  -0.34760  -0.34474  -0.34390  -0.33905
 Alpha  occ. eigenvalues --   -0.33484  -0.33134  -0.32875  -0.32544  -0.32334
 Alpha  occ. eigenvalues --   -0.31942  -0.31460  -0.31051  -0.30747  -0.30397
 Alpha  occ. eigenvalues --   -0.29877  -0.29450  -0.28884  -0.28665  -0.28273
 Alpha  occ. eigenvalues --   -0.27700  -0.27505  -0.26683  -0.26305  -0.25874
 Alpha  occ. eigenvalues --   -0.25287  -0.24926  -0.24468
 Alpha virt. eigenvalues --   -0.19657  -0.18003  -0.17008  -0.16303  -0.15969
 Alpha virt. eigenvalues --   -0.15739  -0.14971  -0.14637  -0.14319  -0.13890
 Alpha virt. eigenvalues --   -0.13139  -0.12772  -0.12703  -0.12461  -0.12284
 Alpha virt. eigenvalues --   -0.12014  -0.11683  -0.11522  -0.10929  -0.10596
 Alpha virt. eigenvalues --   -0.09969  -0.09932  -0.08984  -0.08617  -0.08117
 Alpha virt. eigenvalues --   -0.07839  -0.07065  -0.06918  -0.06600  -0.05487
 Alpha virt. eigenvalues --   -0.05206  -0.04768  -0.03925  -0.03683  -0.03162
 Alpha virt. eigenvalues --   -0.02287  -0.01133  -0.00058   0.00172   0.01215
 Alpha virt. eigenvalues --    0.01389   0.01846   0.02490   0.02829   0.03092
 Alpha virt. eigenvalues --    0.03703   0.04248   0.04484   0.04761   0.04813
 Alpha virt. eigenvalues --    0.05473   0.05634   0.06024   0.06209   0.06641
 Alpha virt. eigenvalues --    0.06829   0.07438   0.07495   0.07924   0.08560
 Alpha virt. eigenvalues --    0.09164   0.09557   0.09899   0.09976   0.11055
 Alpha virt. eigenvalues --    0.11763   0.12001   0.13457   0.13828   0.14503
 Alpha virt. eigenvalues --    0.15113   0.15934   0.16415   0.16678   0.17387
 Alpha virt. eigenvalues --    0.17903   0.18547   0.18815   0.19660   0.20233
 Alpha virt. eigenvalues --    0.20550   0.21229   0.21531   0.22142   0.22925
 Alpha virt. eigenvalues --    0.23866   0.24275   0.24687   0.25643   0.26503
 Alpha virt. eigenvalues --    0.26702   0.27278   0.27968   0.28647   0.28717
 Alpha virt. eigenvalues --    0.29184   0.29504   0.29664   0.29814   0.30086
 Alpha virt. eigenvalues --    0.30488   0.31299   0.31617   0.31704   0.32274
 Alpha virt. eigenvalues --    0.32715   0.32889   0.33019   0.33371   0.33933
 Alpha virt. eigenvalues --    0.34281   0.34849   0.35167   0.35578   0.35710
 Alpha virt. eigenvalues --    0.36061   0.36498   0.36758   0.36984   0.37583
 Alpha virt. eigenvalues --    0.37838   0.38122   0.38361   0.38871   0.39028
 Alpha virt. eigenvalues --    0.39461   0.39735   0.39901   0.40451   0.40706
 Alpha virt. eigenvalues --    0.40850   0.41255   0.41749   0.41825   0.42039
 Alpha virt. eigenvalues --    0.42297   0.42699   0.43052   0.43330   0.43788
 Alpha virt. eigenvalues --    0.44161   0.44272   0.44742   0.45016   0.45487
 Alpha virt. eigenvalues --    0.45946   0.46206   0.46765   0.47335   0.48066
 Alpha virt. eigenvalues --    0.48259   0.48796   0.49119   0.49734   0.50126
 Alpha virt. eigenvalues --    0.50238   0.51118   0.51528   0.51888   0.52578
 Alpha virt. eigenvalues --    0.53131   0.53401   0.54386   0.54612   0.55506
 Alpha virt. eigenvalues --    0.55877   0.56215   0.56420   0.56716   0.57755
 Alpha virt. eigenvalues --    0.59342   0.59896   0.60285   0.61346   0.62103
 Alpha virt. eigenvalues --    0.62404   0.62710   0.63101   0.64013   0.64597
 Alpha virt. eigenvalues --    0.65091   0.65737   0.66214   0.66457   0.67173
 Alpha virt. eigenvalues --    0.67603   0.67987   0.68898   0.69282   0.69936
 Alpha virt. eigenvalues --    0.70597   0.71461   0.71555   0.72277   0.72619
 Alpha virt. eigenvalues --    0.72907   0.73363   0.73795   0.74090   0.74642
 Alpha virt. eigenvalues --    0.74935   0.75698   0.75901   0.76739   0.76856
 Alpha virt. eigenvalues --    0.77162   0.77370   0.77667   0.78234   0.78480
 Alpha virt. eigenvalues --    0.78875   0.79347   0.79530   0.79787   0.80241
 Alpha virt. eigenvalues --    0.80640   0.80980   0.81368   0.81663   0.81870
 Alpha virt. eigenvalues --    0.82436   0.83203   0.83531   0.83938   0.84193
 Alpha virt. eigenvalues --    0.84676   0.84942   0.85374   0.85665   0.86138
 Alpha virt. eigenvalues --    0.86621   0.87234   0.87406   0.88732   0.89153
 Alpha virt. eigenvalues --    0.89452   0.89809   0.90483   0.91752   0.92646
 Alpha virt. eigenvalues --    0.92989   0.93935   0.94552   0.94767   0.95299
 Alpha virt. eigenvalues --    0.95863   0.96206   0.96424   0.97677   0.98109
 Alpha virt. eigenvalues --    0.98371   0.98621   0.99086   0.99581   0.99819
 Alpha virt. eigenvalues --    1.00175   1.00831   1.01143   1.01824   1.01911
 Alpha virt. eigenvalues --    1.02276   1.02959   1.03822   1.04132   1.04343
 Alpha virt. eigenvalues --    1.04494   1.05339   1.05489   1.06091   1.06508
 Alpha virt. eigenvalues --    1.07389   1.07630   1.08619   1.09005   1.09941
 Alpha virt. eigenvalues --    1.10547   1.11423   1.11502   1.12713   1.13183
 Alpha virt. eigenvalues --    1.13928   1.15576   1.16257   1.16862   1.18267
 Alpha virt. eigenvalues --    1.19748   1.20861   1.23508   1.25147   1.29869
 Alpha virt. eigenvalues --    1.33408   1.38639   1.46150   1.48741   1.50367
 Alpha virt. eigenvalues --    1.51916   1.52163   1.54941   1.56001   1.58745
 Alpha virt. eigenvalues --    1.64076   1.74555   1.91790   1.92787   1.93605
 Alpha virt. eigenvalues --    1.93796   2.36071   2.38600   2.55513   2.55775
 Alpha virt. eigenvalues --    2.56482   2.57377   2.96562   3.02362   7.96862
 Alpha virt. eigenvalues --    9.25100  10.56908  11.51887  13.21264  14.09462
 Alpha virt. eigenvalues --   14.70157  20.62698
          Condensed to atoms (all electrons):
               1          2          3          4          5          6
     1  Mo  14.680155   0.396200   0.333206   0.124535   0.172022  -0.601708
     2  S    0.396200  15.393304   0.013441  -0.002094  -0.003092  -0.068309
     3  S    0.333206   0.013441  15.543134  -0.041655  -0.003115   0.168854
     4  S    0.124535  -0.002094  -0.041655  15.580356  -0.041263   0.104472
     5  S    0.172022  -0.003092  -0.003115  -0.041263  15.705172   0.024106
     6  Mo  -0.601708  -0.068309   0.168854   0.104472   0.024106  15.487461
     7  S    0.024873  -0.000178  -0.003748  -0.023387   0.000041   0.111721
     8  S   -0.016293  -0.029107  -0.005583   0.010776   0.000019   0.246941
     9  Mo  -0.595971   0.172945  -0.081545   0.088608   0.002418  -0.549513
    10  S   -0.036805  -0.005798  -0.000356   0.011302  -0.000044  -0.088669
    11  S   -0.018207  -0.042507  -0.000249  -0.031979   0.003961  -0.000749
    12  Mo  -0.028817  -0.011763  -0.002446  -0.023400   0.126213   0.066222
    13  Mo   0.047931   0.007726  -0.000115  -0.022030  -0.000786  -0.311679
    14  S   -0.043434  -0.011246   0.000054   0.000059  -0.030318   0.000795
    15  S    0.001488  -0.000173  -0.000001   0.000118   0.003136   0.002041
    16  S   -0.002195   0.000006   0.000057  -0.000215  -0.000000  -0.028363
    17  S   -0.004914  -0.000009   0.000028  -0.000268  -0.000000  -0.021716
    18  Mo  -0.044543  -0.000076   0.007419   0.006374   0.000419  -0.221717
    19  S   -0.001940   0.000000   0.000062   0.000044   0.000000  -0.040973
    20  S    0.002895  -0.000018  -0.020783  -0.000823  -0.000007   0.235664
    21  Mo  -0.275042  -0.023784   0.007581   0.016348   0.061260  -0.094953
    22  S   -0.027696  -0.000139   0.000009   0.000044   0.011415  -0.001722
[...]
 .00001182,-0.00018073,-0.00048776,-0.00051682,0.00032556,0.00024635,0.
 00011712,0.00016389,0.00002601,0.00028560,0.05837637,-0.03774290,0.323
 38547,0.00092747,0.00053719,0.00027470,0.00053031,-0.00020854,0.000213
 28,0.00000624,0.00003140,-0.00000721,-0.00005944,-0.00007684,-0.000084
 02,-0.00184807,0.00274760,-0.00138419,-0.00032607,0.00001093,-0.000512
 56,0.00000111,-0.00004462,0.00003236,0.00013000,-0.00002940,-0.0000259
 5,-0.00015870,-0.00013836,0.00029279,-0.00009948,0.00002947,-0.0002466
 4,-0.00091347,0.00047119,0.00014781,0.00177716,-0.00062203,-0.00161667
 ,-0.00001001,-0.00010000,0.00013390,0.00806061,-0.00000050,-0.00189263
 ,0.00082155,-0.00111808,0.00002221,-0.00010334,0.00007179,0.00002860,-
 0.00008058,0.00004420,-0.00008729,0.00038227,0.00025274,-0.00005306,-0
 .00031758,-0.00021303,-0.00005554,-0.00004501,-0.00000174,0.00004387,-
 0.10918374,0.07211229,-0.10265625,0.10597888,0.00085492,-0.00051309,-0
 .00079718,-0.00023089,0.00015544,-0.00051163,0.00014516,-0.00003041,-0
 .00007114,-0.00025072,0.00001896,0.00023580,0.00031994,0.00632017,0.00
 124535,0.00014507,-0.00000866,-0.00001570,-0.00002784,-0.00003332,-0.0
 0001450,0.00004329,0.00005983,-0.00001259,-0.00076947,0.00081636,0.000
 13474,0.00015273,-0.00010642,0.00004784,0.00065270,-0.00071452,0.00007
 774,-0.00025842,0.00039245,0.00206336,-0.00003809,0.00015531,-0.000140
 85,0.00216420,-0.00154174,0.00270026,-0.00093303,0.00155469,-0.0002449
 0,0.00010646,-0.00004670,0.00000196,0.00004330,-0.00009445,0.00006435,
 -0.00027938,-0.00019186,-0.00002099,0.00026002,0.00016913,0.00005667,0
 .00009637,-0.00003568,0.00001753,0.07163386,-0.07629425,0.08183582,-0.
 07602392,0.07206110,-0.00092006,0.00062365,0.00034184,-0.00001038,-0.0
 0032548,0.00031235,0.00019123,-0.00014808,0.00002939,0.00013916,0.0002
 0213,-0.00009527,-0.00319400,-0.00028779,-0.00205818,-0.00045638,0.000
 28501,-0.00017250,0.00007666,0.00002570,-0.00000289,-0.00001460,-0.000
 08011,0.00003520,0.00050465,-0.00054317,0.00030174,-0.00023463,0.00004
 063,-0.00020135,-0.00012829,0.00019099,-0.00052031,0.00034749,0.002428
 80,0.00355737,0.00002924,-0.00021492,-0.00006436,0.00059487,0.00262119
 ,-0.00697621,0.00066674,-0.00094274,-0.00036306,-0.00007819,0.00007403
 ,-0.00001844,-0.00003033,0.00009746,-0.00007934,0.00047282,0.00025911,
 0.00014156,-0.00036565,-0.00024134,-0.00006980,-0.00005843,0.00002435,
 0.00000653,-0.09707029,0.08058251,-0.14024676,0.10642803,-0.08820328,0
 .13626247,-0.01255292,0.00725976,0.00051144,-0.00001406,-0.00095222,0.
 00111264,-0.00747340,0.00063378,-0.00501566,-0.00179190,-0.00353082,-0
 .00263644,0.01031307,0.00209655,-0.00028858,0.00370148,-0.00116308,0.0
 0010783,-0.00079119,-0.00003487,-0.00045295,0.00100398,0.00000537,0.00
 007762,-0.00379076,0.00111435,-0.00135440,0.00027817,-0.00036338,-0.00
 084347,0.00400835,-0.00201685,0.00206606,-0.00250857,-0.00366509,0.000
 25054,-0.00038780,-0.00020583,0.00021728,-0.00231064,-0.00102310,0.005
 96612,-0.00079320,0.00101616,-0.00037378,-0.00003969,0.00013415,-0.000
 03014,-0.00027204,-0.00012418,-0.00014476,0.00038534,-0.00020397,-0.00
 013044,-0.00023821,-0.00007110,-0.00003440,-0.00014325,0.00017643,0.00
 013475,-0.08029772,0.06139651,0.04074736,-0.00552188,0.00223027,-0.006
 93696,0.09927837,-0.00669979,-0.01924643,-0.01220497,0.00251317,0.0019
 7501,0.00312267,0.00016371,0.00017448,0.00154260,0.00106848,0.00229427
 ,0.00184363,-0.00055769,-0.00639250,-0.00540034,-0.00055141,0.00105700
 ,-0.00097555,0.00012530,-0.00013737,0.00004079,-0.00052976,0.00017118,
 -0.00020266,0.00019352,0.00092633,-0.00144371,0.00062292,0.00005414,0.
 00081123,-0.00170706,0.00074037,-0.00121365,0.00252284,0.00224184,0.00
 253944,-0.00033793,0.00058751,-0.00005613,0.00112682,0.00584887,-0.006
 15621,-0.00005040,-0.00032479,-0.00016603,0.00008727,-0.00003939,0.000
 01794,0.00004694,-0.00033207,-0.00002795,0.00001835,0.00019780,0.00010
 384,-0.00003144,-0.00005974,-0.00002286,0.00007323,0.00003659,-0.00001
 496,0.06277509,-0.06440757,-0.03434754,0.00233701,-0.00216674,0.003525
 43,-0.06321902,0.07653422,-0.00814191,-0.00284719,-0.03051922,-0.00129
 461,0.00438833,-0.01001805,-0.00178347,0.00044941,0.00015890,-0.002024
 19,-0.00165487,-0.00190275,0.00151273,-0.00623817,-0.00340042,-0.00197
 549,-0.00083100,-0.00211129,0.00005184,0.00006146,-0.00024169,0.000156
 88,0.00000686,0.00006868,-0.00192198,-0.00068601,0.00183160,-0.0000760
 7,-0.00002275,-0.00043445,0.00064967,0.00002735,-0.00013941,0.00103913
 ,-0.00060624,0.00328951,0.00001616,-0.00028125,-0.00029947,0.00077117,
 -0.00028505,-0.00291699,-0.00018009,0.00030470,-0.00037240,0.00000779,
 0.00006420,0.00002714,-0.00002177,-0.00001114,-0.00003995,0.00049186,-
 0.00003584,-0.00006622,-0.00013204,-0.00010908,-0.00001446,0.00021410,
 0.00000638,0.00037933,0.04443932,-0.04224408,-0.04898684,0.00100411,0.
 00148049,0.00992162,-0.03279988,0.04879085,0.08570623,-0.00045764,-0.0
 0265963,0.00096769,-0.00060072,0.00228515,-0.00122847,-0.00039009,0.00
 018791,-0.00009214,0.00012400,-0.00065573,0.00104172,0.00074768,-0.000
 05892,0.00018984,0.00650276,-0.00478044,0.00315541,0.00057781,0.003080
 84,-0.00308744,-0.00445728,0.00837966,0.00780246,-0.01835236,0.0067514
 8,0.00058300,-0.01040250,-0.00521260,-0.00504135,0.00084942,-0.0000906
 4,-0.00072630,-0.00033137,-0.00002777,-0.00010823,-0.03507908,-0.04270
 773,0.01157164,0.00026576,0.00029362,-0.00012563,0.00023803,-0.0003127
 1,-0.00006180,0.00057263,-0.00064232,-0.00324000,-0.06198358,0.0116266
 5,-0.04061945,0.00166969,0.00276677,0.00375362,-0.00110398,-0.00024254
 ,-0.00113072,0.00080943,-0.00040150,0.00087894,-0.00099368,0.00026737,
 0.00014336,0.00022463,-0.00016561,0.00025743,0.00075354,-0.00006952,0.
 00022384,0.27749097,0.00167117,-0.00368065,0.00050634,0.00145059,0.002
 52001,-0.00104877,0.00119471,-0.00071049,-0.00020175,-0.00202330,-0.00
 459087,0.00273587,-0.00006128,0.00030158,-0.00025462,-0.00083940,0.005
 87417,-0.00308588,-0.00256788,-0.00269369,-0.00020092,0.00320074,-0.00
 685818,-0.01290431,0.01030317,-0.01235638,0.01552616,-0.01069595,-0.06
 663822,-0.01862603,-0.00071532,-0.00032282,0.00051937,-0.00040432,-0.0
 0025321,-0.00078406,-0.01206314,-0.01181476,0.00131798,0.00005887,0.00
 010539,0.00022228,0.00007372,0.00018998,0.00000124,-0.00239266,0.00077
 135,0.00204190,-0.00655011,-0.00644683,0.00044061,0.00016552,-0.002249
 94,-0.00348600,-0.00024115,0.00013792,0.00081709,-0.00073061,0.0007819
 7,-0.00021108,0.00003170,0.00051645,0.00025628,-0.00005700,0.00008613,
 0.00001757,0.00079803,0.00023726,0.00024365,0.02366405,0.16227377,0.00
 126639,0.00159586,-0.00020722,-0.00332989,-0.00233506,-0.00031751,-0.0
 0001924,-0.00021314,0.00029397,-0.00042112,0.00552783,-0.00280103,-0.0
 0024851,-0.00010853,0.00033060,-0.00472169,0.00162478,0.00102533,0.000
 95868,0.00319515,0.00193252,0.01279014,-0.01127372,-0.02619887,0.00763
 674,0.01533886,-0.00278019,-0.00552223,-0.01852517,-0.01800767,-0.0003
 0146,-0.00059556,-0.00064350,0.00001167,-0.00024837,-0.00063671,-0.001
 94050,-0.01440208,0.02012666,-0.00018238,0.00019659,0.00011100,-0.0003
 8977,0.00036818,0.00017672,0.00108217,0.00122223,0.00010690,-0.0358079
 1,0.01337208,-0.05003204,-0.00032524,-0.00135273,-0.00118590,0.0002711
 4,0.00021017,-0.00024963,-0.00004136,0.00028842,-0.00026369,0.00033525
 ,-0.00022855,0.00029278,-0.00025188,0.00029464,-0.00034110,-0.00070248
 ,0.00003365,0.00001736,-0.02741679,-0.01489522,0.19136741,0.00217772,0
 .00337135,-0.00096640,-0.00154540,-0.00434098,0.00023688,-0.00022258,-
 0.00023231,0.00003952,-0.00003527,0.00038451,-0.00085784,-0.00186766,0
 .00035219,-0.00023127,-0.00418708,0.00256770,-0.00231190,-0.00010881,-
 0.00164351,0.00075685,-0.00059980,0.00007022,-0.00082581,0.02008518,0.
 00138580,0.00331095,-0.00611213,0.00132192,0.00091749,-0.00091914,-0.0
 0062710,0.00272095,-0.00044242,0.00060697,-0.00196569,-0.00526200,0.00
 387171,-0.00392609,-0.00103010,-0.00036313,0.00091872,-0.00044143,0.00
 053570,0.00005935,0.00024311,0.00141193,0.00242666,-0.01876343,-0.0051
 2410,-0.01340798,-0.00075191,-0.00290701,-0.00182942,0.00136633,0.0007
 4882,0.00092192,-0.00089651,0.00019784,-0.00070706,0.00307951,-0.00066
 784,-0.00119331,-0.00031721,0.00025228,-0.00036896,-0.00236296,0.00062
 066,-0.00045634,-0.05496545,0.00196662,0.01487324,1.14163979,-0.001112
 79,0.00126817,-0.00146625,0.00010611,-0.00038801,0.00218191,-0.0001306
 4,0.00081513,0.00056505,0.00001890,0.00060919,-0.00005058,0.00032476,-
 0.00011044,0.00023654,0.00027416,-0.00387003,0.00055472,0.00128438,0.0
 0093385,0.00042107,0.00135238,0.00397648,0.00294751,-0.00047772,0.0011
 3895,-0.00153224,-0.00701045,-0.00657374,-0.00621295,0.00060199,-0.002
 68620,-0.00000109,0.00030243,-0.00024149,0.00044091,-0.00411246,-0.004
 28807,0.00341972,0.00002384,-0.00003176,-0.00019546,-0.00006521,0.0000
 4438,0.00007943,0.00069891,-0.00176177,-0.00140360,0.00812320,0.007262
 64,0.00121381,0.00034659,0.00244812,0.00106948,-0.00018406,-0.00003254
 ,-0.00058735,0.00096960,-0.00039830,0.00073087,-0.00018788,-0.00030780
 ,0.00005810,-0.00001567,0.00003054,-0.00004400,-0.00013077,-0.00011624
 ,0.00014552,0.00217419,-0.03227453,-0.00340331,-0.02923267,0.06810702,
 0.00035153,-0.00089278,-0.00018561,-0.00020616,0.00197561,-0.00392121,
 0.00005688,0.00008803,0.00005423,0.00054779,-0.00049915,0.00038600,0.0
 0001344,-0.00006841,-0.00010938,0.00002495,0.00104649,-0.00040195,0.00
 071630,-0.00069311,-0.00004828,0.00186000,-0.00268374,0.00104821,-0.00
 202520,-0.00564430,0.00027363,-0.00346930,0.00055624,0.00224127,-0.000
 58541,0.00103752,-0.00025329,0.00016563,0.00011609,0.00052846,-0.00714
 563,0.00242798,0.00013726,-0.00002251,-0.00012642,-0.00010760,0.000117
 83,-0.00008932,-0.00001118,0.00119781,0.00038065,-0.00082954,-0.003688
 88,-0.00669373,0.00172854,0.00106525,0.00070056,0.00002533,-0.00013416
 ,-0.00010127,-0.00020219,-0.00008253,-0.00014919,-0.00026704,-0.000402
 78,0.00025707,0.00008657,0.00008145,-0.00005947,0.00007985,0.00030265,
 -0.00017975,-0.00004633,0.02425974,0.00831030,-0.03347641,0.00264749,-
 0.00863997,0.07139425,0.00040980,0.00018740,0.00020731,-0.00079740,-0.
 00019508,0.00033839,0.00012249,-0.00034473,-0.00013399,0.00038028,0.00
 106114,-0.00116392,-0.00033356,-0.00005350,0.00001601,-0.00170122,0.00
 262873,0.00192899,0.00021230,0.00129690,0.00017670,-0.00055531,-0.0047
 6228,0.00662969,0.00635577,-0.00542507,0.00168063,-0.00059451,-0.00182
 561,-0.00256671,-0.00145191,0.00006200,-0.00021412,0.00078922,-0.00036
 482,0.00052485,0.00545520,0.00094305,-0.00247882,-0.00019658,-0.000095
 68,-0.00014343,-0.00038607,0.00039682,0.00015650,-0.00097951,-0.001041
 02,-0.00018337,-0.00900114,-0.00358103,0.00259940,-0.00172721,0.000721
 53,0.00116510,0.00061334,0.00021616,0.00011469,0.00026003,-0.00032112,
 -0.00024938,0.00038527,-0.00013805,0.00044077,-0.00025975,0.00022751,-
 0.00034755,-0.00032500,-0.00012392,-0.00014307,-0.06232933,-0.00115887
 ,0.02447295,0.01108350,0.00793985,-0.01825647,0.27395767,-0.00036458,0
 .00123749,0.00017812,0.00068317,-0.00029059,0.00036903,-0.00007904,-0.
 00010647,-0.00025764,-0.00002645,0.00128468,-0.00036873,-0.00017506,0.
 00007952,0.00009914,-0.00030371,-0.00131555,-0.00037496,-0.00051501,0.
 00136750,0.00032416,-0.00526218,0.00306866,0.00880787,-0.00296218,-0.0
 0223599,0.00019252,-0.00354966,-0.00292911,0.00496049,0.00020139,0.000
 31139,-0.00029323,0.00041772,-0.00027184,0.00002004,0.00277522,0.00054
 189,-0.00318224,-0.00005862,-0.00010030,-0.00005289,-0.00027764,0.0002
 7839,0.00013189,-0.00073202,-0.00148994,0.00019996,-0.00210497,-0.0023
 4538,0.00470187,-0.00197004,-0.00018143,0.00140060,0.00081487,0.000394
 81,0.00029765,0.00002271,-0.00012018,-0.00021161,0.00054653,-0.0003053
 2,0.00011970,-0.00021101,0.00015600,-0.00024092,-0.00028718,0.00006233
 ,-0.00013281,0.00401247,-0.03715884,-0.00927725,0.01310843,-0.00134952
 ,0.00871091,0.18268069,0.26408945,-0.00115966,-0.00123501,-0.00062429,
 0.00113558,0.00102351,-0.00043328,-0.00046454,0.00056946,-0.00001092,-
 0.00016356,-0.00286709,0.00171356,0.00068667,0.00001191,-0.00011203,0.
 00487107,-0.00176741,-0.00173019,-0.00062829,-0.00058340,-0.00077261,0
 .00377448,0.01176489,-0.00498065,-0.00861924,0.00610845,-0.00440950,-0
 .00002177,0.00044695,0.00246404,0.00171868,-0.00025983,0.00064266,-0.0
 0123062,0.00069580,-0.00031172,0.00952132,0.00455546,-0.00628407,0.000
 31371,0.00013066,0.00006887,0.00082179,-0.00086272,-0.00034463,-0.0011
 2766,-0.00109906,0.00023792,-0.00667027,0.00051743,-0.00020884,0.00040
 200,0.00154259,0.00140375,-0.00115119,-0.00067753,-0.00019715,-0.00028
 214,-0.00016182,0.00019089,-0.00112187,0.00049415,-0.00072887,0.000628
 15,-0.00055811,0.00077217,0.00078617,0.00004387,0.00028987,0.02231133,
 -0.00597147,-0.05509985,-0.01516636,0.00758613,-0.00397418,-0.36840820
 ,-0.38372232,0.82285018,-0.00028661,-0.00013047,-0.00026823,0.00031178
 ,0.00014334,-0.00011349,-0.00012200,0.00017097,0.00008973,-0.00003570,
 -0.00042891,0.00041357,0.00023222,-0.00000584,-0.00000869,0.00063271,-
 0.00078012,-0.00064869,0.00008221,-0.00031994,-0.00012329,-0.00031683,
 0.00128622,-0.00115646,-0.00283750,0.00220707,-0.00064645,0.00056344,-
 0.00028205,0.00016532,0.00075958,-0.00014736,0.00013638,-0.00051491,0.
 00024211,-0.00022733,-0.00101969,-0.00056588,0.00145857,0.00012054,0.0
 0007100,0.00005089,0.00027157,-0.00028626,-0.00011129,0.00015307,0.000
 13244,-0.00003145,0.00182719,0.00116115,-0.00090641,0.00072908,0.00018
 527,-0.00015748,-0.00044318,-0.00023150,-0.00014125,-0.00004283,0.0000
 8066,0.00012716,-0.00036200,0.00013254,-0.00024780,0.00019807,-0.00017
 039,0.00024593,0.00022800,0.00004586,0.00009737,0.00813035,-0.01302122
 ,0.02211685,-0.00540051,-0.00197485,0.00345674,-0.21007017,-0.17905317
 ,0.34898029,0.20291406,-0.00011173,-0.00048106,-0.00021688,-0.00008517
 ,0.00015138,-0.00018978,-0.00005266,0.00007122,0.00012316,-0.00004036,
 -0.00064153,0.00022443,0.00019359,-0.00004008,-0.00003357,0.00027877,0
 .00048135,0.00008821,0.00024919,-0.00040124,-0.00008820,0.00084541,-0.
 00183939,-0.00137597,-0.00020160,0.00192910,-0.00008849,0.00123017,0.0
 0063524,-0.00162922,0.00033937,-0.00021655,0.00016598,-0.00041491,0.00
 022121,-0.00012147,-0.00043286,-0.00009196,0.00152601,0.00008684,0.000
 07585,0.00003602,0.00024194,-0.00025338,-0.00010319,0.00020529,0.00025
 769,-0.00005854,0.00087214,0.00117556,-0.00184924,0.00076248,0.0003430
 4,-0.00026516,-0.00051275,-0.00028203,-0.00018773,-0.00001876,0.000050
 69,0.00009577,-0.00040810,0.00019061,-0.00016398,0.00019201,-0.0001549
 2,0.00022418,0.00024089,0.00001381,0.00011017,-0.01259661,0.00129823,0
 .03057282,-0.00809302,-0.00051848,-0.00115688,-0.17867934,-0.22297718,
 0.36673593,0.19130796,0.22088342,0.00058500,0.00049716,0.00049671,-0.0
 0041465,-0.00032104,0.00015017,0.00026130,-0.00024780,-0.00007079,0.00
 011805,0.00129409,-0.00066339,-0.00045493,0.00002846,0.00004519,-0.001
 81812,0.00051910,0.00051566,-0.00000787,0.00028558,0.00029144,-0.00033
 952,-0.00263460,0.00016210,0.00395544,-0.00371820,0.00124742,-0.000617
 19,0.00047658,0.00020619,-0.00116924,0.00031780,-0.00035631,0.00089573
 ,-0.00047590,0.00027631,-0.00293798,-0.00133837,0.00041671,-0.00020773
 ,-0.00012088,-0.00006208,-0.00054109,0.00057589,0.00022493,0.00012692,
 0.00031161,0.00004169,0.00097571,-0.00136798,0.00186398,-0.00073549,-0
 .00087296,-0.00052212,0.00087462,0.00051584,0.00027822,0.00008260,0.00
 003555,-0.00016189,0.00076624,-0.00031066,0.00047590,-0.00041503,0.000
 35938,-0.00050286,-0.00046049,-0.00004375,-0.00020490,0.01675801,0.029
 76975,-0.03557106,0.01299171,-0.00049966,-0.00108811,0.35149654,0.3688
 6284,-0.75048441,-0.37175035,-0.39224537,0.78215207,-0.00137803,-0.002
 30294,0.00065791,0.00084379,0.00283117,-0.00022002,0.00024594,0.000184
 10,-0.00005071,0.00012239,-0.00084367,0.00079683,0.00132613,-0.0002677
 7,0.00006022,0.00372572,-0.00169534,0.00118097,0.00027234,0.00030487,-
 0.00020193,-0.00011149,-0.00035140,-0.00003801,-0.01686776,-0.00180541
 ,-0.00044554,0.00333482,-0.00171741,-0.00042588,0.00076051,0.00101049,
 -0.00211939,0.00032301,-0.00032658,0.00151710,0.00157496,0.00215001,-0
 .00031549,0.00075201,0.00022020,-0.00064943,0.00032639,-0.00038026,-0.
 00003443,0.00011149,-0.00080892,-0.00105934,0.00122992,-0.00035845,-0.
 00024912,0.00046939,0.00198173,0.00074793,-0.00090273,-0.00054385,-0.0
 0057859,0.00051430,-0.00022341,0.00042115,-0.00222400,0.00047896,0.000
 80046,0.00020603,-0.00018032,0.00026048,0.00166489,-0.00046324,0.00027
 494,-0.04750964,0.00894331,-0.00419278,-1.07344336,0.02009389,-0.00084
 647,-0.00931618,-0.00733070,0.01026410,0.00429806,0.00460184,-0.008018
 20,1.12965110,0.00021023,-0.00039150,0.00046681,-0.00019093,0.00019660
 ,-0.00055957,-0.00000350,-0.00019165,-0.00014095,0.00005167,-0.0002608
 2,0.00015351,-0.00021677,0.00002966,-0.00014744,-0.00000378,0.00115665
 ,-0.00027310,-0.00041671,-0.00024884,-0.00024192,-0.00028696,-0.000881
 58,-0.00087921,-0.00150293,-0.00114736,0.00131504,0.00130165,0.0012990
 8,0.00129838,-0.00026436,-0.00213238,0.00156247,-0.00062404,-0.0000447
 8,-0.00058083,0.00156152,0.00098787,-0.00093507,-0.00002074,0.00016371
 ,0.00015527,0.00005761,-0.00001610,-0.00004851,-0.00024692,0.00048321,
 0.00037772,-0.00170352,-0.00240524,0.00003531,-0.00005846,-0.00075092,
 -0.00026553,0.00004595,0.00002846,0.00016088,-0.00022619,0.00010519,-0
 .00013043,0.00025514,0.00008177,-0.00019785,0.00002290,-0.00004332,0.0
 0004909,-0.00011079,0.00006985,-0.00009390,0.00513411,0.01295521,0.003
 01742,0.02045701,-0.03168555,0.00207002,-0.00025168,0.00030554,-0.0024
 6140,0.00023139,0.00011942,0.00034755,-0.02320091,0.02221782,-0.000116
 58,-0.00002665,0.00007505,0.00057303,0.00010222,0.00028240,0.00000679,
 0.00001827,-0.00000678,-0.00016968,0.00047564,-0.00020702,0.00002990,0
 .00001216,0.00004979,0.00022330,-0.00053994,0.00052377,-0.00013334,0.0
 0017633,0.00010592,-0.00031604,0.00057376,-0.00034308,0.00212581,0.001
 70567,-0.00019996,0.00078063,0.00008632,-0.00085536,0.00017662,0.00051
 030,-0.00006289,0.00007992,-0.00006487,-0.00010841,0.00118584,-0.00030
 124,-0.00028230,0.00003998,0.00007114,0.00001019,-0.00009375,0.0000591
 2,0.00001991,-0.00005162,-0.00019107,0.00017582,0.00158633,0.00159453,
 -0.00064988,-0.00033582,-0.00014931,0.00010092,0.00004275,0.00002260,0
 .00001555,0.00003519,-0.00001863,0.00003679,0.00007213,-0.00007531,0.0
 0006894,-0.00004235,0.00003439,-0.00004968,-0.00007564,0.00004013,0.00
 002460,-0.01101972,-0.00105629,0.01203113,0.00139270,0.00238569,-0.033
 06131,0.00234051,-0.00126219,0.00007330,-0.00080014,-0.00012903,0.0008
 4324,0.00246326,-0.00405375,0.02138935\\0.00002344,-0.00000696,-0.0000
 2372,0.00000034,0.00001708,-0.00000792,-0.00001058,-0.00000670,0.00000
 835,-0.00002039,-0.00001101,0.00001093,-0.00000586,-0.00000150,0.00000
 697,-0.00000714,0.00003865,-0.00008639,0.00000228,-0.00000802,0.000021
 07,0.00000527,0.00000437,0.00002628,0.00001504,-0.00001646,0.00003784,
 0.00001712,-0.00002798,-0.00001186,0.00000541,0.00001490,0.00000097,-0
 .00000527,-0.00000412,0.00000319,-0.00001071,0.00001347,-0.00000581,-0
 .00000296,0.00000377,-0.00000657,0.00000115,0.00000235,-0.00000308,-0.
 00002133,-0.00003347,0.00002912,0.00000412,0.00003156,-0.00001279,-0.0
 0000238,-0.00000646,-0.00000255,-0.00000382,0.00000400,-0.00001065,0.0
 0001416,-0.00000424,0.00002021,0.00000812,-0.00000665,0.00000923,-0.00
 000078,0.00000668,0.00000440,-0.00001070,0.00000375,-0.00000380,0.0000
 2829,-0.00001270,-0.00000835,0.00001552,-0.00000202,-0.00000041,-0.000
 02481,0.00000863,0.00001060,0.00000110,0.00000328,-0.00000970,-0.00001
 466,-0.00000419,0.00000442\\\@
 The archive entry for this job was punched.


 ROSE IS A RED
 TY COBB IS BLUE
 'CAUSE PETE JUST HIT
 NO. 4592.
 Job cpu time:       0 days  6 hours 39 minutes 52.3 seconds.
 Elapsed time:       0 days  0 hours  8 minutes 44.3 seconds.
 File lengths (MBytes):  RWF=   1238 Int=      0 D2E=      0 Chk=     25 Scr=      2
 Normal termination of Gaussian 16 at Sat Dec 10 09:23:36 2022.
