       N       E                     dE             d eps       ncg     rms          rms(c)
DAV:   1     0.183742559092E+05    0.18374E+05   -0.76028E+05  6048   0.101E+03
DAV:   2     0.621543461371E+02   -0.18312E+05   -0.17651E+05  8208   0.267E+02
DAV:   3    -0.299753744394E+04   -0.30597E+04   -0.30424E+04  6912   0.117E+02
DAV:   4    -0.307237155810E+04   -0.74834E+02   -0.74543E+02  7344   0.213E+01
DAV:   5    -0.307364734773E+04   -0.12758E+01   -0.12736E+01  7632   0.262E+00    0.190E+02
DAV:   6    -0.149055989439E+04    0.15831E+04   -0.30085E+03  7056   0.430E+01    0.879E+01
DAV:   7    -0.163695413686E+04   -0.14639E+03   -0.29312E+02  7056   0.123E+01    0.548E+01
DAV:   8    -0.166798139375E+04   -0.31027E+02   -0.59819E+01  6768   0.500E+00    0.426E+01
DAV:   9    -0.182251026435E+04   -0.15453E+03   -0.40331E+01  7200   0.467E+00    0.345E+01
DAV:  10    -0.206488774408E+04   -0.24238E+03   -0.71803E+01  7200   0.599E+00    0.284E+01
DAV:  11    -0.231552295334E+04   -0.25064E+03   -0.10808E+02  7056   0.728E+00    0.227E+01
DAV:  12    -0.270023858400E+04   -0.38472E+03   -0.33112E+02  7344   0.115E+01    0.141E+01
DAV:  13    -0.282765531671E+04   -0.12742E+03   -0.10288E+02  7200   0.574E+00    0.105E+01
DAV:  14    -0.286027216394E+04   -0.32617E+02   -0.13105E+01  7056   0.249E+00    0.855E+00
DAV:  15    -0.287743868126E+04   -0.17167E+02   -0.44536E+00  6912   0.156E+00    0.689E+00
DAV:  16    -0.288601851091E+04   -0.85798E+01   -0.19092E+00  7200   0.108E+00    0.561E+00
DAV:  17    -0.289234402956E+04   -0.63255E+01   -0.16425E+00  7056   0.893E-01    0.436E+00
DAV:  18    -0.289695570509E+04   -0.46117E+01   -0.13225E+00  6912   0.755E-01    0.305E+00
DAV:  19    -0.290038653432E+04   -0.34308E+01   -0.75286E-01  6624   0.580E-01    0.184E+00
DAV:  20    -0.289994477693E+04    0.44176E+00   -0.19263E-01  6768   0.354E-01    0.123E+00
DAV:  21    -0.290105924961E+04   -0.11145E+01   -0.51021E-02  7056   0.248E-01    0.807E-01
DAV:  22    -0.290322123963E+04   -0.21620E+01   -0.45263E-02  6912   0.220E-01    0.491E-01
DAV:  23    -0.290475770747E+04   -0.15365E+01   -0.25786E-02  7056   0.150E-01    0.311E-01
DAV:  24    -0.290555239960E+04   -0.79469E+00   -0.13095E-02  7056   0.108E-01    0.175E-01
DAV:  25    -0.290586808123E+04   -0.31568E+00   -0.48590E-03  7056   0.734E-02    0.973E-02
DAV:  26    -0.290597835557E+04   -0.11027E+00   -0.16884E-03  7344   0.444E-02    0.574E-02
DAV:  27    -0.290600704556E+04   -0.28690E-01   -0.53477E-04  7200   0.252E-02    0.328E-02
DAV:  28    -0.290601395344E+04   -0.69079E-02   -0.14929E-04  7200   0.147E-02    0.195E-02
DAV:  29    -0.290601746475E+04   -0.35113E-02   -0.78515E-05  6768   0.109E-02    0.112E-02
DAV:  30    -0.290601871608E+04   -0.12513E-02   -0.27423E-05  6624   0.709E-03    0.777E-03
DAV:  31    -0.290601949531E+04   -0.77923E-03   -0.11527E-05  5904   0.485E-03    0.566E-03
DAV:  32    -0.290602033350E+04   -0.83819E-03   -0.10029E-05  6048   0.419E-03    0.418E-03
DAV:  33    -0.290602069754E+04   -0.36403E-03   -0.22989E-06  5472   0.261E-03    0.346E-03
DAV:  34    -0.290602108416E+04   -0.38663E-03   -0.14117E-06  5616   0.194E-03    0.281E-03
DAV:  35    -0.290602124499E+04   -0.16082E-03    0.12124E-06  5616   0.125E-03    0.256E-03
DAV:  36    -0.290602131081E+04   -0.65825E-04    0.21509E-06  5328   0.791E-04    0.248E-03
DAV:  37    -0.290602134144E+04   -0.30628E-04    0.25309E-06  5472   0.532E-04    0.243E-03
DAV:  38    -0.290602135754E+04   -0.16099E-04    0.26802E-06  5472   0.414E-04    0.241E-03
DAV:  39    -0.290602136433E+04   -0.67916E-05    0.27900E-06  5472   0.253E-04
   1 F= -.29408620E+04 E0= -.29408620E+04  d E =-.294086E+04  mag=     2.0000
       N       E                     dE             d eps       ncg     rms          rms(c)
DAV:   1    -0.290602099644E+04    0.36110E-03   -0.13766E-01  6336   0.148E-01    0.695E-02
DAV:   2    -0.290602098903E+04    0.74116E-05   -0.71383E-04  6480   0.109E-02    0.350E-02
DAV:   3    -0.290602097352E+04    0.15504E-04   -0.54631E-05  6624   0.409E-03    0.152E-02
DAV:   4    -0.290602098045E+04   -0.69267E-05   -0.16687E-05  6624   0.188E-03
   2 F= -.29408616E+04 E0= -.29408616E+04  d E =0.415911E-03  mag=     2.0000
       N       E                     dE             d eps       ncg     rms          rms(c)
DAV:   1    -0.290602122434E+04   -0.25081E-03   -0.27544E-01  6336   0.216E-01    0.985E-02
DAV:   2    -0.290602123018E+04   -0.58468E-05   -0.14665E-03  6336   0.156E-02    0.500E-02
DAV:   3    -0.290602120408E+04    0.26101E-04   -0.11294E-04  6624   0.605E-03    0.205E-02
DAV:   4    -0.290602121594E+04   -0.11858E-04   -0.36115E-05  6768   0.259E-03    0.110E-02
DAV:   5    -0.290602121884E+04   -0.28993E-05   -0.18935E-06  6048   0.103E-03
   3 F= -.29408619E+04 E0= -.29408619E+04  d E =-.297831E-03  mag=     2.0000
       N       E                     dE             d eps       ncg     rms          rms(c)
DAV:   1    -0.290602063212E+04    0.58382E-03   -0.27829E-01  6336   0.222E-01    0.130E-01
DAV:   2    -0.290602057417E+04    0.57944E-04   -0.16374E-03  6336   0.173E-02    0.610E-02
DAV:   3    -0.290602050159E+04    0.72587E-04   -0.19358E-04  6480   0.780E-03    0.278E-02
DAV:   4    -0.290602049894E+04    0.26483E-05   -0.58605E-05  6768   0.324E-03
   4 F= -.29408610E+04 E0= -.29408610E+04  d E =0.836128E-03  mag=     2.0000
       N       E                     dE             d eps       ncg     rms          rms(c)
DAV:   1    -0.290602126536E+04   -0.76377E-03   -0.27708E-01  6336   0.226E-01    0.109E-01
DAV:   2    -0.290602134662E+04   -0.81256E-04   -0.20595E-03  6336   0.189E-02    0.542E-02
DAV:   3    -0.290602130014E+04    0.46478E-04   -0.12322E-04  6624   0.613E-03    0.225E-02
DAV:   4    -0.290602130524E+04   -0.50979E-05   -0.43285E-05  6336   0.279E-03
   5 F= -.29408619E+04 E0= -.29408619E+04  d E =-.890137E-03  mag=     2.0000
       N       E                     dE             d eps       ncg     rms          rms(c)
DAV:   1    -0.290602072078E+04    0.57936E-03   -0.27457E-01  6336   0.220E-01    0.867E-02
DAV:   2    -0.290602074358E+04   -0.22806E-04   -0.12940E-03  6336   0.155E-02    0.441E-02
DAV:   3    -0.290602071389E+04    0.29696E-04   -0.83957E-05  6624   0.535E-03    0.167E-02
DAV:   4    -0.290602071657E+04   -0.26863E-05   -0.24492E-05  6768   0.224E-03
   6 F= -.29408613E+04 E0= -.29408613E+04  d E =0.650003E-03  mag=     2.0000
       N       E                     dE             d eps       ncg     rms          rms(c)
DAV:   1    -0.290602110494E+04   -0.39105E-03   -0.27463E-01  6336   0.222E-01    0.705E-02
DAV:   2    -0.290602112714E+04   -0.22200E-04   -0.10480E-03  6480   0.144E-02    0.373E-02
DAV:   3    -0.290602112441E+04    0.27347E-05   -0.52186E-05  6624   0.397E-03
   7 F= -.29408617E+04 E0= -.29408617E+04  d E =-.385023E-03  mag=     2.0000
       N       E                     dE             d eps       ncg     rms          rms(c)
DAV:   1    -0.290602119370E+04   -0.66559E-04   -0.21608E-01  6336   0.170E-01    0.111E-01
DAV:   2    -0.290602129686E+04   -0.10316E-03   -0.13349E-03  6480   0.156E-02    0.576E-02
DAV:   3    -0.290602126751E+04    0.29349E-04   -0.89274E-05  6624   0.450E-03    0.363E-02
DAV:   4    -0.290602126298E+04    0.45364E-05   -0.36955E-05  6480   0.341E-03
   8 F= -.29408618E+04 E0= -.29408618E+04  d E =-.189547E-03  mag=     2.0000
       N       E                     dE             d eps       ncg     rms          rms(c)
DAV:   1    -0.290602115206E+04    0.11546E-03   -0.15058E-01  6336   0.781E-02    0.113E-01
DAV:   2    -0.290602111210E+04    0.39953E-04   -0.12048E-03  6768   0.194E-02    0.525E-02
DAV:   3    -0.290602115411E+04   -0.42005E-04   -0.22306E-04  6768   0.572E-03    0.323E-02
DAV:   4    -0.290602116043E+04   -0.63195E-05   -0.46546E-05  6336   0.464E-03
   9 F= -.29408617E+04 E0= -.29408617E+04  d E =0.102616E-03  mag=     2.0000
       N       E                     dE             d eps       ncg     rms          rms(c)
DAV:   1    -0.290602150843E+04   -0.35432E-03   -0.14907E-01  6336   0.811E-02    0.128E-01
DAV:   2    -0.290602137768E+04    0.13075E-03   -0.13788E-03  6768   0.212E-02    0.576E-02
DAV:   3    -0.290602142468E+04   -0.47003E-04   -0.30235E-04  6624   0.635E-03    0.397E-02
DAV:   4    -0.290602143094E+04   -0.62648E-05   -0.53081E-05  6336   0.456E-03
  10 F= -.29408615E+04 E0= -.29408615E+04  d E =0.210554E-03  mag=     2.0000
       N       E                     dE             d eps       ncg     rms          rms(c)
DAV:   1    -0.290602111103E+04    0.31365E-03   -0.12794E-01  6336   0.113E-01    0.128E-01
DAV:   2    -0.290602120120E+04   -0.90172E-04   -0.77936E-04  6624   0.106E-02    0.652E-02
DAV:   3    -0.290602118344E+04    0.17760E-04   -0.13780E-04  6336   0.466E-03    0.546E-02
DAV:   4    -0.290602113461E+04    0.48823E-04   -0.65249E-05  6768   0.371E-03    0.129E-02
DAV:   5    -0.290602116314E+04   -0.28523E-04   -0.88200E-06  6336   0.153E-03    0.786E-03
DAV:   6    -0.290602118370E+04   -0.20562E-04    0.63008E-07  6192   0.705E-04    0.415E-03
DAV:   7    -0.290602119707E+04   -0.13366E-04    0.23621E-06  5184   0.370E-04    0.295E-03
DAV:   8    -0.290602120479E+04   -0.77205E-05    0.26603E-06  5472   0.304E-04
  11 F= -.29408618E+04 E0= -.29408618E+04  d E =-.294855E-03  mag=     2.0000
       N       E                     dE             d eps       ncg     rms          rms(c)
DAV:   1    -0.290602051578E+04    0.68128E-03   -0.10210E-01  6336   0.130E-01    0.971E-02
DAV:   2    -0.290602047079E+04    0.44996E-04   -0.54384E-04  6480   0.119E-02    0.642E-02
DAV:   3    -0.290602045083E+04    0.19955E-04   -0.13593E-04  6624   0.476E-03    0.382E-02
DAV:   4    -0.290602045580E+04   -0.49660E-05   -0.70941E-05  6336   0.391E-03
  12 F= -.29408610E+04 E0= -.29408610E+04  d E =0.787042E-03  mag=     2.0000
       N       E                     dE             d eps       ncg     rms          rms(c)
DAV:   1    -0.290602106791E+04   -0.61707E-03   -0.99043E-02  6336   0.129E-01    0.740E-02
DAV:   2    -0.290602108063E+04   -0.12721E-04   -0.43100E-04  6624   0.942E-03    0.525E-02
DAV:   3    -0.290602108436E+04   -0.37366E-05   -0.47707E-05  6624   0.358E-03
  13 F= -.29408616E+04 E0= -.29408616E+04  d E =-.510141E-03  mag=     2.0000
       N       E                     dE             d eps       ncg     rms          rms(c)
DAV:   1    -0.290602112682E+04   -0.46195E-04   -0.10659E-01  6336   0.139E-01    0.114E-01
DAV:   2    -0.290602103605E+04    0.90768E-04   -0.12099E-03  6768   0.195E-02    0.694E-02
DAV:   3    -0.290602098148E+04    0.54574E-04   -0.23242E-04  6480   0.529E-03    0.406E-02
DAV:   4    -0.290602098006E+04    0.14139E-05   -0.10136E-04  6336   0.495E-03    0.216E-02
DAV:   5    -0.290602098582E+04   -0.57520E-05   -0.21675E-05  6336   0.220E-03
  14 F= -.29408616E+04 E0= -.29408616E+04  d E =-.452693E-04  mag=     2.0000
       N       E                     dE             d eps       ncg     rms          rms(c)
DAV:   1    -0.290602122573E+04   -0.24566E-03   -0.10440E-01  6336   0.126E-01    0.112E-01
DAV:   2    -0.290602116736E+04    0.58368E-04   -0.87431E-04  6912   0.156E-02    0.773E-02
DAV:   3    -0.290602113399E+04    0.33366E-04   -0.19016E-04  6480   0.526E-03    0.488E-02
DAV:   4    -0.290602114622E+04   -0.12224E-04   -0.10825E-04  6336   0.530E-03    0.200E-02
DAV:   5    -0.290602115348E+04   -0.72611E-05   -0.34831E-05  6336   0.251E-03
  15 F= -.29408618E+04 E0= -.29408618E+04  d E =-.181577E-03  mag=     2.0000
       N       E                     dE             d eps       ncg     rms          rms(c)
DAV:   1    -0.290602085320E+04    0.29302E-03   -0.11342E-01  6336   0.135E-01    0.146E-01
DAV:   2    -0.290602065359E+04    0.19961E-03   -0.14239E-03  6912   0.215E-02    0.105E-01
DAV:   3    -0.290602058270E+04    0.70890E-04   -0.32776E-04  6768   0.637E-03    0.663E-02
DAV:   4    -0.290602058626E+04   -0.35596E-05   -0.18863E-04  6336   0.726E-03    0.261E-02
DAV:   5    -0.290602059304E+04   -0.67813E-05   -0.56059E-05  6336   0.360E-03
  16 F= -.29408611E+04 E0= -.29408611E+04  d E =0.695983E-03  mag=     2.0000
