       N       E                     dE             d eps       ncg     rms          rms(c)
DAV:   1     0.186535409267E+05    0.18654E+05   -0.77009E+05  6048   0.103E+03
DAV:   2     0.213217069958E+03   -0.18440E+05   -0.17683E+05  8064   0.271E+02
DAV:   3    -0.300270986354E+04   -0.32159E+04   -0.31974E+04  6912   0.120E+02
DAV:   4    -0.308805100658E+04   -0.85341E+02   -0.84954E+02  7200   0.227E+01
DAV:   5    -0.308980914958E+04   -0.17581E+01   -0.17547E+01  7488   0.302E+00    0.191E+02
DAV:   6    -0.149791481342E+04    0.15919E+04   -0.30361E+03  6720   0.434E+01    0.889E+01
DAV:   7    -0.164088656537E+04   -0.14297E+03   -0.27164E+02  7200   0.124E+01    0.563E+01
DAV:   8    -0.166761757061E+04   -0.26731E+02   -0.38533E+01  7296   0.515E+00    0.434E+01
DAV:   9    -0.182110455779E+04   -0.15349E+03   -0.31567E+01  7488   0.478E+00    0.352E+01
DAV:  10    -0.203515974231E+04   -0.21406E+03   -0.61944E+01  7296   0.554E+00    0.301E+01
DAV:  11    -0.224121701034E+04   -0.20606E+03   -0.78748E+01  7488   0.623E+00    0.265E+01
DAV:  12    -0.248176540014E+04   -0.24055E+03   -0.14228E+02  7392   0.798E+00    0.218E+01
DAV:  13    -0.274368440681E+04   -0.26192E+03   -0.22635E+02  7008   0.930E+00    0.158E+01
DAV:  14    -0.283357317563E+04   -0.89889E+02   -0.62724E+01  7008   0.453E+00    0.115E+01
DAV:  15    -0.287694625390E+04   -0.43373E+02   -0.21961E+01  6624   0.279E+00    0.921E+00
DAV:  16    -0.289681478150E+04   -0.19869E+02   -0.58603E+00  6912   0.163E+00    0.747E+00
DAV:  17    -0.290787926897E+04   -0.11064E+02   -0.25556E+00  7008   0.113E+00    0.607E+00
DAV:  18    -0.291505677440E+04   -0.71775E+01   -0.17217E+00  6816   0.918E-01    0.470E+00
DAV:  19    -0.291937555762E+04   -0.43188E+01   -0.12650E+00  6912   0.738E-01    0.343E+00
DAV:  20    -0.292399982233E+04   -0.46243E+01   -0.11060E+00  6528   0.616E-01    0.206E+00
DAV:  21    -0.292423434495E+04   -0.23452E+00   -0.32289E-01  6720   0.409E-01    0.123E+00
DAV:  22    -0.292566003202E+04   -0.14257E+01   -0.99300E-02  6816   0.295E-01    0.798E-01
DAV:  23    -0.292713253150E+04   -0.14725E+01   -0.29958E-02  6816   0.184E-01    0.525E-01
DAV:  24    -0.292879455883E+04   -0.16620E+01   -0.30680E-02  6720   0.152E-01    0.310E-01
DAV:  25    -0.292970568316E+04   -0.91112E+00   -0.15529E-02  7008   0.107E-01    0.185E-01
DAV:  26    -0.293006163173E+04   -0.35595E+00   -0.57365E-03  7200   0.745E-02    0.106E-01
DAV:  27    -0.293021594829E+04   -0.15432E+00   -0.22672E-03  6912   0.430E-02    0.634E-02
DAV:  28    -0.293024693321E+04   -0.30985E-01   -0.64783E-04  7104   0.255E-02    0.395E-02
DAV:  29    -0.293025724080E+04   -0.10308E-01   -0.24624E-04  7008   0.151E-02    0.240E-02
DAV:  30    -0.293026215939E+04   -0.49186E-02   -0.10406E-04  6624   0.101E-02    0.144E-02
DAV:  31    -0.293026390564E+04   -0.17463E-02   -0.37862E-05  6624   0.654E-03    0.111E-02
DAV:  32    -0.293026594413E+04   -0.20385E-02   -0.24950E-05  6240   0.480E-03    0.721E-03
DAV:  33    -0.293026744213E+04   -0.14980E-02   -0.18362E-05  5952   0.376E-03    0.532E-03
DAV:  34    -0.293026813304E+04   -0.69091E-03   -0.51146E-06  5472   0.281E-03    0.416E-03
DAV:  35    -0.293026883474E+04   -0.70171E-03   -0.59206E-06  5472   0.246E-03    0.305E-03
DAV:  36    -0.293026913443E+04   -0.29968E-03    0.12701E-07  4992   0.137E-03    0.261E-03
DAV:  37    -0.293026928375E+04   -0.14932E-03    0.13131E-06  5088   0.990E-04    0.241E-03
DAV:  38    -0.293026933706E+04   -0.53304E-04    0.22773E-06  4992   0.634E-04    0.231E-03
DAV:  39    -0.293026937178E+04   -0.34722E-04    0.25285E-06  5088   0.472E-04    0.225E-03
DAV:  40    -0.293026939430E+04   -0.22519E-04    0.26263E-06  4992   0.370E-04    0.224E-03
DAV:  41    -0.293026939988E+04   -0.55867E-05    0.27649E-06  5184   0.215E-04
   1 F= -.29663764E+04 E0= -.29663764E+04  d E =-.296638E+04  mag=     0.0000
       N       E                     dE             d eps       ncg     rms          rms(c)
DAV:   1    -0.293026926548E+04    0.12882E-03   -0.78113E-03  6240   0.230E-02    0.674E-02
DAV:   2    -0.293026925990E+04    0.55732E-05   -0.49838E-05  6816   0.237E-03
   2 F= -.29663762E+04 E0= -.29663762E+04  d E =0.182871E-03  mag=     0.0000
       N       E                     dE             d eps       ncg     rms          rms(c)
DAV:   1    -0.293026948022E+04   -0.21474E-03   -0.15526E-02  5760   0.327E-02    0.516E-02
DAV:   2    -0.293026948427E+04   -0.40464E-05   -0.80715E-05  6624   0.259E-03
   3 F= -.29663764E+04 E0= -.29663764E+04  d E =-.219405E-03  mag=     0.0000
       N       E                     dE             d eps       ncg     rms          rms(c)
DAV:   1    -0.293026928104E+04    0.19918E-03   -0.15703E-02  5760   0.326E-02    0.732E-02
DAV:   2    -0.293026930358E+04   -0.22540E-04   -0.43452E-04  6720   0.571E-03    0.460E-02
DAV:   3    -0.293026933691E+04   -0.33333E-04   -0.11854E-03  6720   0.801E-03    0.631E-02
DAV:   4    -0.293026927715E+04    0.59756E-04   -0.50449E-04  6528   0.501E-03    0.113E-02
DAV:   5    -0.293026927657E+04    0.58347E-06   -0.80747E-06  5568   0.932E-04
   4 F= -.29663762E+04 E0= -.29663762E+04  d E =0.188568E-03  mag=     0.0000
       N       E                     dE             d eps       ncg     rms          rms(c)
DAV:   1    -0.293026940988E+04   -0.13273E-03   -0.15744E-02  5760   0.367E-02    0.957E-02
DAV:   2    -0.293026940008E+04    0.98001E-05   -0.10891E-04  6720   0.357E-03    0.277E-02
DAV:   3    -0.293026939876E+04    0.13196E-05   -0.18555E-05  5952   0.146E-03
   5 F= -.29663763E+04 E0= -.29663763E+04  d E =-.104963E-03  mag=     0.0000
       N       E                     dE             d eps       ncg     rms          rms(c)
DAV:   1    -0.293026939817E+04    0.19158E-05   -0.15639E-02  5760   0.341E-02    0.522E-02
DAV:   2    -0.293026944108E+04   -0.42909E-04   -0.67100E-04  6720   0.658E-03    0.582E-02
DAV:   3    -0.293026941075E+04    0.30329E-04   -0.83524E-04  6624   0.660E-03    0.361E-02
DAV:   4    -0.293026939500E+04    0.15744E-04   -0.15583E-04  5952   0.276E-03    0.101E-02
DAV:   5    -0.293026939509E+04   -0.85740E-07   -0.42632E-06  5568   0.870E-04
   6 F= -.29663764E+04 E0= -.29663764E+04  d E =-.754104E-04  mag=     0.0000
       N       E                     dE             d eps       ncg     rms          rms(c)
DAV:   1    -0.293026917951E+04    0.21549E-03   -0.15654E-02  5760   0.336E-02    0.847E-02
DAV:   2    -0.293026917441E+04    0.51032E-05   -0.84798E-05  6336   0.279E-03
   7 F= -.29663761E+04 E0= -.29663761E+04  d E =0.293061E-03  mag=     0.0000
       N       E                     dE             d eps       ncg     rms          rms(c)
DAV:   1    -0.293026924766E+04   -0.68147E-04   -0.16194E-02  5760   0.432E-02    0.107E-01
DAV:   2    -0.293026924606E+04    0.16069E-05   -0.29994E-04  6720   0.561E-03    0.361E-02
DAV:   3    -0.293026930946E+04   -0.63409E-04   -0.10071E-03  6528   0.739E-03    0.718E-02
DAV:   4    -0.293026923417E+04    0.75292E-04   -0.62288E-04  6720   0.568E-03    0.147E-02
DAV:   5    -0.293026923276E+04    0.14130E-05   -0.10304E-05  5568   0.903E-04
   8 F= -.29663762E+04 E0= -.29663762E+04  d E =-.144346E-03  mag=     0.0000
       N       E                     dE             d eps       ncg     rms          rms(c)
DAV:   1    -0.293026938107E+04   -0.14689E-03   -0.15582E-02  5760   0.405E-02    0.483E-02
DAV:   2    -0.293026938398E+04   -0.29140E-05   -0.60081E-05  6336   0.274E-03
   9 F= -.29663763E+04 E0= -.29663763E+04  d E =-.336364E-04  mag=     0.0000
       N       E                     dE             d eps       ncg     rms          rms(c)
DAV:   1    -0.293026927267E+04    0.10840E-03   -0.15683E-02  5760   0.406E-02    0.513E-02
DAV:   2    -0.293026930340E+04   -0.30728E-04   -0.46826E-04  6720   0.576E-03    0.481E-02
DAV:   3    -0.293026929475E+04    0.86452E-05   -0.72385E-04  6720   0.617E-03    0.396E-02
DAV:   4    -0.293026927365E+04    0.21102E-04   -0.18950E-04  6144   0.309E-03    0.868E-03
DAV:   5    -0.293026927347E+04    0.17707E-06   -0.32019E-06  5376   0.750E-04
  10 F= -.29663762E+04 E0= -.29663762E+04  d E =0.823014E-04  mag=     0.0000
       N       E                     dE             d eps       ncg     rms          rms(c)
DAV:   1    -0.293026930310E+04   -0.29451E-04   -0.15975E-02  5760   0.441E-02    0.954E-02
DAV:   2    -0.293026929520E+04    0.78982E-05   -0.11916E-04  6336   0.401E-03    0.267E-02
DAV:   3    -0.293026929838E+04   -0.31750E-05   -0.73263E-05  6336   0.225E-03
  11 F= -.29663763E+04 E0= -.29663763E+04  d E =-.113741E-03  mag=     0.0000
       N       E                     dE             d eps       ncg     rms          rms(c)
DAV:   1    -0.293026933980E+04   -0.44596E-04   -0.15830E-02  5760   0.419E-02    0.665E-02
DAV:   2    -0.293026936634E+04   -0.26541E-04   -0.45095E-04  6528   0.570E-03    0.464E-02
DAV:   3    -0.293026938660E+04   -0.20255E-04   -0.10077E-03  6720   0.727E-03    0.569E-02
DAV:   4    -0.293026934066E+04    0.45936E-04   -0.38727E-04  6528   0.440E-03    0.118E-02
DAV:   5    -0.293026934060E+04    0.64843E-07   -0.64072E-06  5184   0.798E-04
  12 F= -.29663764E+04 E0= -.29663764E+04  d E =-.457914E-04  mag=     0.0000
       N       E                     dE             d eps       ncg     rms          rms(c)
DAV:   1    -0.293026923419E+04    0.10647E-03   -0.15940E-02  5760   0.424E-02    0.103E-01
DAV:   2    -0.293026921576E+04    0.18429E-04   -0.13824E-04  6624   0.423E-03    0.323E-02
DAV:   3    -0.293026922853E+04   -0.12766E-04   -0.22792E-04  6336   0.376E-03    0.368E-02
DAV:   4    -0.293026921360E+04    0.14930E-04   -0.25547E-04  6144   0.370E-03    0.211E-02
DAV:   5    -0.293026921064E+04    0.29590E-05   -0.25397E-05  5952   0.128E-03
  13 F= -.29663761E+04 E0= -.29663761E+04  d E =0.235760E-03  mag=     0.0000
       N       E                     dE             d eps       ncg     rms          rms(c)
DAV:   1    -0.293026930690E+04   -0.93306E-04   -0.80309E-02  5760   0.946E-02    0.139E-01
DAV:   2    -0.293026941697E+04   -0.11006E-03   -0.23634E-03  6528   0.135E-02    0.114E-01
DAV:   3    -0.293026943864E+04   -0.21676E-04   -0.47599E-03  6912   0.164E-02    0.116E-01
DAV:   4    -0.293026925079E+04    0.18785E-03   -0.16330E-03  6336   0.888E-03    0.276E-02
DAV:   5    -0.293026924237E+04    0.84204E-05   -0.63801E-05  6144   0.244E-03
  14 F= -.29663760E+04 E0= -.29663760E+04  d E =0.117127E-03  mag=     0.0000
       N       E                     dE             d eps       ncg     rms          rms(c)
DAV:   1    -0.293026917633E+04    0.74462E-04   -0.14298E-01  5760   0.115E-01    0.122E-01
DAV:   2    -0.293026918642E+04   -0.10090E-04   -0.10738E-03  6528   0.113E-02    0.822E-02
DAV:   3    -0.293026925670E+04   -0.70283E-04   -0.20886E-03  6528   0.112E-02    0.101E-01
DAV:   4    -0.293026913406E+04    0.12265E-03   -0.13674E-03  6336   0.847E-03    0.351E-02
DAV:   5    -0.293026911995E+04    0.14110E-04   -0.12057E-04  5952   0.314E-03    0.114E-02
DAV:   6    -0.293026911931E+04    0.63668E-06   -0.23517E-06  5376   0.945E-04
  15 F= -.29663760E+04 E0= -.29663760E+04  d E =-.504788E-04  mag=     0.0000
       N       E                     dE             d eps       ncg     rms          rms(c)
DAV:   1    -0.293026946215E+04   -0.34220E-03   -0.14395E-01  5568   0.114E-01    0.114E-01
DAV:   2    -0.293026945433E+04    0.78249E-05   -0.82861E-04  6528   0.108E-02    0.715E-02
DAV:   3    -0.293026952140E+04   -0.67075E-04   -0.14634E-03  6528   0.924E-03    0.897E-02
DAV:   4    -0.293026942504E+04    0.96365E-04   -0.12529E-03  6144   0.840E-03    0.345E-02
DAV:   5    -0.293026941095E+04    0.14087E-04   -0.12456E-04  5952   0.314E-03    0.103E-02
DAV:   6    -0.293026941047E+04    0.47532E-06   -0.82671E-07  5376   0.988E-04
  16 F= -.29663760E+04 E0= -.29663760E+04  d E =0.357523E-04  mag=     0.0000
       N       E                     dE             d eps       ncg     rms          rms(c)
DAV:   1    -0.293026892279E+04    0.48816E-03   -0.14622E-01  6144   0.124E-01    0.123E-01
DAV:   2    -0.293026891762E+04    0.51704E-05   -0.70639E-04  6720   0.120E-02    0.767E-02
DAV:   3    -0.293026891491E+04    0.27119E-05   -0.34174E-04  6720   0.593E-03    0.540E-02
DAV:   4    -0.293026895625E+04   -0.41337E-04   -0.11946E-03  6336   0.818E-03    0.701E-02
DAV:   5    -0.293026888779E+04    0.68457E-04   -0.63330E-04  6336   0.621E-03    0.146E-02
DAV:   6    -0.293026888527E+04    0.25179E-05   -0.13552E-05  6144   0.151E-03
  17 F= -.29663760E+04 E0= -.29663760E+04  d E =0.304652E-04  mag=     0.0000
       N       E                     dE             d eps       ncg     rms          rms(c)
DAV:   1    -0.293026912215E+04   -0.23436E-03   -0.14001E-01  5952   0.123E-01    0.116E-01
DAV:   2    -0.293026917428E+04   -0.52129E-04   -0.15402E-03  6720   0.127E-02    0.939E-02
DAV:   3    -0.293026920413E+04   -0.29850E-04   -0.27091E-03  6624   0.126E-02    0.980E-02
DAV:   4    -0.293026908109E+04    0.12304E-03   -0.11684E-03  6336   0.788E-03    0.285E-02
DAV:   5    -0.293026907209E+04    0.90000E-05   -0.75562E-05  6144   0.290E-03
  18 F= -.29663760E+04 E0= -.29663760E+04  d E =-.589116E-04  mag=     0.0000
       N       E                     dE             d eps       ncg     rms          rms(c)
DAV:   1    -0.293026951912E+04   -0.43803E-03   -0.14338E-01  5952   0.120E-01    0.117E-01
DAV:   2    -0.293026950158E+04    0.17545E-04   -0.78361E-04  6336   0.111E-02    0.647E-02
DAV:   3    -0.293026954033E+04   -0.38753E-04   -0.94079E-04  6720   0.788E-03    0.754E-02
DAV:   4    -0.293026948079E+04    0.59541E-04   -0.98365E-04  6336   0.737E-03    0.385E-02
DAV:   5    -0.293026946382E+04    0.16967E-04   -0.15764E-04  5952   0.330E-03    0.137E-02
DAV:   6    -0.293026946226E+04    0.15565E-05   -0.93183E-06  6336   0.158E-03
  19 F= -.29663760E+04 E0= -.29663760E+04  d E =0.392013E-04  mag=     0.0000
       N       E                     dE             d eps       ncg     rms          rms(c)
DAV:   1    -0.293026959997E+04   -0.13615E-03   -0.10039E-01  6144   0.993E-02    0.942E-02
DAV:   2    -0.293026968428E+04   -0.84304E-04   -0.20527E-03  6720   0.159E-02    0.111E-01
DAV:   3    -0.293026960108E+04    0.83192E-04   -0.14986E-03  6720   0.969E-03    0.592E-02
DAV:   4    -0.293026958615E+04    0.14930E-04   -0.60786E-04  6528   0.584E-03    0.495E-02
DAV:   5    -0.293026956315E+04    0.23004E-04   -0.16217E-04  6336   0.395E-03    0.168E-02
DAV:   6    -0.293026956086E+04    0.22884E-05   -0.67556E-06  6144   0.181E-03
  20 F= -.29663763E+04 E0= -.29663763E+04  d E =-.264091E-03  mag=     0.0000
       N       E                     dE             d eps       ncg     rms          rms(c)
DAV:   1    -0.293026915562E+04    0.40753E-03   -0.52909E-02  5760   0.616E-02    0.821E-02
DAV:   2    -0.293026925916E+04   -0.10354E-03   -0.19403E-03  6528   0.164E-02    0.125E-01
DAV:   3    -0.293026916723E+04    0.91930E-04   -0.53693E-04  6336   0.563E-03    0.738E-02
DAV:   4    -0.293026921735E+04   -0.50126E-04   -0.32692E-04  6336   0.426E-03    0.835E-02
DAV:   5    -0.293026916205E+04    0.55304E-04   -0.34394E-04  6144   0.465E-03    0.283E-02
DAV:   6    -0.293026915662E+04    0.54250E-05   -0.13331E-05  6144   0.175E-03
  21 F= -.29663763E+04 E0= -.29663763E+04  d E =0.152100E-05  mag=     0.0000
       N       E                     dE             d eps       ncg     rms          rms(c)
DAV:   1    -0.293026942477E+04   -0.26272E-03   -0.51666E-02  5760   0.550E-02    0.799E-02
DAV:   2    -0.293026948037E+04   -0.55604E-04   -0.13995E-03  6528   0.139E-02    0.999E-02
DAV:   3    -0.293026942361E+04    0.56758E-04   -0.73440E-04  6528   0.655E-03    0.537E-02
DAV:   4    -0.293026944510E+04   -0.21491E-04   -0.47079E-04  6336   0.503E-03    0.601E-02
DAV:   5    -0.293026941491E+04    0.30188E-04   -0.21571E-04  6144   0.367E-03    0.167E-02
DAV:   6    -0.293026941213E+04    0.27827E-05   -0.64332E-06  5760   0.138E-03
  22 F= -.29663761E+04 E0= -.29663761E+04  d E =0.142642E-03  mag=     0.0000
       N       E                     dE             d eps       ncg     rms          rms(c)
DAV:   1    -0.293026929924E+04    0.11568E-03   -0.50574E-02  5760   0.694E-02    0.126E-01
DAV:   2    -0.293026935645E+04   -0.57211E-04   -0.11286E-03  6528   0.153E-02    0.849E-02
DAV:   3    -0.293026941190E+04   -0.55454E-04   -0.17851E-03  6720   0.997E-03    0.745E-02
DAV:   4    -0.293026935415E+04    0.57752E-04   -0.17992E-03  6720   0.967E-03    0.624E-02
DAV:   5    -0.293026931496E+04    0.39191E-04   -0.30803E-04  6336   0.386E-03    0.473E-03
DAV:   6    -0.293026931393E+04    0.10232E-05   -0.38717E-07  5376   0.724E-04
  23 F= -.29663762E+04 E0= -.29663762E+04  d E =-.608876E-04  mag=     0.0000
       N       E                     dE             d eps       ncg     rms          rms(c)
DAV:   1    -0.293026925527E+04    0.59685E-04   -0.52452E-02  5856   0.722E-02    0.630E-02
DAV:   2    -0.293026931496E+04   -0.59684E-04   -0.11153E-03  6528   0.160E-02    0.935E-02
DAV:   3    -0.293026927271E+04    0.42244E-04   -0.22960E-04  6336   0.394E-03    0.582E-02
DAV:   4    -0.293026930970E+04   -0.36983E-04   -0.22021E-04  6528   0.391E-03    0.679E-02
DAV:   5    -0.293026926956E+04    0.40136E-04   -0.24291E-04  6336   0.395E-03    0.148E-02
DAV:   6    -0.293026926710E+04    0.24596E-05   -0.32633E-06  5952   0.123E-03
  24 F= -.29663763E+04 E0= -.29663763E+04  d E =-.103632E-03  mag=     0.0000
       N       E                     dE             d eps       ncg     rms          rms(c)
DAV:   1    -0.293026932080E+04   -0.51241E-04   -0.51334E-02  5760   0.708E-02    0.472E-02
DAV:   2    -0.293026935012E+04   -0.29316E-04   -0.42259E-04  6336   0.129E-02    0.527E-02
DAV:   3    -0.293026934831E+04    0.18100E-05   -0.66270E-06  5952   0.145E-03
  25 F= -.29663761E+04 E0= -.29663761E+04  d E =0.145786E-03  mag=     0.0000
       N       E                     dE             d eps       ncg     rms          rms(c)
DAV:   1    -0.293026917848E+04    0.17164E-03   -0.54029E-02  5952   0.743E-02    0.109E-01
DAV:   2    -0.293026954728E+04   -0.36880E-03   -0.58543E-03  6720   0.249E-02    0.185E-01
DAV:   3    -0.293026919887E+04    0.34841E-03   -0.32200E-03  6816   0.134E-02    0.605E-02
DAV:   4    -0.293026921410E+04   -0.15230E-04   -0.49033E-04  6336   0.522E-03    0.692E-02
DAV:   5    -0.293026918338E+04    0.30719E-04   -0.19271E-04  6432   0.358E-03    0.247E-02
DAV:   6    -0.293026917802E+04    0.53596E-05   -0.16458E-05  6336   0.181E-03
  26 F= -.29663762E+04 E0= -.29663762E+04  d E =-.331675E-04  mag=     0.0000
       N       E                     dE             d eps       ncg     rms          rms(c)
DAV:   1    -0.293026942220E+04   -0.23881E-03   -0.52017E-02  5760   0.635E-02    0.630E-02
DAV:   2    -0.293026949288E+04   -0.70680E-04   -0.11994E-03  6336   0.140E-02    0.982E-02
DAV:   3    -0.293026944602E+04    0.46853E-04   -0.20935E-04  6336   0.362E-03    0.633E-02
DAV:   4    -0.293026948149E+04   -0.35468E-04   -0.18401E-04  6528   0.341E-03    0.693E-02
DAV:   5    -0.293026943853E+04    0.42959E-04   -0.25736E-04  6528   0.380E-03    0.154E-02
DAV:   6    -0.293026943609E+04    0.24409E-05   -0.23179E-06  5760   0.101E-03
  27 F= -.29663763E+04 E0= -.29663763E+04  d E =-.144151E-03  mag=     0.0000
       N       E                     dE             d eps       ncg     rms          rms(c)
DAV:   1    -0.293026944064E+04   -0.21090E-05   -0.51078E-02  5568   0.612E-02    0.552E-02
DAV:   2    -0.293026947037E+04   -0.29730E-04   -0.55286E-04  5952   0.118E-02    0.625E-02
DAV:   3    -0.293026946350E+04    0.68684E-05   -0.39501E-05  5856   0.216E-03
  28 F= -.29663761E+04 E0= -.29663761E+04  d E =0.198317E-03  mag=     0.0000
       N       E                     dE             d eps       ncg     rms          rms(c)
DAV:   1    -0.293026944032E+04    0.30053E-04   -0.52532E-02  5760   0.661E-02    0.122E-01
DAV:   2    -0.293026974376E+04   -0.30344E-03   -0.50281E-03  6720   0.212E-02    0.149E-01
DAV:   3    -0.293026952966E+04    0.21410E-03   -0.47775E-03  6816   0.162E-02    0.872E-02
DAV:   4    -0.293026944324E+04    0.86412E-04   -0.67602E-04  6528   0.591E-03    0.307E-02
DAV:   5    -0.293026944370E+04   -0.45518E-06   -0.42300E-05  6144   0.242E-03
  29 F= -.29663762E+04 E0= -.29663762E+04  d E =-.439624E-04  mag=     0.0000
       N       E                     dE             d eps       ncg     rms          rms(c)
DAV:   1    -0.293026949265E+04   -0.49401E-04   -0.51430E-02  5760   0.524E-02    0.646E-02
DAV:   2    -0.293026953315E+04   -0.40507E-04   -0.53081E-04  6336   0.919E-03    0.437E-02
DAV:   3    -0.293026953770E+04   -0.45467E-05   -0.19258E-04  6144   0.348E-03    0.340E-02
DAV:   4    -0.293026953986E+04   -0.21642E-05   -0.34254E-04  6336   0.427E-03    0.368E-02
DAV:   5    -0.293026952539E+04    0.14477E-04   -0.12132E-04  5952   0.262E-03    0.730E-03
DAV:   6    -0.293026952462E+04    0.77131E-06   -0.51426E-07  5184   0.776E-04
  30 F= -.29663763E+04 E0= -.29663763E+04  d E =-.100788E-03  mag=     0.0000
       N       E                     dE             d eps       ncg     rms          rms(c)
DAV:   1    -0.293026932779E+04    0.19760E-03   -0.50896E-02  5760   0.649E-02    0.101E-01
DAV:   2    -0.293026941247E+04   -0.84683E-04   -0.14253E-03  6336   0.150E-02    0.106E-01
DAV:   3    -0.293026937156E+04    0.40908E-04   -0.12303E-03  6720   0.842E-03    0.603E-02
DAV:   4    -0.293026938462E+04   -0.13055E-04   -0.97217E-04  6528   0.708E-03    0.660E-02
DAV:   5    -0.293026934426E+04    0.40361E-04   -0.28814E-04  6336   0.448E-03    0.199E-02
DAV:   6    -0.293026934109E+04    0.31688E-05   -0.78554E-06  5952   0.163E-03
  31 F= -.29663761E+04 E0= -.29663761E+04  d E =0.176598E-03  mag=     0.0000
       N       E                     dE             d eps       ncg     rms          rms(c)
DAV:   1    -0.293026901299E+04    0.33127E-03   -0.50039E-02  5760   0.638E-02    0.121E-01
DAV:   2    -0.293026908266E+04   -0.69675E-04   -0.11167E-03  6528   0.132E-02    0.712E-02
DAV:   3    -0.293026915188E+04   -0.69222E-04   -0.19264E-03  6528   0.104E-02    0.815E-02
DAV:   4    -0.293026905439E+04    0.97489E-04   -0.13885E-03  6528   0.840E-03    0.375E-02
DAV:   5    -0.293026904027E+04    0.14120E-04   -0.11392E-04  5952   0.267E-03    0.557E-03
DAV:   6    -0.293026904000E+04    0.27812E-06    0.29207E-07  5376   0.746E-04
  32 F= -.29663762E+04 E0= -.29663762E+04  d E =-.106600E-03  mag=     0.0000
       N       E                     dE             d eps       ncg     rms          rms(c)
DAV:   1    -0.293026948123E+04   -0.44096E-03   -0.54497E-02  5760   0.604E-02    0.755E-02
DAV:   2    -0.293026962821E+04   -0.14698E-03   -0.26418E-03  6912   0.176E-02    0.135E-01
DAV:   3    -0.293026947745E+04    0.15077E-03   -0.82416E-04  6336   0.687E-03    0.675E-02
DAV:   4    -0.293026949960E+04   -0.22151E-04   -0.12805E-04  5952   0.290E-03    0.668E-02
DAV:   5    -0.293026946551E+04    0.34083E-04   -0.19608E-04  6144   0.394E-03    0.211E-02
DAV:   6    -0.293026946148E+04    0.40319E-05   -0.88938E-06  6336   0.159E-03
  33 F= -.29663762E+04 E0= -.29663762E+04  d E =0.177382E-04  mag=     0.0000
       N       E                     dE             d eps       ncg     rms          rms(c)
DAV:   1    -0.293026953025E+04   -0.64735E-04   -0.53418E-02  5952   0.607E-02    0.680E-02
DAV:   2    -0.293026963829E+04   -0.10805E-03   -0.18590E-03  6720   0.156E-02    0.110E-01
DAV:   3    -0.293026953560E+04    0.10269E-03   -0.69299E-04  6336   0.634E-03    0.511E-02
DAV:   4    -0.293026955418E+04   -0.18579E-04   -0.14834E-04  5952   0.319E-03    0.527E-02
DAV:   5    -0.293026953311E+04    0.21065E-04   -0.13822E-04  6144   0.350E-03    0.161E-02
DAV:   6    -0.293026953108E+04    0.20292E-05   -0.51843E-06  5952   0.141E-03
  34 F= -.29663762E+04 E0= -.29663762E+04  d E =-.189016E-05  mag=     0.0000
       N       E                     dE             d eps       ncg     rms          rms(c)
DAV:   1    -0.293026903104E+04    0.50207E-03   -0.51707E-02  5760   0.608E-02    0.106E-01
DAV:   2    -0.293026908195E+04   -0.50909E-04   -0.75945E-04  6336   0.113E-02    0.518E-02
DAV:   3    -0.293026911661E+04   -0.34662E-04   -0.77733E-04  6240   0.684E-03    0.582E-02
DAV:   4    -0.293026907699E+04    0.39623E-04   -0.74243E-04  6336   0.624E-03    0.337E-02
DAV:   5    -0.293026906620E+04    0.10795E-04   -0.98162E-05  5760   0.253E-03    0.726E-03
DAV:   6    -0.293026906570E+04    0.49936E-06   -0.75543E-07  5184   0.888E-04
  35 F= -.29663762E+04 E0= -.29663762E+04  d E =-.533381E-04  mag=     0.0000
       N       E                     dE             d eps       ncg     rms          rms(c)
DAV:   1    -0.293026906573E+04    0.46892E-06   -0.53522E-02  5568   0.502E-02    0.498E-02
DAV:   2    -0.293026908346E+04   -0.17737E-04   -0.35835E-04  6336   0.799E-03    0.356E-02
DAV:   3    -0.293026908416E+04   -0.69820E-06   -0.68530E-05  6336   0.233E-03
  36 F= -.29663762E+04 E0= -.29663762E+04  d E =-.130369E-04  mag=     0.0000
       N       E                     dE             d eps       ncg     rms          rms(c)
DAV:   1    -0.293026943225E+04   -0.34879E-03   -0.53044E-02  5760   0.626E-02    0.128E-01
DAV:   2    -0.293026977326E+04   -0.34101E-03   -0.60919E-03  6720   0.231E-02    0.187E-01
DAV:   3    -0.293026939880E+04    0.37446E-03   -0.45204E-03  6528   0.155E-02    0.618E-02
DAV:   4    -0.293026938944E+04    0.93514E-05   -0.81609E-04  6144   0.646E-03    0.585E-02
DAV:   5    -0.293026936281E+04    0.26631E-04   -0.17210E-04  5760   0.349E-03    0.214E-02
DAV:   6    -0.293026935865E+04    0.41593E-05   -0.13379E-05  6144   0.170E-03
  37 F= -.29663761E+04 E0= -.29663761E+04  d E =0.193727E-03  mag=     0.0000
