       N       E                     dE             d eps       ncg     rms          rms(c)
DAV:   1     0.611511441606E+02    0.61151E+02   -0.17134E+03   336   0.707E+01
DAV:   2    -0.111324851256E+02   -0.72284E+02   -0.72284E+02   384   0.259E+01
DAV:   3    -0.148096481535E+02   -0.36772E+01   -0.36772E+01   192   0.710E+00
DAV:   4    -0.148403088361E+02   -0.30661E-01   -0.30661E-01   192   0.824E-01
DAV:   5    -0.148407537361E+02   -0.44490E-03   -0.44490E-03   336   0.895E-02    0.104E+01
DAV:   6    -0.936656538573E+01    0.54742E+01   -0.91688E+00   240   0.383E+00    0.420E+00
DAV:   7    -0.125569847717E+02   -0.31904E+01   -0.22123E+00   336   0.164E+00    0.218E+00
DAV:   8    -0.139526314250E+02   -0.13956E+01   -0.67613E-01   288   0.866E-01    0.997E-01
DAV:   9    -0.142390052802E+02   -0.28637E+00   -0.34615E-02   240   0.271E-01    0.485E-01
DAV:  10    -0.143945892529E+02   -0.15558E+00   -0.11885E-02   192   0.161E-01    0.289E-01
DAV:  11    -0.144730330265E+02   -0.78444E-01   -0.46066E-03   384   0.102E-01    0.223E-01
DAV:  12    -0.145831312314E+02   -0.11010E+00   -0.97880E-03   192   0.127E-01    0.156E-01
DAV:  13    -0.146535256580E+02   -0.70394E-01   -0.98032E-03   240   0.109E-01    0.998E-02
DAV:  14    -0.147113983685E+02   -0.57873E-01   -0.24416E-03   336   0.575E-02    0.786E-02
DAV:  15    -0.147418831294E+02   -0.30485E-01   -0.89854E-04   384   0.318E-02    0.589E-02
DAV:  16    -0.147529029505E+02   -0.11020E-01   -0.94377E-05   336   0.146E-02    0.455E-02
DAV:  17    -0.147616051289E+02   -0.87022E-02   -0.79361E-05   288   0.111E-02    0.355E-02
DAV:  18    -0.147683641510E+02   -0.67590E-02   -0.41611E-05   240   0.988E-03    0.247E-02
DAV:  19    -0.147705161769E+02   -0.21520E-02   -0.11553E-05   240   0.605E-03    0.178E-02
DAV:  20    -0.147722911564E+02   -0.17750E-02   -0.40002E-05   240   0.756E-03    0.127E-02
DAV:  21    -0.147726333185E+02   -0.34216E-03   -0.36753E-05   384   0.748E-03    0.816E-03
DAV:  22    -0.147726793619E+02   -0.46043E-04   -0.76225E-06   240   0.436E-03    0.556E-03
DAV:  23    -0.147733270122E+02   -0.64765E-03   -0.45792E-06   192   0.327E-03    0.323E-03
DAV:  24    -0.147738221525E+02   -0.49514E-03   -0.21975E-06   240   0.223E-03    0.201E-03
DAV:  25    -0.147741205723E+02   -0.29842E-03   -0.59490E-07   336   0.121E-03    0.131E-03
DAV:  26    -0.147745342503E+02   -0.41368E-03   -0.68033E-07   192   0.899E-04    0.804E-04
DAV:  27    -0.147747093180E+02   -0.17507E-03   -0.16140E-07   384   0.570E-04    0.566E-04
DAV:  28    -0.147748784408E+02   -0.16912E-03   -0.91826E-08   192   0.514E-04    0.333E-04
DAV:  29    -0.147749511620E+02   -0.72721E-04   -0.42049E-08   240   0.358E-04    0.220E-04
DAV:  30    -0.147749763138E+02   -0.25152E-04   -0.58465E-10   288   0.186E-04    0.176E-04
DAV:  31    -0.147749963512E+02   -0.20037E-04   -0.35305E-10   240   0.147E-04    0.155E-04
DAV:  32    -0.147750007508E+02   -0.43996E-05    0.78812E-09   288   0.647E-05
   1 F= -.14786183E+02 E0= -.14786183E+02  d E =-.147862E+02  mag=     0.0000
       N       E                     dE             d eps       ncg     rms          rms(c)
DAV:   1    -0.147750037403E+02   -0.73890E-05    0.78789E-09   288   0.423E-05    0.149E-04
DAV:   2    -0.147750040742E+02   -0.33392E-06    0.92984E-09   384   0.166E-05
   2 F= -.14786186E+02 E0= -.14786186E+02  d E =-.332336E-05  mag=     0.0000
       N       E                     dE             d eps       ncg     rms          rms(c)
DAV:   1    -0.147750043048E+02   -0.56451E-06    0.95380E-09   336   0.927E-06    0.149E-04
DAV:   2    -0.147750044759E+02   -0.17114E-06    0.97197E-09   384   0.600E-06
   3 F= -.14786186E+02 E0= -.14786186E+02  d E =-.401729E-06  mag=     0.0000
       N       E                     dE             d eps       ncg     rms          rms(c)
DAV:   1    -0.147750046179E+02   -0.31310E-06    0.98710E-09   336   0.454E-06    0.149E-04
DAV:   2    -0.147750047082E+02   -0.90348E-07    0.99913E-09   336   0.330E-06
   4 F= -.14786187E+02 E0= -.14786187E+02  d E =-.232312E-06  mag=     0.0000
       N       E                     dE             d eps       ncg     rms          rms(c)
DAV:   1    -0.147750047887E+02   -0.17083E-06    0.10219E-08   336   0.272E-06    0.149E-04
DAV:   2    -0.147750048368E+02   -0.48027E-07    0.10630E-08   336   0.197E-06
   5 F= -.14786187E+02 E0= -.14786187E+02  d E =-.128510E-06  mag=     0.0000
       N       E                     dE             d eps       ncg     rms          rms(c)
DAV:   1    -0.147750048809E+02   -0.92216E-07    0.11326E-08   288   0.170E-06    0.149E-04
DAV:   2    -0.147750049065E+02   -0.25556E-07    0.12077E-08   336   0.127E-06
   6 F= -.14786187E+02 E0= -.14786187E+02  d E =-.697446E-07  mag=     0.0000
       N       E                     dE             d eps       ncg     rms          rms(c)
DAV:   1    -0.147750049304E+02   -0.49428E-07    0.13142E-08   288   0.117E-06    0.149E-04
DAV:   2    -0.147750049440E+02   -0.13617E-07    0.14079E-08   336   0.919E-07
   7 F= -.14786187E+02 E0= -.14786187E+02  d E =-.374893E-07  mag=     0.0000
