       N       E                     dE             d eps       ncg     rms          rms(c)
DAV:   1     0.196746590876E+05    0.19675E+05   -0.80964E+05  5952   0.108E+03
DAV:   2     0.303919273647E+03   -0.19371E+05   -0.18654E+05  8064   0.282E+02
DAV:   3    -0.309448633202E+04   -0.33984E+04   -0.33803E+04  6912   0.126E+02
DAV:   4    -0.318956821354E+04   -0.95082E+02   -0.94712E+02  7296   0.243E+01
DAV:   5    -0.319158184809E+04   -0.20136E+01   -0.20107E+01  7488   0.327E+00    0.199E+02
DAV:   6    -0.157281561086E+04    0.16188E+04   -0.32679E+03  6720   0.448E+01    0.903E+01
DAV:   7    -0.170564555948E+04   -0.13283E+03   -0.40206E+02  7296   0.139E+01    0.627E+01
DAV:   8    -0.171927034575E+04   -0.13625E+02   -0.84113E+01  7104   0.637E+00    0.455E+01
DAV:   9    -0.184151734198E+04   -0.12225E+03   -0.36619E+01  7104   0.539E+00    0.369E+01
DAV:  10    -0.204263574416E+04   -0.20112E+03   -0.67616E+01  7200   0.579E+00    0.327E+01
DAV:  11    -0.221539976173E+04   -0.17276E+03   -0.60040E+01  7296   0.552E+00    0.274E+01
DAV:  12    -0.248707419344E+04   -0.27167E+03   -0.13535E+02  7104   0.831E+00    0.222E+01
DAV:  13    -0.277616860358E+04   -0.28909E+03   -0.22796E+02  7104   0.990E+00    0.178E+01
DAV:  14    -0.292476617650E+04   -0.14860E+03   -0.13600E+02  6912   0.678E+00    0.113E+01
DAV:  15    -0.296212407526E+04   -0.37358E+02   -0.18296E+01  7104   0.281E+00    0.940E+00
DAV:  16    -0.298066300417E+04   -0.18539E+02   -0.56407E+00  6720   0.167E+00    0.798E+00
DAV:  17    -0.299192746869E+04   -0.11264E+02   -0.29870E+00  7008   0.120E+00    0.665E+00
DAV:  18    -0.299935060939E+04   -0.74231E+01   -0.21973E+00  6816   0.101E+00    0.548E+00
DAV:  19    -0.300455293045E+04   -0.52023E+01   -0.16181E+00  6816   0.861E-01    0.437E+00
DAV:  20    -0.300855826143E+04   -0.40053E+01   -0.13397E+00  6624   0.747E-01    0.319E+00
DAV:  21    -0.301179580692E+04   -0.32375E+01   -0.79465E-01  6720   0.565E-01    0.203E+00
DAV:  22    -0.301245312960E+04   -0.65732E+00   -0.25559E-01  6720   0.356E-01    0.124E+00
DAV:  23    -0.301382326802E+04   -0.13701E+01   -0.85037E-02  6720   0.269E-01    0.826E-01
DAV:  24    -0.301554982909E+04   -0.17266E+01   -0.55274E-02  6816   0.211E-01    0.578E-01
DAV:  25    -0.301678617121E+04   -0.12363E+01   -0.30161E-02  7008   0.147E-01    0.401E-01
DAV:  26    -0.301771929025E+04   -0.93312E+00   -0.18950E-02  7008   0.114E-01    0.242E-01
DAV:  27    -0.301821724298E+04   -0.49795E+00   -0.78030E-03  7008   0.776E-02    0.142E-01
DAV:  28    -0.301846532105E+04   -0.24808E+00   -0.39233E-03  7008   0.581E-02    0.826E-02
DAV:  29    -0.301855567455E+04   -0.90354E-01   -0.15518E-03  7104   0.359E-02    0.502E-02
DAV:  30    -0.301857176413E+04   -0.16090E-01   -0.32660E-04  7200   0.162E-02    0.409E-02
DAV:  31    -0.301858000880E+04   -0.82447E-02   -0.11142E-04  6912   0.853E-03    0.248E-02
DAV:  32    -0.301858830632E+04   -0.82975E-02   -0.12117E-04  6720   0.843E-03    0.166E-02
DAV:  33    -0.301859081484E+04   -0.25085E-02   -0.22063E-05  6432   0.475E-03    0.121E-02
DAV:  34    -0.301859410668E+04   -0.32918E-02   -0.20757E-05  5856   0.408E-03    0.848E-03
DAV:  35    -0.301859675901E+04   -0.26523E-02   -0.20948E-05  6144   0.386E-03    0.596E-03
DAV:  36    -0.301859776194E+04   -0.10029E-02   -0.32014E-06  5280   0.219E-03    0.436E-03
DAV:  37    -0.301859850868E+04   -0.74674E-03   -0.36156E-06  5472   0.178E-03    0.309E-03
DAV:  38    -0.301859873720E+04   -0.22852E-03    0.14483E-06  5184   0.105E-03    0.264E-03
DAV:  39    -0.301859884982E+04   -0.11261E-03    0.18574E-06  5088   0.802E-04    0.248E-03
DAV:  40    -0.301859888732E+04   -0.37507E-04    0.24653E-06  5184   0.451E-04    0.236E-03
DAV:  41    -0.301859890874E+04   -0.21421E-04    0.25385E-06  5184   0.389E-04    0.230E-03
DAV:  42    -0.301859892141E+04   -0.12668E-04    0.26147E-06  5184   0.288E-04    0.228E-03
DAV:  43    -0.301859892534E+04   -0.39319E-05    0.26962E-06  5184   0.185E-04
   1 F= -.30580029E+04 E0= -.30580029E+04  d E =-.305800E+04  mag=    -0.0000
       N       E                     dE             d eps       ncg     rms          rms(c)
DAV:   1    -0.301859888787E+04    0.33538E-04   -0.73584E-02  5760   0.977E-02    0.766E-02
DAV:   2    -0.301859888034E+04    0.75369E-05   -0.40824E-04  6528   0.944E-03    0.493E-02
DAV:   3    -0.301859886823E+04    0.12111E-04   -0.15948E-04  6528   0.553E-03    0.313E-02
DAV:   4    -0.301859885887E+04    0.93592E-05   -0.11623E-04  6432   0.443E-03    0.219E-02
DAV:   5    -0.301859885348E+04    0.53844E-05   -0.35306E-05  6336   0.258E-03
   2 F= -.30580026E+04 E0= -.30580026E+04  d E =0.237870E-03  mag=    -0.0000
       N       E                     dE             d eps       ncg     rms          rms(c)
DAV:   1    -0.301859850123E+04    0.35763E-03   -0.14972E-01  5760   0.139E-01    0.110E-01
DAV:   2    -0.301859847367E+04    0.27563E-04   -0.62840E-04  6336   0.117E-02    0.626E-02
DAV:   3    -0.301859845220E+04    0.21473E-04   -0.17382E-04  6144   0.548E-03    0.408E-02
DAV:   4    -0.301859844527E+04    0.69257E-05   -0.23646E-04  6528   0.593E-03    0.304E-02
DAV:   5    -0.301859843247E+04    0.12802E-04   -0.10221E-04  6240   0.396E-03    0.128E-02
DAV:   6    -0.301859843148E+04    0.98761E-06   -0.50793E-06  5568   0.135E-03
   3 F= -.30580026E+04 E0= -.30580026E+04  d E =0.472512E-04  mag=    -0.0000
       N       E                     dE             d eps       ncg     rms          rms(c)
DAV:   1    -0.301859882737E+04   -0.39490E-03   -0.14178E-01  5760   0.141E-01    0.102E-01
DAV:   2    -0.301859881364E+04    0.13729E-04   -0.52462E-04  6144   0.110E-02    0.506E-02
DAV:   3    -0.301859879436E+04    0.19279E-04   -0.80460E-05  6336   0.399E-03    0.311E-02
DAV:   4    -0.301859879217E+04    0.21906E-05   -0.13424E-04  6624   0.474E-03    0.270E-02
DAV:   5    -0.301859878242E+04    0.97459E-05   -0.63853E-05  5952   0.320E-03
   4 F= -.30580026E+04 E0= -.30580026E+04  d E =0.249643E-04  mag=    -0.0000
       N       E                     dE             d eps       ncg     rms          rms(c)
DAV:   1    -0.301859865067E+04    0.14150E-03   -0.14323E-01  5760   0.142E-01    0.116E-01
DAV:   2    -0.301859864920E+04    0.14713E-05   -0.77090E-04  6144   0.128E-02    0.623E-02
DAV:   3    -0.301859863551E+04    0.13691E-04   -0.34331E-04  6144   0.780E-03    0.503E-02
DAV:   4    -0.301859861317E+04    0.22339E-04   -0.23173E-04  6144   0.591E-03    0.271E-02
DAV:   5    -0.301859860568E+04    0.74866E-05   -0.67693E-05  6144   0.350E-03
   5 F= -.30580026E+04 E0= -.30580026E+04  d E =-.783445E-04  mag=    -0.0000
       N       E                     dE             d eps       ncg     rms          rms(c)
DAV:   1    -0.301859845707E+04    0.15610E-03   -0.14081E-01  5952   0.139E-01    0.109E-01
DAV:   2    -0.301859845475E+04    0.23238E-05   -0.81398E-04  6528   0.130E-02    0.735E-02
DAV:   3    -0.301859843690E+04    0.17850E-04   -0.41996E-04  6144   0.823E-03    0.454E-02
DAV:   4    -0.301859841981E+04    0.17084E-04   -0.32357E-04  6144   0.678E-03    0.350E-02
DAV:   5    -0.301859840657E+04    0.13245E-04   -0.91141E-05  6144   0.384E-03    0.125E-02
DAV:   6    -0.301859840525E+04    0.13151E-05   -0.82611E-06  5760   0.162E-03
   6 F= -.30580026E+04 E0= -.30580026E+04  d E =0.601373E-04  mag=    -0.0000
       N       E                     dE             d eps       ncg     rms          rms(c)
DAV:   1    -0.301859883315E+04   -0.42658E-03   -0.14357E-01  5952   0.140E-01    0.101E-01
DAV:   2    -0.301859881373E+04    0.19418E-04   -0.51284E-04  6144   0.109E-02    0.475E-02
DAV:   3    -0.301859879040E+04    0.23332E-04   -0.57295E-05  6336   0.342E-03    0.281E-02
DAV:   4    -0.301859878894E+04    0.14597E-05   -0.10333E-04  6144   0.425E-03    0.246E-02
DAV:   5    -0.301859878023E+04    0.87047E-05   -0.53289E-05  6144   0.303E-03
   7 F= -.30580026E+04 E0= -.30580026E+04  d E =0.325412E-04  mag=    -0.0000
       N       E                     dE             d eps       ncg     rms          rms(c)
DAV:   1    -0.301859880057E+04   -0.11630E-04   -0.14198E-01  5952   0.138E-01    0.125E-01
DAV:   2    -0.301859879504E+04    0.55257E-05   -0.75770E-04  6144   0.132E-02    0.695E-02
DAV:   3    -0.301859877880E+04    0.16243E-04   -0.21435E-04  6336   0.652E-03    0.414E-02
DAV:   4    -0.301859877493E+04    0.38683E-05   -0.25943E-04  6336   0.655E-03    0.402E-02
DAV:   5    -0.301859875704E+04    0.17895E-04   -0.11450E-04  5952   0.442E-03    0.127E-02
DAV:   6    -0.301859875607E+04    0.96607E-06   -0.13778E-05  5952   0.191E-03
   8 F= -.30580027E+04 E0= -.30580027E+04  d E =-.174732E-03  mag=    -0.0000
       N       E                     dE             d eps       ncg     rms          rms(c)
DAV:   1    -0.301859897435E+04   -0.21732E-03   -0.14086E-01  5760   0.127E-01    0.111E-01
DAV:   2    -0.301859895430E+04    0.20055E-04   -0.63982E-04  6144   0.121E-02    0.600E-02
DAV:   3    -0.301859893850E+04    0.15801E-04   -0.13914E-04  6336   0.539E-03    0.410E-02
DAV:   4    -0.301859893373E+04    0.47605E-05   -0.18364E-04  6144   0.552E-03    0.304E-02
DAV:   5    -0.301859892134E+04    0.12394E-04   -0.94104E-05  6336   0.394E-03    0.125E-02
DAV:   6    -0.301859892012E+04    0.12247E-05   -0.10447E-05  5376   0.162E-03
   9 F= -.30580026E+04 E0= -.30580026E+04  d E =0.102310E-03  mag=    -0.0000
       N       E                     dE             d eps       ncg     rms          rms(c)
DAV:   1    -0.301859893327E+04   -0.11928E-04   -0.14139E-01  5760   0.126E-01    0.101E-01
DAV:   2    -0.301859891952E+04    0.13745E-04   -0.60478E-04  5952   0.118E-02    0.478E-02
DAV:   3    -0.301859890248E+04    0.17045E-04   -0.63261E-05  6336   0.434E-03    0.327E-02
DAV:   4    -0.301859889633E+04    0.61457E-05   -0.43446E-05  6336   0.369E-03
  10 F= -.30580026E+04 E0= -.30580026E+04  d E =0.342609E-04  mag=    -0.0000
       N       E                     dE             d eps       ncg     rms          rms(c)
DAV:   1    -0.301859889224E+04    0.10234E-04   -0.14415E-01  5760   0.146E-01    0.122E-01
DAV:   2    -0.301859886767E+04    0.24572E-04   -0.76623E-04  6144   0.137E-02    0.694E-02
DAV:   3    -0.301859884471E+04    0.22961E-04   -0.11470E-04  6336   0.514E-03    0.423E-02
DAV:   4    -0.301859884425E+04    0.45827E-06   -0.18167E-04  6528   0.599E-03    0.348E-02
DAV:   5    -0.301859882897E+04    0.15287E-04   -0.11260E-04  6336   0.436E-03    0.132E-02
DAV:   6    -0.301859882802E+04    0.94506E-06   -0.10581E-05  5568   0.158E-03
  11 F= -.30580026E+04 E0= -.30580026E+04  d E =0.300228E-04  mag=    -0.0000
       N       E                     dE             d eps       ncg     rms          rms(c)
DAV:   1    -0.301859896633E+04   -0.13737E-03   -0.14413E-01  5760   0.146E-01    0.125E-01
DAV:   2    -0.301859893760E+04    0.28734E-04   -0.74243E-04  5952   0.130E-02    0.765E-02
DAV:   3    -0.301859891626E+04    0.21339E-04   -0.22740E-04  6528   0.703E-03    0.501E-02
DAV:   4    -0.301859890181E+04    0.14447E-04   -0.20934E-04  6528   0.661E-03    0.355E-02
DAV:   5    -0.301859888794E+04    0.13869E-04   -0.64824E-05  6144   0.381E-03    0.109E-02
DAV:   6    -0.301859888784E+04    0.10547E-06   -0.63893E-07  5568   0.991E-04
  12 F= -.30580025E+04 E0= -.30580025E+04  d E =0.391645E-04  mag=    -0.0000
       N       E                     dE             d eps       ncg     rms          rms(c)
DAV:   1    -0.301859896486E+04   -0.76920E-04   -0.14545E-01  5760   0.148E-01    0.127E-01
DAV:   2    -0.301859891968E+04    0.45184E-04   -0.85321E-04  6144   0.144E-02    0.970E-02
DAV:   3    -0.301859888406E+04    0.35619E-04   -0.30316E-04  6336   0.840E-03    0.501E-02
DAV:   4    -0.301859886697E+04    0.17095E-04   -0.24676E-04  6144   0.772E-03    0.447E-02
DAV:   5    -0.301859884791E+04    0.19056E-04   -0.86296E-05  6336   0.464E-03    0.113E-02
DAV:   6    -0.301859884765E+04    0.26223E-06   -0.36735E-06  5568   0.137E-03
  13 F= -.30580026E+04 E0= -.30580026E+04  d E =-.503737E-04  mag=    -0.0000
       N       E                     dE             d eps       ncg     rms          rms(c)
DAV:   1    -0.301859844909E+04    0.39882E-03   -0.14156E-01  5760   0.151E-01    0.123E-01
DAV:   2    -0.301859843166E+04    0.17424E-04   -0.74560E-04  6144   0.134E-02    0.747E-02
DAV:   3    -0.301859840830E+04    0.23362E-04   -0.10506E-04  6336   0.533E-03    0.421E-02
DAV:   4    -0.301859840700E+04    0.12984E-05   -0.15593E-04  6144   0.641E-03    0.406E-02
DAV:   5    -0.301859839033E+04    0.16668E-04   -0.74226E-05  6144   0.434E-03    0.103E-02
DAV:   6    -0.301859839033E+04    0.85565E-08   -0.32437E-06  5376   0.133E-03
  14 F= -.30580026E+04 E0= -.30580026E+04  d E =-.185727E-04  mag=    -0.0000
       N       E                     dE             d eps       ncg     rms          rms(c)
DAV:   1    -0.301859895416E+04   -0.56383E-03   -0.14232E-01  5760   0.149E-01    0.118E-01
DAV:   2    -0.301859891669E+04    0.37471E-04   -0.69133E-04  6336   0.131E-02    0.776E-02
DAV:   3    -0.301859889591E+04    0.20779E-04   -0.19068E-04  6336   0.642E-03    0.427E-02
DAV:   4    -0.301859888879E+04    0.71171E-05   -0.24303E-04  6144   0.752E-03    0.413E-02
DAV:   5    -0.301859887136E+04    0.17437E-04   -0.80136E-05  6336   0.438E-03    0.104E-02
DAV:   6    -0.301859887143E+04   -0.74797E-07   -0.14142E-06  5184   0.116E-03
  15 F= -.30580025E+04 E0= -.30580025E+04  d E =0.631175E-04  mag=    -0.0000
       N       E                     dE             d eps       ncg     rms          rms(c)
DAV:   1    -0.301859900909E+04   -0.13773E-03   -0.14582E-01  5760   0.148E-01    0.123E-01
DAV:   2    -0.301859896148E+04    0.47614E-04   -0.88777E-04  5952   0.143E-02    0.909E-02
DAV:   3    -0.301859892863E+04    0.32845E-04   -0.31090E-04  6336   0.822E-03    0.498E-02
DAV:   4    -0.301859891120E+04    0.17426E-04   -0.25643E-04  6144   0.756E-03    0.421E-02
DAV:   5    -0.301859889292E+04    0.18284E-04   -0.83529E-05  6336   0.451E-03    0.109E-02
DAV:   6    -0.301859889297E+04   -0.53144E-07   -0.29349E-06  5376   0.130E-03
  16 F= -.30580026E+04 E0= -.30580026E+04  d E =-.508316E-04  mag=    -0.0000
       N       E                     dE             d eps       ncg     rms          rms(c)
DAV:   1    -0.301859829780E+04    0.59512E-03   -0.14187E-01  5760   0.152E-01    0.125E-01
DAV:   2    -0.301859826742E+04    0.30381E-04   -0.86511E-04  6144   0.139E-02    0.788E-02
DAV:   3    -0.301859824219E+04    0.25224E-04   -0.15611E-04  6336   0.607E-03    0.461E-02
DAV:   4    -0.301859823806E+04    0.41379E-05   -0.21148E-04  6336   0.706E-03    0.409E-02
DAV:   5    -0.301859821878E+04    0.19275E-04   -0.87421E-05  6336   0.464E-03    0.111E-02
DAV:   6    -0.301859821906E+04   -0.27957E-06   -0.81620E-07  5184   0.120E-03
  17 F= -.30580025E+04 E0= -.30580025E+04  d E =0.822723E-04  mag=    -0.0000
       N       E                     dE             d eps       ncg     rms          rms(c)
DAV:   1    -0.301859840973E+04   -0.19095E-03   -0.14139E-01  5568   0.145E-01    0.125E-01
DAV:   2    -0.301859837368E+04    0.36049E-04   -0.69663E-04  5952   0.127E-02    0.742E-02
DAV:   3    -0.301859834987E+04    0.23815E-04   -0.10742E-04  6240   0.492E-03    0.430E-02
DAV:   4    -0.301859835096E+04   -0.10926E-05   -0.20146E-04  5952   0.649E-03    0.403E-02
DAV:   5    -0.301859833143E+04    0.19527E-04   -0.10346E-04  6336   0.454E-03    0.113E-02
DAV:   6    -0.301859833151E+04   -0.82713E-07   -0.18978E-06  4800   0.109E-03
  18 F= -.30580025E+04 E0= -.30580025E+04  d E =-.295852E-04  mag=    -0.0000
       N       E                     dE             d eps       ncg     rms          rms(c)
DAV:   1    -0.301859891608E+04   -0.58465E-03   -0.14159E-01  5760   0.147E-01    0.114E-01
DAV:   2    -0.301859889663E+04    0.19449E-04   -0.56364E-04  6144   0.116E-02    0.670E-02
DAV:   3    -0.301859887905E+04    0.17581E-04   -0.14113E-04  6336   0.553E-03    0.431E-02
DAV:   4    -0.301859887222E+04    0.68303E-05   -0.17341E-04  6528   0.604E-03    0.313E-02
DAV:   5    -0.301859885998E+04    0.12247E-04   -0.55257E-05  5952   0.345E-03    0.979E-03
DAV:   6    -0.301859885988E+04    0.94413E-07    0.74803E-07  5184   0.806E-04
  19 F= -.30580025E+04 E0= -.30580025E+04  d E =-.211060E-04  mag=    -0.0000
       N       E                     dE             d eps       ncg     rms          rms(c)
DAV:   1    -0.301859892251E+04   -0.62534E-04   -0.14138E-01  5568   0.151E-01    0.122E-01
DAV:   2    -0.301859888816E+04    0.34354E-04   -0.81009E-04  6528   0.140E-02    0.737E-02
DAV:   3    -0.301859886340E+04    0.24752E-04   -0.11381E-04  6336   0.534E-03    0.424E-02
DAV:   4    -0.301859886040E+04    0.30089E-05   -0.17002E-04  6336   0.669E-03    0.363E-02
DAV:   5    -0.301859884445E+04    0.15943E-04   -0.81596E-05  6336   0.446E-03    0.119E-02
DAV:   6    -0.301859884438E+04    0.69500E-07   -0.30096E-06  5184   0.129E-03
  20 F= -.30580025E+04 E0= -.30580025E+04  d E =0.929630E-04  mag=    -0.0000
       N       E                     dE             d eps       ncg     rms          rms(c)
DAV:   1    -0.301859855361E+04    0.29084E-03   -0.14489E-01  5568   0.146E-01    0.125E-01
DAV:   2    -0.301859850505E+04    0.48562E-04   -0.87389E-04  6144   0.144E-02    0.829E-02
DAV:   3    -0.301859847609E+04    0.28960E-04   -0.23386E-04  6336   0.739E-03    0.511E-02
DAV:   4    -0.301859846143E+04    0.14656E-04   -0.22375E-04  6336   0.733E-03    0.388E-02
DAV:   5    -0.301859844414E+04    0.17291E-04   -0.71736E-05  6336   0.443E-03    0.110E-02
DAV:   6    -0.301859844441E+04   -0.26735E-06    0.10650E-07  5184   0.109E-03
  21 F= -.30580026E+04 E0= -.30580026E+04  d E =-.101608E-03  mag=    -0.0000
       N       E                     dE             d eps       ncg     rms          rms(c)
DAV:   1    -0.301859888623E+04   -0.44208E-03   -0.14156E-01  5568   0.144E-01    0.118E-01
DAV:   2    -0.301859886208E+04    0.24149E-04   -0.59191E-04  6144   0.118E-02    0.683E-02
DAV:   3    -0.301859884187E+04    0.20206E-04   -0.11539E-04  6336   0.525E-03    0.425E-02
DAV:   4    -0.301859883693E+04    0.49419E-05   -0.14951E-04  6336   0.593E-03    0.328E-02
DAV:   5    -0.301859882354E+04    0.13386E-04   -0.56368E-05  6144   0.367E-03    0.102E-02
DAV:   6    -0.301859882351E+04    0.30035E-07    0.55110E-07  5376   0.886E-04
  22 F= -.30580026E+04 E0= -.30580026E+04  d E =-.114281E-04  mag=    -0.0000
       N       E                     dE             d eps       ncg     rms          rms(c)
DAV:   1    -0.301859892821E+04   -0.10467E-03   -0.95664E-02  5568   0.118E-01    0.931E-02
DAV:   2    -0.301859895236E+04   -0.24147E-04   -0.73638E-04  6144   0.140E-02    0.666E-02
DAV:   3    -0.301859894209E+04    0.10267E-04   -0.11257E-04  6336   0.458E-03    0.368E-02
DAV:   4    -0.301859895251E+04   -0.10420E-04   -0.24937E-04  6336   0.608E-03    0.424E-02
DAV:   5    -0.301859893072E+04    0.21787E-04   -0.13244E-04  6336   0.440E-03    0.904E-03
DAV:   6    -0.301859893022E+04    0.50437E-06   -0.26199E-06  5568   0.119E-03
  23 F= -.30580028E+04 E0= -.30580028E+04  d E =-.245428E-03  mag=    -0.0000
       N       E                     dE             d eps       ncg     rms          rms(c)
DAV:   1    -0.301859880587E+04    0.12486E-03   -0.50727E-02  5568   0.756E-02    0.625E-02
DAV:   2    -0.301859885706E+04   -0.51197E-04   -0.76137E-04  6144   0.153E-02    0.817E-02
DAV:   3    -0.301859884219E+04    0.14875E-04   -0.33319E-05  6144   0.248E-03    0.634E-02
DAV:   4    -0.301859884966E+04   -0.74751E-05   -0.24905E-05  5760   0.217E-03
  24 F= -.30580028E+04 E0= -.30580028E+04  d E =0.321646E-04  mag=    -0.0000
       N       E                     dE             d eps       ncg     rms          rms(c)
DAV:   1    -0.301859911252E+04   -0.27034E-03   -0.49775E-02  5376   0.739E-02    0.725E-02
DAV:   2    -0.301859915869E+04   -0.46169E-04   -0.74459E-04  6144   0.146E-02    0.672E-02
DAV:   3    -0.301859915036E+04    0.83283E-05   -0.48621E-05  6336   0.332E-03
  25 F= -.30580027E+04 E0= -.30580027E+04  d E =0.109414E-03  mag=    -0.0000
       N       E                     dE             d eps       ncg     rms          rms(c)
DAV:   1    -0.301859883719E+04    0.32150E-03   -0.51539E-02  5568   0.809E-02    0.992E-02
DAV:   2    -0.301859894640E+04   -0.10920E-03   -0.19894E-03  6144   0.236E-02    0.133E-01
DAV:   3    -0.301859887020E+04    0.76200E-04   -0.26688E-04  5952   0.700E-03    0.762E-02
DAV:   4    -0.301859891239E+04   -0.42197E-04   -0.17317E-04  6336   0.535E-03    0.719E-02
DAV:   5    -0.301859887146E+04    0.40936E-04   -0.24236E-04  6336   0.597E-03    0.258E-02
DAV:   6    -0.301859886559E+04    0.58697E-05   -0.28566E-05  5952   0.254E-03
  26 F= -.30580028E+04 E0= -.30580028E+04  d E =-.956938E-04  mag=    -0.0000
       N       E                     dE             d eps       ncg     rms          rms(c)
DAV:   1    -0.301859826764E+04    0.60382E-03   -0.52379E-02  5568   0.771E-02    0.868E-02
DAV:   2    -0.301859831641E+04   -0.48779E-04   -0.90721E-04  6144   0.176E-02    0.978E-02
DAV:   3    -0.301859829237E+04    0.24048E-04   -0.10704E-04  6144   0.438E-03    0.613E-02
DAV:   4    -0.301859832963E+04   -0.37260E-04   -0.18976E-04  6144   0.535E-03    0.601E-02
DAV:   5    -0.301859829438E+04    0.35250E-04   -0.20926E-04  6336   0.536E-03    0.165E-02
DAV:   6    -0.301859829159E+04    0.27895E-05   -0.13128E-05  5760   0.175E-03
  27 F= -.30580027E+04 E0= -.30580027E+04  d E =0.855986E-04  mag=    -0.0000
       N       E                     dE             d eps       ncg     rms          rms(c)
DAV:   1    -0.301859904058E+04   -0.74621E-03   -0.52321E-02  5568   0.771E-02    0.902E-02
DAV:   2    -0.301859909076E+04   -0.50173E-04   -0.95360E-04  5952   0.178E-02    0.976E-02
DAV:   3    -0.301859906602E+04    0.24737E-04   -0.11692E-04  6144   0.472E-03    0.586E-02
DAV:   4    -0.301859910433E+04   -0.38307E-04   -0.24712E-04  6336   0.590E-03    0.614E-02
DAV:   5    -0.301859906347E+04    0.40855E-04   -0.23189E-04  6528   0.548E-03    0.169E-02
DAV:   6    -0.301859906003E+04    0.34425E-05   -0.11123E-05  5568   0.173E-03
  28 F= -.30580028E+04 E0= -.30580028E+04  d E =-.155475E-03  mag=    -0.0000
       N       E                     dE             d eps       ncg     rms          rms(c)
DAV:   1    -0.301859879125E+04    0.27222E-03   -0.49749E-02  5760   0.768E-02    0.521E-02
DAV:   2    -0.301859884082E+04   -0.49566E-04   -0.60341E-04  6528   0.141E-02    0.567E-02
DAV:   3    -0.301859883607E+04    0.47478E-05   -0.24622E-05  6336   0.234E-03
  29 F= -.30580028E+04 E0= -.30580028E+04  d E =0.490997E-04  mag=    -0.0000
       N       E                     dE             d eps       ncg     rms          rms(c)
DAV:   1    -0.301859878624E+04    0.54576E-04   -0.50302E-02  5760   0.745E-02    0.605E-02
DAV:   2    -0.301859887753E+04   -0.91288E-04   -0.14945E-03  6336   0.192E-02    0.982E-02
DAV:   3    -0.301859881055E+04    0.66982E-04   -0.20782E-04  6048   0.575E-03    0.528E-02
DAV:   4    -0.301859881977E+04   -0.92219E-05   -0.29264E-05  6144   0.223E-03
  30 F= -.30580028E+04 E0= -.30580028E+04  d E =-.668012E-05  mag=    -0.0000
       N       E                     dE             d eps       ncg     rms          rms(c)
DAV:   1    -0.301859857067E+04    0.23988E-03   -0.51539E-02  5760   0.753E-02    0.107E-01
DAV:   2    -0.301859863423E+04   -0.63564E-04   -0.91544E-04  6528   0.171E-02    0.939E-02
DAV:   3    -0.301859862168E+04    0.12554E-04   -0.12157E-04  6144   0.511E-03    0.561E-02
DAV:   4    -0.301859864844E+04   -0.26763E-04   -0.20810E-04  6144   0.621E-03    0.507E-02
DAV:   5    -0.301859862232E+04    0.26122E-04   -0.15131E-04  6144   0.518E-03    0.136E-02
DAV:   6    -0.301859862059E+04    0.17235E-05   -0.71224E-06  5568   0.147E-03
  31 F= -.30580027E+04 E0= -.30580027E+04  d E =0.128854E-03  mag=    -0.0000
       N       E                     dE             d eps       ncg     rms          rms(c)
DAV:   1    -0.301859894527E+04   -0.32295E-03   -0.50996E-02  5760   0.802E-02    0.102E-01
DAV:   2    -0.301859900501E+04   -0.59738E-04   -0.10110E-03  6336   0.198E-02    0.105E-01
DAV:   3    -0.301859898592E+04    0.19085E-04   -0.75182E-05  6144   0.460E-03    0.645E-02
DAV:   4    -0.301859900736E+04   -0.21436E-04   -0.10873E-04  6528   0.499E-03    0.554E-02
DAV:   5    -0.301859898343E+04    0.23934E-04   -0.12410E-04  6720   0.496E-03    0.145E-02
DAV:   6    -0.301859898120E+04    0.22255E-05   -0.95177E-06  5760   0.156E-03
  32 F= -.30580028E+04 E0= -.30580028E+04  d E =-.106866E-03  mag=    -0.0000
       N       E                     dE             d eps       ncg     rms          rms(c)
DAV:   1    -0.301859866734E+04    0.31609E-03   -0.50751E-02  5568   0.772E-02    0.571E-02
DAV:   2    -0.301859871191E+04   -0.44571E-04   -0.62603E-04  6144   0.155E-02    0.771E-02
DAV:   3    -0.301859870590E+04    0.60068E-05   -0.10737E-05  6144   0.184E-03
  33 F= -.30580028E+04 E0= -.30580028E+04  d E =0.251321E-05  mag=    -0.0000
       N       E                     dE             d eps       ncg     rms          rms(c)
DAV:   1    -0.301859865408E+04    0.57835E-04   -0.51550E-02  5760   0.780E-02    0.759E-02
DAV:   2    -0.301859872107E+04   -0.66997E-04   -0.11255E-03  6336   0.191E-02    0.960E-02
DAV:   3    -0.301859867707E+04    0.44000E-04   -0.16567E-04  6336   0.587E-03    0.515E-02
DAV:   4    -0.301859869293E+04   -0.15862E-04   -0.66744E-05  6048   0.340E-03    0.457E-02
DAV:   5    -0.301859868100E+04    0.11931E-04   -0.11991E-04  6528   0.416E-03    0.177E-02
DAV:   6    -0.301859867679E+04    0.42082E-05   -0.19167E-05  5760   0.187E-03
  34 F= -.30580027E+04 E0= -.30580027E+04  d E =0.826188E-04  mag=    -0.0000
       N       E                     dE             d eps       ncg     rms          rms(c)
DAV:   1    -0.301859872555E+04   -0.44549E-04   -0.51201E-02  5952   0.822E-02    0.798E-02
DAV:   2    -0.301859878120E+04   -0.55646E-04   -0.82885E-04  6528   0.188E-02    0.897E-02
DAV:   3    -0.301859876695E+04    0.14247E-04   -0.45211E-05  6144   0.380E-03    0.584E-02
DAV:   4    -0.301859878186E+04   -0.14912E-04   -0.75561E-05  6144   0.416E-03    0.472E-02
DAV:   5    -0.301859876318E+04    0.18683E-04   -0.10511E-04  6720   0.445E-03    0.122E-02
DAV:   6    -0.301859876149E+04    0.16914E-05   -0.50287E-06  5568   0.138E-03
  35 F= -.30580028E+04 E0= -.30580028E+04  d E =-.141439E-03  mag=    -0.0000
       N       E                     dE             d eps       ncg     rms          rms(c)
DAV:   1    -0.301859872762E+04    0.35557E-04   -0.50135E-02  5952   0.778E-02    0.653E-02
DAV:   2    -0.301859875809E+04   -0.30464E-04   -0.69141E-04  6144   0.174E-02    0.839E-02
DAV:   3    -0.301859874327E+04    0.14822E-04   -0.29629E-05  5760   0.299E-03    0.628E-02
DAV:   4    -0.301859874562E+04   -0.23555E-05   -0.36650E-05  6336   0.302E-03
  36 F= -.30580028E+04 E0= -.30580028E+04  d E =0.532833E-04  mag=    -0.0000
       N       E                     dE             d eps       ncg     rms          rms(c)
DAV:   1    -0.301859865503E+04    0.88232E-04   -0.51447E-02  5760   0.788E-02    0.799E-02
DAV:   2    -0.301859870783E+04   -0.52793E-04   -0.73122E-04  6528   0.166E-02    0.840E-02
DAV:   3    -0.301859869725E+04    0.10572E-04   -0.52891E-05  6048   0.364E-03    0.548E-02
DAV:   4    -0.301859871961E+04   -0.22357E-04   -0.10271E-04  6528   0.450E-03    0.510E-02
DAV:   5    -0.301859869910E+04    0.20508E-04   -0.11333E-04  6528   0.467E-03    0.842E-03
DAV:   6    -0.301859869843E+04    0.67020E-06   -0.30514E-06  4992   0.109E-03
  37 F= -.30580027E+04 E0= -.30580027E+04  d E =0.925797E-04  mag=    -0.0000
       N       E                     dE             d eps       ncg     rms          rms(c)
DAV:   1    -0.301859878172E+04   -0.82621E-04   -0.51013E-02  5760   0.807E-02    0.768E-02
DAV:   2    -0.301859884038E+04   -0.58653E-04   -0.76992E-04  6528   0.171E-02    0.778E-02
DAV:   3    -0.301859883062E+04    0.97554E-05   -0.54144E-05  5952   0.358E-03
  38 F= -.30580028E+04 E0= -.30580028E+04  d E =-.162884E-03  mag=    -0.0000
       N       E                     dE             d eps       ncg     rms          rms(c)
DAV:   1    -0.301859877145E+04    0.68930E-04   -0.49474E-02  5376   0.726E-02    0.685E-02
DAV:   2    -0.301859884511E+04   -0.73662E-04   -0.12498E-03  6144   0.172E-02    0.684E-02
DAV:   3    -0.301859879240E+04    0.52710E-04   -0.42803E-04  6240   0.798E-03    0.421E-02
DAV:   4    -0.301859878754E+04    0.48603E-05   -0.31308E-05  5760   0.224E-03
  39 F= -.30580027E+04 E0= -.30580027E+04  d E =0.118323E-03  mag=    -0.0000
       N       E                     dE             d eps       ncg     rms          rms(c)
DAV:   1    -0.301859910606E+04   -0.31366E-03   -0.50426E-02  5376   0.748E-02    0.753E-02
DAV:   2    -0.301859915671E+04   -0.50644E-04   -0.82494E-04  5952   0.151E-02    0.775E-02
DAV:   3    -0.301859914375E+04    0.12952E-04   -0.76022E-05  6336   0.365E-03    0.479E-02
DAV:   4    -0.301859916738E+04   -0.23627E-04   -0.16924E-04  6240   0.483E-03    0.473E-02
DAV:   5    -0.301859914194E+04    0.25441E-04   -0.15247E-04  6240   0.450E-03    0.147E-02
DAV:   6    -0.301859913994E+04    0.20031E-05   -0.54788E-06  5376   0.144E-03
  40 F= -.30580027E+04 E0= -.30580027E+04  d E =0.684877E-04  mag=    -0.0000
       N       E                     dE             d eps       ncg     rms          rms(c)
DAV:   1    -0.301859873327E+04    0.40868E-03   -0.52522E-02  5376   0.810E-02    0.972E-02
DAV:   2    -0.301859878052E+04   -0.47251E-04   -0.13923E-03  5952   0.226E-02    0.122E-01
DAV:   3    -0.301859874119E+04    0.39330E-04   -0.11063E-04  6144   0.540E-03    0.792E-02
DAV:   4    -0.301859875937E+04   -0.18187E-04   -0.70115E-05  5952   0.412E-03    0.619E-02
DAV:   5    -0.301859873927E+04    0.20108E-04   -0.14879E-04  6336   0.527E-03    0.258E-02
DAV:   6    -0.301859873464E+04    0.46269E-05   -0.22247E-05  6336   0.230E-03
  41 F= -.30580027E+04 E0= -.30580027E+04  d E =-.820455E-04  mag=    -0.0000
       N       E                     dE             d eps       ncg     rms          rms(c)
DAV:   1    -0.301859921733E+04   -0.47806E-03   -0.52535E-02  5376   0.756E-02    0.644E-02
DAV:   2    -0.301859924693E+04   -0.29601E-04   -0.82271E-04  6144   0.164E-02    0.719E-02
DAV:   3    -0.301859922507E+04    0.21852E-04   -0.10971E-04  6336   0.438E-03    0.399E-02
DAV:   4    -0.301859923472E+04   -0.96455E-05   -0.87946E-05  5952   0.385E-03
  42 F= -.30580027E+04 E0= -.30580027E+04  d E =0.359983E-05  mag=    -0.0000
       N       E                     dE             d eps       ncg     rms          rms(c)
DAV:   1    -0.301859899459E+04    0.23049E-03   -0.52707E-02  5376   0.704E-02    0.542E-02
DAV:   2    -0.301859904185E+04   -0.47260E-04   -0.67006E-04  6144   0.137E-02    0.456E-02
DAV:   3    -0.301859903553E+04    0.63177E-05   -0.50133E-05  6336   0.344E-03
  43 F= -.30580028E+04 E0= -.30580028E+04  d E =-.870881E-04  mag=    -0.0000
       N       E                     dE             d eps       ncg     rms          rms(c)
DAV:   1    -0.301859879313E+04    0.24871E-03   -0.53035E-02  5376   0.764E-02    0.698E-02
DAV:   2    -0.301859885131E+04   -0.58182E-04   -0.13483E-03  5952   0.201E-02    0.949E-02
DAV:   3    -0.301859881002E+04    0.41296E-04   -0.13422E-04  6144   0.545E-03    0.550E-02
DAV:   4    -0.301859882087E+04   -0.10853E-04   -0.63429E-05  6144   0.341E-03    0.473E-02
DAV:   5    -0.301859880851E+04    0.12366E-04   -0.11885E-04  6336   0.426E-03    0.227E-02
DAV:   6    -0.301859880417E+04    0.43377E-05   -0.18481E-05  5952   0.218E-03
  44 F= -.30580028E+04 E0= -.30580028E+04  d E =0.513778E-04  mag=    -0.0000
       N       E                     dE             d eps       ncg     rms          rms(c)
DAV:   1    -0.301859927635E+04   -0.46784E-03   -0.54956E-02  5184   0.750E-02    0.784E-02
DAV:   2    -0.301859930026E+04   -0.23909E-04   -0.11234E-03  6336   0.205E-02    0.112E-01
DAV:   3    -0.301859926702E+04    0.33238E-04   -0.65897E-05  6336   0.411E-03    0.790E-02
DAV:   4    -0.301859926998E+04   -0.29607E-05   -0.29870E-05  5952   0.273E-03
  45 F= -.30580028E+04 E0= -.30580028E+04  d E =0.167049E-04  mag=    -0.0000
       N       E                     dE             d eps       ncg     rms          rms(c)
DAV:   1    -0.301859901418E+04    0.25284E-03   -0.52917E-02  5376   0.711E-02    0.551E-02
DAV:   2    -0.301859905902E+04   -0.44838E-04   -0.62771E-04  6144   0.134E-02    0.512E-02
DAV:   3    -0.301859905153E+04    0.74956E-05   -0.57372E-05  6336   0.357E-03
  46 F= -.30580029E+04 E0= -.30580029E+04  d E =-.124536E-03  mag=    -0.0000
       N       E                     dE             d eps       ncg     rms          rms(c)
DAV:   1    -0.301859915440E+04   -0.95376E-04   -0.52496E-02  5184   0.740E-02    0.535E-02
DAV:   2    -0.301859922673E+04   -0.72332E-04   -0.10618E-03  5952   0.155E-02    0.516E-02
DAV:   3    -0.301859920428E+04    0.22455E-04   -0.20350E-04  6048   0.558E-03    0.263E-02
DAV:   4    -0.301859920146E+04    0.28200E-05   -0.35196E-05  6144   0.234E-03
  47 F= -.30580029E+04 E0= -.30580029E+04  d E =0.180877E-04  mag=    -0.0000
       N       E                     dE             d eps       ncg     rms          rms(c)
DAV:   1    -0.301859893599E+04    0.26829E-03   -0.53137E-02  5184   0.695E-02    0.591E-02
DAV:   2    -0.301859897118E+04   -0.35191E-04   -0.71325E-04  6144   0.154E-02    0.735E-02
DAV:   3    -0.301859895949E+04    0.11691E-04   -0.31593E-05  6144   0.284E-03    0.512E-02
DAV:   4    -0.301859896431E+04   -0.48277E-05   -0.25587E-05  5952   0.236E-03
  48 F= -.30580028E+04 E0= -.30580028E+04  d E =0.101001E-03  mag=    -0.0000
       N       E                     dE             d eps       ncg     rms          rms(c)
DAV:   1    -0.301859903174E+04   -0.72250E-04   -0.52501E-02  4992   0.706E-02    0.557E-02
DAV:   2    -0.301859906845E+04   -0.36715E-04   -0.64958E-04  6144   0.146E-02    0.667E-02
DAV:   3    -0.301859905952E+04    0.89305E-05   -0.23767E-05  6144   0.256E-03
  49 F= -.30580027E+04 E0= -.30580027E+04  d E =0.392836E-04  mag=    -0.0000
       N       E                     dE             d eps       ncg     rms          rms(c)
DAV:   1    -0.301859886673E+04    0.20172E-03   -0.53870E-02  5760   0.784E-02    0.813E-02
DAV:   2    -0.301859891169E+04   -0.44956E-04   -0.80206E-04  5760   0.159E-02    0.511E-02
DAV:   3    -0.301859890809E+04    0.35946E-05   -0.28877E-05  6336   0.273E-03
  50 F= -.30580028E+04 E0= -.30580028E+04  d E =-.573354E-04  mag=    -0.0000
       N       E                     dE             d eps       ncg     rms          rms(c)
DAV:   1    -0.301859905615E+04   -0.14446E-03   -0.50398E-02  5760   0.678E-02    0.405E-02
DAV:   2    -0.301859910810E+04   -0.51954E-04   -0.80465E-04  5952   0.138E-02    0.502E-02
DAV:   3    -0.301859907524E+04    0.32857E-04   -0.19669E-04  6528   0.551E-03    0.189E-02
DAV:   4    -0.301859907416E+04    0.10894E-05   -0.86287E-06  5568   0.139E-03
  51 F= -.30580027E+04 E0= -.30580027E+04  d E =0.565586E-04  mag=    -0.0000
       N       E                     dE             d eps       ncg     rms          rms(c)
DAV:   1    -0.301859903979E+04    0.35454E-04   -0.55231E-02  5760   0.781E-02    0.987E-02
DAV:   2    -0.301859911120E+04   -0.71410E-04   -0.21971E-03  6144   0.268E-02    0.170E-01
DAV:   3    -0.301859899256E+04    0.11864E-03   -0.19310E-04  6144   0.701E-03    0.109E-01
DAV:   4    -0.301859899515E+04   -0.25908E-05   -0.51808E-05  6336   0.369E-03
  52 F= -.30580028E+04 E0= -.30580028E+04  d E =-.532639E-04  mag=    -0.0000
       N       E                     dE             d eps       ncg     rms          rms(c)
DAV:   1    -0.301859854079E+04    0.45177E-03   -0.52453E-02  5760   0.770E-02    0.710E-02
DAV:   2    -0.301859861153E+04   -0.70740E-04   -0.12925E-03  6336   0.207E-02    0.102E-01
DAV:   3    -0.301859855571E+04    0.55821E-04   -0.11921E-04  6144   0.624E-03    0.524E-02
DAV:   4    -0.301859855798E+04   -0.22674E-05   -0.20861E-05  6144   0.238E-03
  53 F= -.30580028E+04 E0= -.30580028E+04  d E =-.570090E-04  mag=    -0.0000
       N       E                     dE             d eps       ncg     rms          rms(c)
DAV:   1    -0.301859887983E+04   -0.32412E-03   -0.53152E-02  5184   0.683E-02    0.669E-02
DAV:   2    -0.301859892879E+04   -0.48967E-04   -0.82844E-04  5952   0.156E-02    0.769E-02
DAV:   3    -0.301859891100E+04    0.17793E-04   -0.59008E-05  6144   0.393E-03    0.460E-02
DAV:   4    -0.301859891974E+04   -0.87403E-05   -0.49386E-05  6144   0.321E-03
  54 F= -.30580028E+04 E0= -.30580028E+04  d E =0.660441E-04  mag=    -0.0000
       N       E                     dE             d eps       ncg     rms          rms(c)
DAV:   1    -0.301859903650E+04   -0.12550E-03   -0.52720E-02  5376   0.706E-02    0.661E-02
DAV:   2    -0.301859908258E+04   -0.46075E-04   -0.76227E-04  5952   0.146E-02    0.705E-02
DAV:   3    -0.301859907410E+04    0.84795E-05   -0.41022E-05  6336   0.307E-03
  55 F= -.30580027E+04 E0= -.30580027E+04  d E =0.384120E-04  mag=    -0.0000
       N       E                     dE             d eps       ncg     rms          rms(c)
DAV:   1    -0.301859862246E+04    0.46012E-03   -0.53292E-02  5376   0.772E-02    0.102E-01
DAV:   2    -0.301859876525E+04   -0.14279E-03   -0.24553E-03  6336   0.266E-02    0.153E-01
DAV:   3    -0.301859863572E+04    0.12953E-03   -0.35068E-04  5952   0.903E-03    0.803E-02
DAV:   4    -0.301859866223E+04   -0.26506E-04   -0.83657E-05  6144   0.418E-03    0.723E-02
DAV:   5    -0.301859863857E+04    0.23658E-04   -0.18648E-04  6720   0.545E-03    0.341E-02
DAV:   6    -0.301859862968E+04    0.88898E-05   -0.41468E-05  5952   0.304E-03
  56 F= -.30580028E+04 E0= -.30580028E+04  d E =-.490529E-04  mag=    -0.0000
       N       E                     dE             d eps       ncg     rms          rms(c)
DAV:   1    -0.301859921369E+04   -0.57512E-03   -0.54698E-02  5760   0.748E-02    0.954E-02
DAV:   2    -0.301859927463E+04   -0.60935E-04   -0.22443E-03  6528   0.256E-02    0.158E-01
DAV:   3    -0.301859916359E+04    0.11104E-03   -0.20748E-04  6336   0.704E-03    0.100E-01
DAV:   4    -0.301859916534E+04   -0.17448E-05   -0.59278E-05  5952   0.403E-03
  57 F= -.30580028E+04 E0= -.30580028E+04  d E =-.214475E-04  mag=    -0.0000
       N       E                     dE             d eps       ncg     rms          rms(c)
DAV:   1    -0.301859911216E+04    0.51432E-04   -0.54144E-02  5760   0.755E-02    0.949E-02
DAV:   2    -0.301859918772E+04   -0.75558E-04   -0.25593E-03  6528   0.282E-02    0.164E-01
DAV:   3    -0.301859904451E+04    0.14320E-03   -0.27488E-04  6144   0.841E-03    0.941E-02
DAV:   4    -0.301859904626E+04   -0.17518E-05   -0.54057E-05  6144   0.392E-03
  58 F= -.30580028E+04 E0= -.30580028E+04  d E =-.131199E-04  mag=    -0.0000
       N       E                     dE             d eps       ncg     rms          rms(c)
DAV:   1    -0.301859852051E+04    0.52401E-03   -0.53862E-02  5760   0.762E-02    0.901E-02
DAV:   2    -0.301859858730E+04   -0.66797E-04   -0.17539E-03  6528   0.219E-02    0.130E-01
DAV:   3    -0.301859851504E+04    0.72263E-04   -0.20440E-04  6336   0.678E-03    0.743E-02
DAV:   4    -0.301859853229E+04   -0.17253E-04   -0.55640E-05  5952   0.393E-03    0.673E-02
DAV:   5    -0.301859850645E+04    0.25842E-04   -0.13400E-04  6528   0.537E-03    0.142E-02
DAV:   6    -0.301859850441E+04    0.20449E-05   -0.13425E-05  5568   0.180E-03
  59 F= -.30580027E+04 E0= -.30580027E+04  d E =0.118789E-03  mag=    -0.0000
       N       E                     dE             d eps       ncg     rms          rms(c)
DAV:   1    -0.301859867816E+04   -0.17171E-03   -0.52108E-02  5760   0.616E-02    0.428E-02
DAV:   2    -0.301859870157E+04   -0.23410E-04   -0.60858E-04  6336   0.132E-02    0.662E-02
DAV:   3    -0.301859868396E+04    0.17606E-04   -0.39672E-05  5952   0.321E-03    0.404E-02
DAV:   4    -0.301859868262E+04    0.13480E-05   -0.14629E-05  5568   0.196E-03
  60 F= -.30580028E+04 E0= -.30580028E+04  d E =-.140711E-03  mag=    -0.0000
       N       E                     dE             d eps       ncg     rms          rms(c)
DAV:   1    -0.301859904748E+04   -0.36352E-03   -0.50625E-02  5760   0.655E-02    0.293E-02
DAV:   2    -0.301859906996E+04   -0.22480E-04   -0.37249E-04  6336   0.104E-02    0.247E-02
DAV:   3    -0.301859906528E+04    0.46875E-05   -0.23264E-05  5952   0.280E-03
  61 F= -.30580028E+04 E0= -.30580028E+04  d E =0.300405E-04  mag=    -0.0000
       N       E                     dE             d eps       ncg     rms          rms(c)
DAV:   1    -0.301859872348E+04    0.34649E-03   -0.52145E-02  5760   0.777E-02    0.669E-02
DAV:   2    -0.301859878716E+04   -0.63684E-04   -0.12582E-03  6528   0.204E-02    0.118E-01
DAV:   3    -0.301859874921E+04    0.37952E-04   -0.64754E-05  5760   0.416E-03    0.838E-02
DAV:   4    -0.301859874307E+04    0.61378E-05   -0.24038E-05  6144   0.252E-03
  62 F= -.30580028E+04 E0= -.30580028E+04  d E =-.118915E-05  mag=    -0.0000
       N       E                     dE             d eps       ncg     rms          rms(c)
DAV:   1    -0.301859836860E+04    0.38061E-03   -0.54586E-02  5184   0.754E-02    0.792E-02
DAV:   2    -0.301859841456E+04   -0.45955E-04   -0.14691E-03  6144   0.225E-02    0.124E-01
DAV:   3    -0.301859836574E+04    0.48817E-04   -0.10116E-04  5952   0.510E-03    0.822E-02
DAV:   4    -0.301859837022E+04   -0.44780E-05   -0.42122E-05  6144   0.291E-03
  63 F= -.30580027E+04 E0= -.30580027E+04  d E =0.895363E-04  mag=    -0.0000
       N       E                     dE             d eps       ncg     rms          rms(c)
DAV:   1    -0.301859902010E+04   -0.65437E-03   -0.53844E-02  5184   0.747E-02    0.890E-02
DAV:   2    -0.301859908355E+04   -0.63443E-04   -0.12607E-03  5760   0.195E-02    0.102E-01
DAV:   3    -0.301859905092E+04    0.32630E-04   -0.10174E-04  6144   0.530E-03    0.592E-02
DAV:   4    -0.301859906117E+04   -0.10253E-04   -0.64262E-05  5952   0.382E-03    0.520E-02
DAV:   5    -0.301859904569E+04    0.15479E-04   -0.10023E-04  6528   0.444E-03    0.162E-02
DAV:   6    -0.301859904261E+04    0.30866E-05   -0.10331E-05  5760   0.168E-03
  64 F= -.30580028E+04 E0= -.30580028E+04  d E =-.820290E-04  mag=    -0.0000
       N       E                     dE             d eps       ncg     rms          rms(c)
DAV:   1    -0.301859896736E+04    0.78335E-04   -0.53991E-02  5568   0.774E-02    0.775E-02
DAV:   2    -0.301859900263E+04   -0.35272E-04   -0.14395E-03  6336   0.212E-02    0.121E-01
DAV:   3    -0.301859895244E+04    0.50186E-04   -0.10576E-04  6144   0.519E-03    0.787E-02
DAV:   4    -0.301859895545E+04   -0.30104E-05   -0.33860E-05  6336   0.318E-03
  65 F= -.30580027E+04 E0= -.30580027E+04  d E =0.136982E-03  mag=    -0.0000
       N       E                     dE             d eps       ncg     rms          rms(c)
DAV:   1    -0.301859883446E+04    0.11799E-03   -0.54849E-02  5568   0.712E-02    0.902E-02
DAV:   2    -0.301859888600E+04   -0.51546E-04   -0.21757E-03  6720   0.250E-02    0.146E-01
DAV:   3    -0.301859879008E+04    0.95921E-04   -0.21090E-04  6336   0.734E-03    0.839E-02
DAV:   4    -0.301859879489E+04   -0.48105E-05   -0.42355E-05  6144   0.357E-03
  66 F= -.30580029E+04 E0= -.30580029E+04  d E =-.223614E-03  mag=    -0.0000
       N       E                     dE             d eps       ncg     rms          rms(c)
DAV:   1    -0.301859900625E+04   -0.21617E-03   -0.51413E-02  5568   0.647E-02    0.455E-02
DAV:   2    -0.301859904679E+04   -0.40533E-04   -0.55985E-04  6336   0.119E-02    0.429E-02
DAV:   3    -0.301859903797E+04    0.88199E-05   -0.61725E-05  6144   0.383E-03
  67 F= -.30580028E+04 E0= -.30580028E+04  d E =0.855074E-04  mag=    -0.0000
       N       E                     dE             d eps       ncg     rms          rms(c)
DAV:   1    -0.301859897293E+04    0.73860E-04   -0.51671E-02  5568   0.780E-02    0.632E-02
DAV:   2    -0.301859901970E+04   -0.46774E-04   -0.96571E-04  6528   0.167E-02    0.553E-02
DAV:   3    -0.301859900011E+04    0.19593E-04   -0.19425E-04  6240   0.624E-03    0.287E-02
DAV:   4    -0.301859899747E+04    0.26387E-05   -0.57024E-05  6144   0.331E-03
  68 F= -.30580028E+04 E0= -.30580028E+04  d E =0.211989E-04  mag=    -0.0000
       N       E                     dE             d eps       ncg     rms          rms(c)
DAV:   1    -0.301859835069E+04    0.64942E-03   -0.51874E-02  5376   0.735E-02    0.702E-02
DAV:   2    -0.301859840953E+04   -0.58844E-04   -0.83572E-04  5952   0.151E-02    0.649E-02
DAV:   3    -0.301859839771E+04    0.11820E-04   -0.92961E-05  6336   0.458E-03    0.325E-02
DAV:   4    -0.301859840714E+04   -0.94307E-05   -0.89402E-05  5952   0.415E-03
  69 F= -.30580027E+04 E0= -.30580027E+04  d E =0.604329E-04  mag=    -0.0000
       N       E                     dE             d eps       ncg     rms          rms(c)
DAV:   1    -0.301859899207E+04   -0.59436E-03   -0.54378E-02  5376   0.752E-02    0.871E-02
DAV:   2    -0.301859904780E+04   -0.55728E-04   -0.12415E-03  5952   0.194E-02    0.110E-01
DAV:   3    -0.301859901619E+04    0.31614E-04   -0.89335E-05  6336   0.463E-03    0.701E-02
DAV:   4    -0.301859903406E+04   -0.17876E-04   -0.85060E-05  5952   0.411E-03    0.626E-02
DAV:   5    -0.301859900931E+04    0.24755E-04   -0.14690E-04  6720   0.511E-03    0.208E-02
DAV:   6    -0.301859900540E+04    0.39074E-05   -0.15111E-05  5952   0.182E-03
  70 F= -.30580028E+04 E0= -.30580028E+04  d E =-.676429E-04  mag=    -0.0000
