       N       E                     dE             d eps       ncg     rms          rms(c)
DAV:   1     0.185081431994E+05    0.18508E+05   -0.76008E+05  6048   0.102E+03
DAV:   2     0.224331822583E+03   -0.18284E+05   -0.17533E+05  8064   0.269E+02
DAV:   3    -0.298042623437E+04   -0.32048E+04   -0.31854E+04  7104   0.119E+02
DAV:   4    -0.306419253605E+04   -0.83766E+02   -0.83418E+02  7200   0.224E+01
DAV:   5    -0.306589645052E+04   -0.17039E+01   -0.17008E+01  7488   0.297E+00    0.190E+02
DAV:   6    -0.147841180831E+04    0.15875E+04   -0.29447E+03  6816   0.430E+01    0.882E+01
DAV:   7    -0.161936023571E+04   -0.14095E+03   -0.24706E+02  7200   0.122E+01    0.558E+01
DAV:   8    -0.164921764880E+04   -0.29857E+02   -0.27816E+01  7104   0.511E+00    0.443E+01
DAV:   9    -0.178712829033E+04   -0.13791E+03   -0.31812E+01  7392   0.531E+00    0.363E+01
DAV:  10    -0.199959505438E+04   -0.21247E+03   -0.49658E+01  7104   0.549E+00    0.300E+01
DAV:  11    -0.221900754456E+04   -0.21941E+03   -0.78648E+01  6912   0.619E+00    0.249E+01
DAV:  12    -0.260080948548E+04   -0.38180E+03   -0.28174E+02  6816   0.112E+01    0.166E+01
DAV:  13    -0.280256070371E+04   -0.20175E+03   -0.17930E+02  6912   0.763E+00    0.114E+01
DAV:  14    -0.284881342427E+04   -0.46253E+02   -0.23775E+01  7104   0.310E+00    0.922E+00
DAV:  15    -0.287120850156E+04   -0.22395E+02   -0.70433E+00  6816   0.195E+00    0.736E+00
DAV:  16    -0.288036003081E+04   -0.91515E+01   -0.20402E+00  6816   0.116E+00    0.608E+00
DAV:  17    -0.288693665513E+04   -0.65766E+01   -0.15273E+00  6720   0.907E-01    0.484E+00
DAV:  18    -0.289197042831E+04   -0.50338E+01   -0.13097E+00  6624   0.778E-01    0.370E+00
DAV:  19    -0.289672808718E+04   -0.47577E+01   -0.11928E+00  6624   0.714E-01    0.205E+00
DAV:  20    -0.289663791438E+04    0.90173E-01   -0.31921E-01  6624   0.436E-01    0.142E+00
DAV:  21    -0.289785967265E+04   -0.12218E+01   -0.60193E-02  6912   0.303E-01    0.879E-01
DAV:  22    -0.290015465930E+04   -0.22950E+01   -0.57610E-02  6720   0.275E-01    0.546E-01
DAV:  23    -0.290128630586E+04   -0.11316E+01   -0.15968E-02  7008   0.136E-01    0.399E-01
DAV:  24    -0.290210862752E+04   -0.82232E+00   -0.12071E-02  6720   0.106E-01    0.211E-01
DAV:  25    -0.290257691803E+04   -0.46829E+00   -0.54333E-03  7104   0.789E-02    0.114E-01
DAV:  26    -0.290279311640E+04   -0.21620E+00   -0.29708E-03  7104   0.568E-02    0.569E-02
DAV:  27    -0.290283667961E+04   -0.43563E-01   -0.71625E-04  7200   0.274E-02    0.431E-02
DAV:  28    -0.290284379205E+04   -0.71124E-02   -0.10354E-04  7200   0.119E-02    0.285E-02
DAV:  29    -0.290285069444E+04   -0.69024E-02   -0.11229E-04  6816   0.115E-02    0.151E-02
DAV:  30    -0.290285189703E+04   -0.12026E-02   -0.32550E-05  6624   0.757E-03    0.106E-02
DAV:  31    -0.290285309131E+04   -0.11943E-02   -0.11318E-05  5760   0.459E-03    0.703E-03
DAV:  32    -0.290285418156E+04   -0.10902E-02   -0.76102E-06  5376   0.374E-03    0.520E-03
DAV:  33    -0.290285491658E+04   -0.73502E-03   -0.53432E-06  5472   0.314E-03    0.409E-03
DAV:  34    -0.290285548264E+04   -0.56606E-03   -0.40542E-06  5376   0.268E-03    0.288E-03
DAV:  35    -0.290285569044E+04   -0.20780E-03    0.55107E-08  5280   0.167E-03    0.262E-03
DAV:  36    -0.290285578312E+04   -0.92686E-04    0.15872E-06  4992   0.106E-03    0.241E-03
DAV:  37    -0.290285583178E+04   -0.48660E-04    0.22246E-06  5184   0.774E-04    0.229E-03
DAV:  38    -0.290285586360E+04   -0.31819E-04    0.24355E-06  4992   0.639E-04    0.226E-03
DAV:  39    -0.290285587422E+04   -0.10612E-04    0.27302E-06  4992   0.316E-04    0.224E-03
DAV:  40    -0.290285587820E+04   -0.39816E-05    0.28154E-06  4992   0.208E-04
   1 F= -.29379781E+04 E0= -.29379781E+04  d E =-.293798E+04  mag=    -0.0000
       N       E                     dE             d eps       ncg     rms          rms(c)
DAV:   1    -0.290285584831E+04    0.25909E-04   -0.77072E-03  5952   0.210E-02    0.689E-02
DAV:   2    -0.290285584447E+04    0.38354E-05   -0.52018E-05  6528   0.218E-03
   2 F= -.29379780E+04 E0= -.29379780E+04  d E =0.383977E-04  mag=    -0.0000
       N       E                     dE             d eps       ncg     rms          rms(c)
DAV:   1    -0.290285583344E+04    0.14869E-04   -0.15158E-02  5760   0.296E-02    0.425E-02
DAV:   2    -0.290285583950E+04   -0.60592E-05   -0.67536E-05  6528   0.221E-03
   3 F= -.29379780E+04 E0= -.29379780E+04  d E =0.588824E-04  mag=    -0.0000
       N       E                     dE             d eps       ncg     rms          rms(c)
DAV:   1    -0.290285568994E+04    0.14350E-03   -0.15212E-02  5760   0.298E-02    0.447E-02
DAV:   2    -0.290285569462E+04   -0.46878E-05   -0.63563E-05  6528   0.276E-03
   4 F= -.29379778E+04 E0= -.29379778E+04  d E =0.109029E-03  mag=    -0.0000
       N       E                     dE             d eps       ncg     rms          rms(c)
DAV:   1    -0.290285592445E+04   -0.23451E-03   -0.15073E-02  6144   0.370E-02    0.853E-02
DAV:   2    -0.290285592692E+04   -0.24752E-05   -0.10879E-04  6720   0.373E-03    0.223E-02
DAV:   3    -0.290285592728E+04   -0.35804E-06   -0.11809E-05  6144   0.231E-03
   5 F= -.29379780E+04 E0= -.29379780E+04  d E =-.196489E-03  mag=    -0.0000
       N       E                     dE             d eps       ncg     rms          rms(c)
DAV:   1    -0.290285580419E+04    0.12273E-03   -0.14695E-02  6144   0.374E-02    0.445E-02
DAV:   2    -0.290285580950E+04   -0.53085E-05   -0.60826E-05  6336   0.277E-03
   6 F= -.29379780E+04 E0= -.29379780E+04  d E =0.268106E-04  mag=    -0.0000
       N       E                     dE             d eps       ncg     rms          rms(c)
DAV:   1    -0.290285563129E+04    0.17290E-03   -0.14884E-02  6144   0.383E-02    0.946E-02
DAV:   2    -0.290285563016E+04    0.11386E-05   -0.13279E-04  6912   0.599E-03    0.264E-02
DAV:   3    -0.290285562973E+04    0.42614E-06   -0.14874E-05  6912   0.314E-03
   7 F= -.29379778E+04 E0= -.29379778E+04  d E =0.255077E-03  mag=    -0.0000
       N       E                     dE             d eps       ncg     rms          rms(c)
DAV:   1    -0.290285559429E+04    0.35869E-04   -0.76298E-02  6144   0.919E-02    0.140E-01
DAV:   2    -0.290285554568E+04    0.48611E-04   -0.55670E-04  6720   0.113E-02    0.552E-02
DAV:   3    -0.290285552391E+04    0.21764E-04   -0.40428E-05  6912   0.371E-03    0.325E-02
DAV:   4    -0.290285551759E+04    0.63258E-05   -0.15640E-05  6144   0.252E-03
   8 F= -.29379777E+04 E0= -.29379777E+04  d E =0.602941E-04  mag=    -0.0000
       N       E                     dE             d eps       ncg     rms          rms(c)
DAV:   1    -0.290285569054E+04   -0.16663E-03   -0.13445E-01  5760   0.116E-01    0.115E-01
DAV:   2    -0.290285564043E+04    0.50106E-04   -0.63942E-04  6336   0.107E-02    0.652E-02
DAV:   3    -0.290285561402E+04    0.26416E-04   -0.46286E-05  6144   0.348E-03    0.386E-02
DAV:   4    -0.290285560726E+04    0.67579E-05   -0.27421E-05  6144   0.362E-03
   9 F= -.29379778E+04 E0= -.29379778E+04  d E =-.533892E-04  mag=    -0.0000
       N       E                     dE             d eps       ncg     rms          rms(c)
DAV:   1    -0.290285580978E+04   -0.19576E-03   -0.13680E-01  5760   0.116E-01    0.119E-01
DAV:   2    -0.290285575705E+04    0.52732E-04   -0.66903E-04  6336   0.108E-02    0.794E-02
DAV:   3    -0.290285572771E+04    0.29334E-04   -0.51566E-05  6336   0.420E-03    0.437E-02
DAV:   4    -0.290285571777E+04    0.99408E-05   -0.41138E-05  6144   0.466E-03
  10 F= -.29379775E+04 E0= -.29379775E+04  d E =0.270108E-03  mag=    -0.0000
       N       E                     dE             d eps       ncg     rms          rms(c)
DAV:   1    -0.290285567182E+04    0.55888E-04   -0.99826E-02  6144   0.966E-02    0.129E-01
DAV:   2    -0.290285563375E+04    0.38076E-04   -0.10075E-03  6144   0.161E-02    0.105E-01
DAV:   3    -0.290285559927E+04    0.34480E-04   -0.11597E-04  6528   0.611E-03    0.592E-02
DAV:   4    -0.290285559209E+04    0.71839E-05   -0.33358E-05  6144   0.404E-03
  11 F= -.29379779E+04 E0= -.29379779E+04  d E =-.394555E-03  mag=    -0.0000
       N       E                     dE             d eps       ncg     rms          rms(c)
DAV:   1    -0.290285561488E+04   -0.15609E-04   -0.48143E-02  6144   0.585E-02    0.359E-02
DAV:   2    -0.290285565453E+04   -0.39655E-04   -0.49376E-04  6720   0.977E-03    0.232E-02
DAV:   3    -0.290285565136E+04    0.31726E-05   -0.75530E-06  6144   0.174E-03
  12 F= -.29379779E+04 E0= -.29379779E+04  d E =-.277032E-04  mag=    -0.0000
       N       E                     dE             d eps       ncg     rms          rms(c)
DAV:   1    -0.290285604848E+04   -0.39394E-03   -0.49160E-02  6144   0.549E-02    0.356E-02
DAV:   2    -0.290285608602E+04   -0.37543E-04   -0.47723E-04  6528   0.969E-03    0.424E-02
DAV:   3    -0.290285607857E+04    0.74466E-05   -0.12677E-05  6144   0.224E-03
  13 F= -.29379780E+04 E0= -.29379780E+04  d E =-.686942E-04  mag=    -0.0000
       N       E                     dE             d eps       ncg     rms          rms(c)
DAV:   1    -0.290285583604E+04    0.24998E-03   -0.49516E-02  6144   0.539E-02    0.563E-02
DAV:   2    -0.290285588948E+04   -0.53445E-04   -0.70948E-04  6144   0.102E-02    0.424E-02
DAV:   3    -0.290285588687E+04    0.26147E-05   -0.15925E-05  6144   0.177E-03
  14 F= -.29379781E+04 E0= -.29379781E+04  d E =-.106413E-03  mag=    -0.0000
       N       E                     dE             d eps       ncg     rms          rms(c)
DAV:   1    -0.290285588156E+04    0.79173E-05   -0.48598E-02  5760   0.496E-02    0.414E-02
DAV:   2    -0.290285592238E+04   -0.40820E-04   -0.49405E-04  6336   0.752E-03    0.253E-02
DAV:   3    -0.290285591975E+04    0.26379E-05   -0.54219E-06  5760   0.121E-03
  15 F= -.29379781E+04 E0= -.29379781E+04  d E =-.121744E-04  mag=    -0.0000
       N       E                     dE             d eps       ncg     rms          rms(c)
DAV:   1    -0.290285579482E+04    0.12756E-03   -0.50948E-02  5760   0.511E-02    0.917E-02
DAV:   2    -0.290285584682E+04   -0.51997E-04   -0.10073E-03  6144   0.161E-02    0.135E-01
DAV:   3    -0.290285577702E+04    0.69799E-04   -0.71868E-05  5952   0.495E-03    0.792E-02
DAV:   4    -0.290285578243E+04   -0.54145E-05   -0.10226E-05  6144   0.216E-03
  16 F= -.29379777E+04 E0= -.29379777E+04  d E =0.383984E-03  mag=    -0.0000
       N       E                     dE             d eps       ncg     rms          rms(c)
DAV:   1    -0.290285577814E+04   -0.11224E-05   -0.50824E-02  5952   0.561E-02    0.129E-01
DAV:   2    -0.290285585751E+04   -0.79374E-04   -0.13783E-03  6144   0.187E-02    0.145E-01
DAV:   3    -0.290285577481E+04    0.82708E-04   -0.12178E-04  5952   0.700E-03    0.661E-02
DAV:   4    -0.290285579475E+04   -0.19942E-04   -0.27087E-05  6144   0.404E-03    0.745E-02
DAV:   5    -0.290285577020E+04    0.24544E-04   -0.28092E-05  6144   0.353E-03    0.159E-02
DAV:   6    -0.290285577045E+04   -0.24762E-06   -0.95680E-08  6336   0.802E-04
  17 F= -.29379780E+04 E0= -.29379780E+04  d E =-.240098E-03  mag=    -0.0000
       N       E                     dE             d eps       ncg     rms          rms(c)
DAV:   1    -0.290285582125E+04   -0.51047E-04   -0.49412E-02  5952   0.541E-02    0.664E-02
DAV:   2    -0.290285585159E+04   -0.30341E-04   -0.56084E-04  6528   0.115E-02    0.761E-02
DAV:   3    -0.290285583798E+04    0.13611E-04   -0.18493E-05  6144   0.264E-03    0.465E-02
DAV:   4    -0.290285584395E+04   -0.59735E-05   -0.71728E-06  5952   0.233E-03
  18 F= -.29379779E+04 E0= -.29379779E+04  d E =0.101421E-03  mag=    -0.0000
       N       E                     dE             d eps       ncg     rms          rms(c)
DAV:   1    -0.290285586728E+04   -0.29295E-04   -0.49347E-02  5952   0.586E-02    0.857E-02
DAV:   2    -0.290285590652E+04   -0.39247E-04   -0.71830E-04  6528   0.135E-02    0.921E-02
DAV:   3    -0.290285589047E+04    0.16052E-04   -0.30621E-05  6144   0.349E-03    0.531E-02
DAV:   4    -0.290285590415E+04   -0.13675E-04   -0.14885E-05  6144   0.341E-03    0.557E-02
DAV:   5    -0.290285588868E+04    0.15467E-04   -0.16846E-05  6144   0.336E-03    0.705E-03
DAV:   6    -0.290285588874E+04   -0.57218E-07    0.11795E-06  6144   0.753E-04
  19 F= -.29379778E+04 E0= -.29379778E+04  d E =0.313747E-04  mag=    -0.0000
       N       E                     dE             d eps       ncg     rms          rms(c)
DAV:   1    -0.290285586829E+04    0.20384E-04   -0.48875E-02  5952   0.599E-02    0.121E-01
DAV:   2    -0.290285592688E+04   -0.58588E-04   -0.90832E-04  6528   0.145E-02    0.105E-01
DAV:   3    -0.290285590281E+04    0.24070E-04   -0.51938E-05  6144   0.486E-03    0.483E-02
DAV:   4    -0.290285591904E+04   -0.16227E-04   -0.30305E-05  5952   0.469E-03    0.616E-02
DAV:   5    -0.290285589445E+04    0.24587E-04   -0.22993E-05  6144   0.372E-03    0.522E-03
DAV:   6    -0.290285589457E+04   -0.12183E-06    0.46084E-07  5952   0.771E-04
  20 F= -.29379779E+04 E0= -.29379779E+04  d E =-.430639E-04  mag=    -0.0000
       N       E                     dE             d eps       ncg     rms          rms(c)
DAV:   1    -0.290285571173E+04    0.18272E-03   -0.50673E-02  5952   0.586E-02    0.817E-02
DAV:   2    -0.290285573703E+04   -0.25304E-04   -0.75025E-04  6336   0.145E-02    0.105E-01
DAV:   3    -0.290285571552E+04    0.21513E-04   -0.34892E-05  6144   0.340E-03    0.679E-02
DAV:   4    -0.290285572771E+04   -0.12187E-04   -0.10681E-05  5760   0.261E-03    0.620E-02
DAV:   5    -0.290285571049E+04    0.17217E-04   -0.21058E-05  6336   0.336E-03    0.117E-02
DAV:   6    -0.290285571044E+04    0.49768E-07    0.12114E-06  6144   0.711E-04
  21 F= -.29379780E+04 E0= -.29379780E+04  d E =-.124293E-03  mag=    -0.0000
       N       E                     dE             d eps       ncg     rms          rms(c)
DAV:   1    -0.290285575312E+04   -0.42626E-04   -0.48747E-02  5760   0.557E-02    0.891E-02
DAV:   2    -0.290285577985E+04   -0.26738E-04   -0.47095E-04  6144   0.900E-03    0.313E-02
DAV:   3    -0.290285577601E+04    0.38400E-05   -0.89717E-06  6048   0.174E-03
  22 F= -.29379777E+04 E0= -.29379777E+04  d E =0.267386E-03  mag=    -0.0000
