       N       E                     dE             d eps       ncg     rms          rms(c)
DAV:   1     0.188454696415E+05    0.18845E+05   -0.75755E+05  5952   0.102E+03
DAV:   2     0.322713127699E+03   -0.18523E+05   -0.17742E+05  8064   0.271E+02
DAV:   3    -0.297949059397E+04   -0.33022E+04   -0.32821E+04  7104   0.121E+02
DAV:   4    -0.306700259159E+04   -0.87512E+02   -0.87148E+02  7296   0.230E+01
DAV:   5    -0.306876707090E+04   -0.17645E+01   -0.17609E+01  7392   0.304E+00    0.190E+02
DAV:   6    -0.148122589710E+04    0.15875E+04   -0.29828E+03  6912   0.431E+01    0.889E+01
DAV:   7    -0.161859225858E+04   -0.13737E+03   -0.26016E+02  7488   0.124E+01    0.560E+01
DAV:   8    -0.165262766331E+04   -0.34035E+02   -0.70551E+01  7104   0.517E+00    0.445E+01
DAV:   9    -0.178718270172E+04   -0.13456E+03   -0.34279E+01  7296   0.534E+00    0.359E+01
DAV:  10    -0.200595870529E+04   -0.21878E+03   -0.53061E+01  7200   0.546E+00    0.296E+01
DAV:  11    -0.223792317318E+04   -0.23196E+03   -0.87241E+01  6720   0.656E+00    0.245E+01
DAV:  12    -0.261899863318E+04   -0.38108E+03   -0.28505E+02  6912   0.112E+01    0.163E+01
DAV:  13    -0.281235466945E+04   -0.19336E+03   -0.17114E+02  6720   0.746E+00    0.112E+01
DAV:  14    -0.285765535187E+04   -0.45301E+02   -0.23372E+01  7008   0.306E+00    0.905E+00
DAV:  15    -0.287732683326E+04   -0.19671E+02   -0.55789E+00  7008   0.179E+00    0.724E+00
DAV:  16    -0.288777362335E+04   -0.10447E+02   -0.25311E+00  7104   0.127E+00    0.582E+00
DAV:  17    -0.289417477168E+04   -0.64011E+01   -0.16471E+00  6720   0.984E-01    0.460E+00
DAV:  18    -0.289882862632E+04   -0.46539E+01   -0.13217E+00  6624   0.843E-01    0.333E+00
DAV:  19    -0.290304712193E+04   -0.42185E+01   -0.96213E-01  6624   0.655E-01    0.198E+00
DAV:  20    -0.290299601024E+04    0.51112E-01   -0.30131E-01  6720   0.433E-01    0.119E+00
DAV:  21    -0.290444533811E+04   -0.14493E+01   -0.63935E-02  6816   0.310E-01    0.764E-01
DAV:  22    -0.290686464081E+04   -0.24193E+01   -0.63806E-02  6720   0.286E-01    0.420E-01
DAV:  23    -0.290807655539E+04   -0.12119E+01   -0.23459E-02  7008   0.167E-01    0.296E-01
DAV:  24    -0.290863296570E+04   -0.55641E+00   -0.11467E-02  6816   0.119E-01    0.173E-01
DAV:  25    -0.290901878267E+04   -0.38582E+00   -0.70790E-03  7104   0.935E-02    0.890E-02
DAV:  26    -0.290913073573E+04   -0.11195E+00   -0.26925E-03  7296   0.622E-02    0.515E-02
DAV:  27    -0.290915859127E+04   -0.27856E-01   -0.88018E-04  7104   0.356E-02    0.341E-02
DAV:  28    -0.290916806694E+04   -0.94757E-02   -0.29849E-04  7200   0.205E-02    0.195E-02
DAV:  29    -0.290917297856E+04   -0.49116E-02   -0.17515E-04  6624   0.159E-02    0.112E-02
DAV:  30    -0.290917426749E+04   -0.12889E-02   -0.44804E-05  6432   0.819E-03    0.916E-03
DAV:  31    -0.290917577301E+04   -0.15055E-02   -0.16029E-05  6048   0.482E-03    0.631E-03
DAV:  32    -0.290917713317E+04   -0.13602E-02   -0.12541E-05  5952   0.382E-03    0.472E-03
DAV:  33    -0.290917772055E+04   -0.58738E-03   -0.61797E-06  5760   0.337E-03    0.359E-03
DAV:  34    -0.290917814712E+04   -0.42657E-03   -0.34861E-06  5472   0.268E-03    0.292E-03
DAV:  35    -0.290917826873E+04   -0.12161E-03    0.10496E-06  5088   0.139E-03    0.279E-03
DAV:  36    -0.290917835439E+04   -0.85659E-04    0.18249E-06  5184   0.106E-03    0.246E-03
DAV:  37    -0.290917838803E+04   -0.33643E-04    0.22982E-06  4992   0.740E-04    0.237E-03
DAV:  38    -0.290917841423E+04   -0.26196E-04    0.25180E-06  4992   0.548E-04    0.230E-03
DAV:  39    -0.290917842276E+04   -0.85367E-05    0.27385E-06  5088   0.277E-04
   1 F= -.29443601E+04 E0= -.29443601E+04  d E =-.294436E+04  mag=    -0.0000
       N       E                     dE             d eps       ncg     rms          rms(c)
DAV:   1    -0.290917824626E+04    0.16797E-03   -0.80208E-03  6528   0.292E-02    0.873E-02
DAV:   2    -0.290917823957E+04    0.66902E-05   -0.70864E-05  6912   0.400E-03
   2 F= -.29443600E+04 E0= -.29443600E+04  d E =0.155649E-03  mag=    -0.0000
       N       E                     dE             d eps       ncg     rms          rms(c)
DAV:   1    -0.290917836640E+04   -0.12014E-03   -0.16444E-02  6144   0.412E-02    0.126E-01
DAV:   2    -0.290917835223E+04    0.14169E-04   -0.16508E-04  6720   0.528E-03    0.254E-02
DAV:   3    -0.290917834884E+04    0.33931E-05   -0.16714E-05  5760   0.184E-03
   3 F= -.29443601E+04 E0= -.29443601E+04  d E =-.104160E-03  mag=    -0.0000
       N       E                     dE             d eps       ncg     rms          rms(c)
DAV:   1    -0.290917844366E+04   -0.91429E-04   -0.15735E-02  6144   0.398E-02    0.823E-02
DAV:   2    -0.290917844087E+04    0.27932E-05   -0.10237E-04  6720   0.410E-03    0.233E-02
DAV:   3    -0.290917844039E+04    0.47585E-06   -0.85687E-06  6144   0.161E-03
   4 F= -.29443601E+04 E0= -.29443601E+04  d E =-.122300E-04  mag=    -0.0000
       N       E                     dE             d eps       ncg     rms          rms(c)
DAV:   1    -0.290917845143E+04   -0.10568E-04   -0.15515E-02  6144   0.365E-02    0.725E-02
DAV:   2    -0.290917845374E+04   -0.23103E-05   -0.13450E-04  6336   0.343E-03    0.217E-02
DAV:   3    -0.290917845245E+04    0.12920E-05   -0.36706E-06  5760   0.130E-03
   5 F= -.29443601E+04 E0= -.29443601E+04  d E =-.778057E-04  mag=    -0.0000
       N       E                     dE             d eps       ncg     rms          rms(c)
DAV:   1    -0.290917825208E+04    0.20167E-03   -0.16221E-02  5568   0.258E-02    0.155E-01
DAV:   2    -0.290917824582E+04    0.62542E-05   -0.23921E-04  5760   0.385E-03    0.297E-02
DAV:   3    -0.290917824097E+04    0.48545E-05   -0.19007E-05  5760   0.191E-03
   6 F= -.29443599E+04 E0= -.29443599E+04  d E =0.214945E-03  mag=    -0.0000
       N       E                     dE             d eps       ncg     rms          rms(c)
DAV:   1    -0.290917841847E+04   -0.17265E-03   -0.16347E-02  5568   0.270E-02    0.173E-01
DAV:   2    -0.290917841020E+04    0.82702E-05   -0.28346E-04  5664   0.393E-03    0.297E-02
DAV:   3    -0.290917840359E+04    0.66134E-05   -0.21003E-05  5568   0.193E-03
   7 F= -.29443600E+04 E0= -.29443600E+04  d E =-.969210E-04  mag=    -0.0000
       N       E                     dE             d eps       ncg     rms          rms(c)
DAV:   1    -0.290917836120E+04    0.49005E-04   -0.15765E-02  5760   0.325E-02    0.891E-02
DAV:   2    -0.290917836293E+04   -0.17295E-05   -0.13980E-04  5952   0.310E-03    0.233E-02
DAV:   3    -0.290917836097E+04    0.19592E-05   -0.57656E-06  5760   0.103E-03
   8 F= -.29443600E+04 E0= -.29443600E+04  d E =-.775837E-05  mag=    -0.0000
       N       E                     dE             d eps       ncg     rms          rms(c)
DAV:   1    -0.290917838735E+04   -0.24420E-04   -0.15531E-02  5760   0.313E-02    0.504E-02
DAV:   2    -0.290917838810E+04   -0.75111E-06   -0.63262E-05  5952   0.223E-03
   9 F= -.29443600E+04 E0= -.29443600E+04  d E =0.172006E-04  mag=    -0.0000
       N       E                     dE             d eps       ncg     rms          rms(c)
DAV:   1    -0.290917831152E+04    0.75832E-04   -0.15602E-02  5760   0.314E-02    0.487E-02
DAV:   2    -0.290917831367E+04   -0.21575E-05   -0.61093E-05  6144   0.264E-03
  10 F= -.29443600E+04 E0= -.29443600E+04  d E =0.433627E-04  mag=    -0.0000
       N       E                     dE             d eps       ncg     rms          rms(c)
DAV:   1    -0.290917848031E+04   -0.16879E-03   -0.15492E-02  6144   0.367E-02    0.763E-02
DAV:   2    -0.290917848252E+04   -0.22088E-05   -0.10358E-04  6144   0.303E-03    0.202E-02
DAV:   3    -0.290917848133E+04    0.11828E-05   -0.34221E-06  5760   0.847E-04
  11 F= -.29443601E+04 E0= -.29443601E+04  d E =-.130548E-03  mag=    -0.0000
       N       E                     dE             d eps       ncg     rms          rms(c)
DAV:   1    -0.290917838694E+04    0.95580E-04   -0.15361E-02  6144   0.360E-02    0.638E-02
DAV:   2    -0.290917838931E+04   -0.23780E-05   -0.79445E-05  6144   0.275E-03
  12 F= -.29443601E+04 E0= -.29443601E+04  d E =-.149810E-05  mag=    -0.0000
       N       E                     dE             d eps       ncg     rms          rms(c)
DAV:   1    -0.290917821773E+04    0.16921E-03   -0.15518E-02  6144   0.364E-02    0.852E-02
DAV:   2    -0.290917821611E+04    0.16207E-05   -0.10766E-04  6336   0.394E-03    0.226E-02
DAV:   3    -0.290917821479E+04    0.13158E-05   -0.53539E-06  5760   0.142E-03
  13 F= -.29443599E+04 E0= -.29443599E+04  d E =0.258274E-03  mag=    -0.0000
       N       E                     dE             d eps       ncg     rms          rms(c)
DAV:   1    -0.290917818527E+04    0.30833E-04   -0.77244E-02  6144   0.766E-02    0.143E-01
DAV:   2    -0.290917816773E+04    0.17547E-04   -0.58401E-04  5952   0.855E-03    0.582E-02
DAV:   3    -0.290917815755E+04    0.10175E-04   -0.41219E-05  5760   0.300E-03    0.335E-02
DAV:   4    -0.290917815558E+04    0.19734E-05   -0.18157E-05  5760   0.227E-03
  14 F= -.29443598E+04 E0= -.29443598E+04  d E =0.173063E-04  mag=    -0.0000
       N       E                     dE             d eps       ncg     rms          rms(c)
DAV:   1    -0.290917824397E+04   -0.86419E-04   -0.15340E-01  5760   0.908E-02    0.141E-01
DAV:   2    -0.290917819054E+04    0.53434E-04   -0.70065E-04  5952   0.883E-03    0.791E-02
DAV:   3    -0.290917816159E+04    0.28944E-04   -0.55022E-05  5760   0.273E-03    0.400E-02
DAV:   4    -0.290917815527E+04    0.63262E-05   -0.25622E-05  5568   0.207E-03
  15 F= -.29443598E+04 E0= -.29443598E+04  d E =0.262038E-04  mag=    -0.0000
       N       E                     dE             d eps       ncg     rms          rms(c)
DAV:   1    -0.290917851758E+04   -0.35599E-03   -0.14454E-01  5760   0.931E-02    0.136E-01
DAV:   2    -0.290917848327E+04    0.34313E-04   -0.68602E-04  6144   0.889E-03    0.746E-02
DAV:   3    -0.290917846132E+04    0.21944E-04   -0.51078E-05  5760   0.268E-03    0.388E-02
DAV:   4    -0.290917845728E+04    0.40481E-05   -0.14981E-05  5760   0.161E-03
  16 F= -.29443598E+04 E0= -.29443598E+04  d E =0.408334E-04  mag=    -0.0000
       N       E                     dE             d eps       ncg     rms          rms(c)
DAV:   1    -0.290917817802E+04    0.28331E-03   -0.10149E-01  6144   0.845E-02    0.139E-01
DAV:   2    -0.290917814067E+04    0.37349E-04   -0.79199E-04  6528   0.129E-02    0.852E-02
DAV:   3    -0.290917812681E+04    0.13858E-04   -0.86842E-05  5952   0.422E-03    0.431E-02
DAV:   4    -0.290917812136E+04    0.54478E-05   -0.29160E-05  5760   0.292E-03
  17 F= -.29443599E+04 E0= -.29443599E+04  d E =-.145967E-03  mag=    -0.0000
       N       E                     dE             d eps       ncg     rms          rms(c)
DAV:   1    -0.290917818678E+04   -0.59965E-04   -0.47964E-02  6144   0.680E-02    0.143E-01
DAV:   2    -0.290917819074E+04   -0.39604E-05   -0.54146E-04  6720   0.113E-02    0.352E-02
DAV:   3    -0.290917818512E+04    0.56220E-05   -0.25068E-05  6336   0.240E-03
  18 F= -.29443600E+04 E0= -.29443600E+04  d E =-.535672E-04  mag=    -0.0000
       N       E                     dE             d eps       ncg     rms          rms(c)
DAV:   1    -0.290917856988E+04   -0.37915E-03   -0.50645E-02  6144   0.613E-02    0.774E-02
DAV:   2    -0.290917860172E+04   -0.31837E-04   -0.52170E-04  6528   0.996E-03    0.320E-02
DAV:   3    -0.290917859873E+04    0.29946E-05   -0.95410E-06  5952   0.153E-03
  19 F= -.29443600E+04 E0= -.29443600E+04  d E =-.694902E-04  mag=    -0.0000
       N       E                     dE             d eps       ncg     rms          rms(c)
DAV:   1    -0.290917829592E+04    0.30580E-03   -0.50572E-02  6144   0.552E-02    0.624E-02
DAV:   2    -0.290917836112E+04   -0.65198E-04   -0.91771E-04  6528   0.105E-02    0.485E-02
DAV:   3    -0.290917835628E+04    0.48418E-05   -0.18081E-05  5760   0.199E-03
  20 F= -.29443601E+04 E0= -.29443601E+04  d E =-.540948E-04  mag=    -0.0000
       N       E                     dE             d eps       ncg     rms          rms(c)
DAV:   1    -0.290917817327E+04    0.18785E-03   -0.49227E-02  5568   0.464E-02    0.142E-01
DAV:   2    -0.290917823322E+04   -0.59957E-04   -0.95853E-04  5952   0.809E-03    0.378E-02
DAV:   3    -0.290917822675E+04    0.64728E-05   -0.26437E-05  5760   0.189E-03
  21 F= -.29443599E+04 E0= -.29443599E+04  d E =0.200273E-03  mag=    -0.0000
       N       E                     dE             d eps       ncg     rms          rms(c)
DAV:   1    -0.290917846016E+04   -0.22694E-03   -0.47834E-02  5568   0.416E-02    0.133E-01
DAV:   2    -0.290917846031E+04   -0.15186E-06   -0.96876E-04  5760   0.113E-02    0.831E-02
DAV:   3    -0.290917844078E+04    0.19531E-04   -0.87460E-05  5760   0.422E-03    0.362E-02
DAV:   4    -0.290917844176E+04   -0.97643E-06   -0.25941E-05  5760   0.252E-03
  22 F= -.29443599E+04 E0= -.29443599E+04  d E =0.130036E-04  mag=    -0.0000
