       N       E                     dE             d eps       ncg     rms          rms(c)
DAV:   1     0.191672457510E+05    0.19167E+05   -0.82360E+05  6272   0.108E+03
DAV:   2     0.206050884345E+03   -0.18961E+05   -0.18193E+05  7968   0.282E+02
DAV:   3    -0.311047908797E+04   -0.33165E+04   -0.32959E+04  7056   0.124E+02
DAV:   4    -0.320896112735E+04   -0.98482E+02   -0.98070E+02  7168   0.242E+01
DAV:   5    -0.321124441661E+04   -0.22833E+01   -0.22798E+01  7632   0.336E+00    0.200E+02
DAV:   6    -0.159841977931E+04    0.16128E+04   -0.31574E+03  6784   0.447E+01    0.921E+01
DAV:   7    -0.172849516012E+04   -0.13008E+03   -0.31926E+02  7264   0.157E+01    0.667E+01
DAV:   8    -0.173707322670E+04   -0.85781E+01   -0.92966E+01  7408   0.676E+00    0.485E+01
DAV:   9    -0.184653381660E+04   -0.10946E+03   -0.65479E+01  7504   0.779E+00    0.435E+01
DAV:  10    -0.196416482756E+04   -0.11763E+03   -0.46995E+01  7424   0.685E+00    0.345E+01
DAV:  11    -0.214173449669E+04   -0.17757E+03   -0.49811E+01  7248   0.569E+00    0.309E+01
DAV:  12    -0.227451064863E+04   -0.13278E+03   -0.37909E+01  7200   0.481E+00    0.271E+01
DAV:  13    -0.254359103255E+04   -0.26908E+03   -0.13294E+02  7040   0.866E+00    0.223E+01
DAV:  14    -0.279929221095E+04   -0.25570E+03   -0.17716E+02  6896   0.880E+00    0.160E+01
DAV:  15    -0.291643916016E+04   -0.11715E+03   -0.77872E+01  7008   0.542E+00    0.122E+01
DAV:  16    -0.297431066764E+04   -0.57872E+02   -0.31926E+01  7152   0.363E+00    0.104E+01
DAV:  17    -0.299615797635E+04   -0.21847E+02   -0.77147E+00  6960   0.200E+00    0.822E+00
DAV:  18    -0.300720046546E+04   -0.11042E+02   -0.27554E+00  7024   0.124E+00    0.700E+00
DAV:  19    -0.301410812080E+04   -0.69077E+01   -0.14468E+00  6848   0.931E-01    0.598E+00
DAV:  20    -0.302054981114E+04   -0.64417E+01   -0.15583E+00  6864   0.925E-01    0.468E+00
DAV:  21    -0.302501107111E+04   -0.44613E+01   -0.13830E+00  6864   0.789E-01    0.377E+00
DAV:  22    -0.302782184594E+04   -0.28108E+01   -0.75831E-01  6912   0.598E-01    0.309E+00
DAV:  23    -0.303024852049E+04   -0.24267E+01   -0.51857E-01  6720   0.500E-01    0.199E+00
DAV:  24    -0.303134577979E+04   -0.10973E+01   -0.17723E-01  6688   0.333E-01    0.124E+00
DAV:  25    -0.303243298384E+04   -0.10872E+01   -0.54201E-02  6960   0.237E-01    0.922E-01
DAV:  26    -0.303363889935E+04   -0.12059E+01   -0.24485E-02  6928   0.157E-01    0.601E-01
DAV:  27    -0.303488183417E+04   -0.12429E+01   -0.16256E-02  6928   0.118E-01    0.398E-01
DAV:  28    -0.303618124708E+04   -0.12994E+01   -0.21212E-02  7008   0.131E-01    0.264E-01
DAV:  29    -0.303666082086E+04   -0.47957E+00   -0.62388E-03  7360   0.724E-02    0.184E-01
DAV:  30    -0.303692522980E+04   -0.26441E+00   -0.26266E-03  7184   0.444E-02    0.123E-01
DAV:  31    -0.303712150144E+04   -0.19627E+00   -0.32452E-03  7136   0.460E-02    0.638E-02
DAV:  32    -0.303715565643E+04   -0.34155E-01   -0.68518E-04  7200   0.257E-02    0.417E-02
DAV:  33    -0.303716546597E+04   -0.98095E-02   -0.17211E-04  7200   0.124E-02    0.302E-02
DAV:  34    -0.303717393740E+04   -0.84714E-02   -0.10471E-04  6448   0.903E-03    0.203E-02
DAV:  35    -0.303717853445E+04   -0.45970E-02   -0.67562E-05  6448   0.720E-03    0.124E-02
DAV:  36    -0.303718147711E+04   -0.29427E-02   -0.26265E-05  5920   0.420E-03    0.958E-03
DAV:  37    -0.303718348968E+04   -0.20126E-02   -0.11862E-05  5408   0.289E-03    0.671E-03
DAV:  38    -0.303718510454E+04   -0.16149E-02   -0.11454E-05  5344   0.275E-03    0.461E-03
DAV:  39    -0.303718616224E+04   -0.10577E-02   -0.73333E-06  5168   0.223E-03    0.323E-03
DAV:  40    -0.303718652051E+04   -0.35827E-03   -0.31220E-06  5072   0.151E-03    0.221E-03
DAV:  41    -0.303718663601E+04   -0.11550E-03   -0.12021E-06  5088   0.909E-04    0.157E-03
DAV:  42    -0.303718673886E+04   -0.10285E-03   -0.92777E-07  5024   0.787E-04    0.111E-03
DAV:  43    -0.303718680155E+04   -0.62686E-04   -0.74165E-07  5040   0.714E-04    0.727E-04
DAV:  44    -0.303718681872E+04   -0.17170E-04   -0.31390E-07  5040   0.455E-04    0.514E-04
DAV:  45    -0.303718682896E+04   -0.10241E-04   -0.18043E-07  5008   0.323E-04    0.333E-04
DAV:  46    -0.303718683453E+04   -0.55779E-05   -0.94053E-08  5040   0.265E-04
   1 F= -.30776892E+04 E0= -.30776892E+04  d E =-.307769E+04  mag=    -0.0000
       N       E                     dE             d eps       ncg     rms          rms(c)
DAV:   1    -0.303684907139E+04    0.33776E+00   -0.28854E+02  6208   0.121E+01    0.835E+00
DAV:   2    -0.303771580913E+04   -0.86674E+00   -0.10717E+01  7168   0.231E+00    0.483E+00
DAV:   3    -0.303763292367E+04    0.82885E-01   -0.28146E-01  7168   0.551E-01    0.283E+00
DAV:   4    -0.303762652572E+04    0.63980E-02   -0.16034E-01  7168   0.454E-01    0.271E+00
DAV:   5    -0.303757806461E+04    0.48461E-01   -0.14739E-01  7312   0.411E-01    0.954E-01
DAV:   6    -0.303757200738E+04    0.60572E-02   -0.46054E-02  7200   0.223E-01    0.487E-01
DAV:   7    -0.303757038240E+04    0.16250E-02   -0.93842E-03  7136   0.109E-01    0.370E-01
DAV:   8    -0.303756983917E+04    0.54323E-03   -0.16153E-03  7120   0.480E-02    0.241E-01
DAV:   9    -0.303756960366E+04    0.23552E-03   -0.78299E-04  7168   0.449E-02    0.142E-01
DAV:  10    -0.303756956100E+04    0.42651E-04   -0.62861E-04  7104   0.365E-02    0.575E-02
DAV:  11    -0.303756966038E+04   -0.99370E-04   -0.30483E-04  7104   0.221E-02    0.429E-02
DAV:  12    -0.303756972316E+04   -0.62788E-04   -0.44329E-05  6736   0.101E-02    0.304E-02
DAV:  13    -0.303756981274E+04   -0.89575E-04   -0.13005E-05  5216   0.737E-03    0.238E-02
DAV:  14    -0.303756999734E+04   -0.18460E-03   -0.35400E-05  6000   0.140E-02    0.114E-02
DAV:  15    -0.303757010560E+04   -0.10826E-03   -0.28655E-05  6304   0.116E-02    0.993E-03
DAV:  16    -0.303757015267E+04   -0.47067E-04   -0.28283E-05  6432   0.575E-03    0.675E-03
DAV:  17    -0.303757020001E+04   -0.47343E-04   -0.17238E-06  4896   0.289E-03    0.405E-03
DAV:  18    -0.303757027504E+04   -0.75023E-04   -0.29667E-06  4944   0.354E-03    0.281E-03
DAV:  19    -0.303757033208E+04   -0.57046E-04   -0.35196E-06  4928   0.270E-03    0.206E-03
DAV:  20    -0.303757034644E+04   -0.14354E-04   -0.15012E-06  4960   0.116E-03    0.233E-03
DAV:  21    -0.303757036266E+04   -0.16220E-04   -0.36318E-07  4848   0.621E-04    0.142E-03
DAV:  22    -0.303757038066E+04   -0.18006E-04   -0.33836E-07  4864   0.453E-04    0.110E-03
DAV:  23    -0.303757039317E+04   -0.12507E-04   -0.17913E-07  4896   0.369E-04    0.722E-04
DAV:  24    -0.303757040265E+04   -0.94798E-05   -0.13050E-07  4896   0.382E-04
   2 F= -.30781010E+04 E0= -.30781010E+04  d E =-.411805E+00  mag=    -0.0000
       N       E                     dE             d eps       ncg     rms          rms(c)
DAV:   1    -0.303773253923E+04   -0.16215E+00   -0.45608E+01  5824   0.504E+00    0.248E+00
DAV:   2    -0.303784139583E+04   -0.10886E+00   -0.14127E+00  7104   0.851E-01    0.176E+00
DAV:   3    -0.303782950611E+04    0.11890E-01   -0.38702E-02  7264   0.203E-01    0.101E+00
DAV:   4    -0.303782735120E+04    0.21549E-02   -0.27148E-02  7104   0.182E-01    0.916E-01
DAV:   5    -0.303782142932E+04    0.59219E-02   -0.20646E-02  7168   0.158E-01    0.337E-01
DAV:   6    -0.303782047662E+04    0.95271E-03   -0.68704E-03  7296   0.865E-02    0.204E-01
DAV:   7    -0.303782021507E+04    0.26155E-03   -0.17577E-03  7136   0.440E-02    0.151E-01
DAV:   8    -0.303782010623E+04    0.10884E-03   -0.29453E-04  7088   0.197E-02    0.916E-02
DAV:   9    -0.303782009949E+04    0.67349E-05   -0.19191E-04  6880   0.187E-02    0.684E-02
DAV:  10    -0.303782008333E+04    0.16162E-04   -0.18080E-04  6896   0.175E-02    0.280E-02
DAV:  11    -0.303782010477E+04   -0.21445E-04   -0.83023E-05  7120   0.964E-03    0.180E-02
DAV:  12    -0.303782012240E+04   -0.17623E-04   -0.77016E-06  5008   0.432E-03    0.126E-02
DAV:  13    -0.303782014557E+04   -0.23172E-04   -0.25301E-06  4880   0.293E-03    0.944E-03
DAV:  14    -0.303782018820E+04   -0.42633E-04   -0.36624E-06  4800   0.473E-03    0.460E-03
DAV:  15    -0.303782022162E+04   -0.33417E-04   -0.47639E-06  4928   0.543E-03    0.383E-03
DAV:  16    -0.303782023147E+04   -0.98519E-05   -0.55171E-06  4992   0.214E-03
   3 F= -.30783397E+04 E0= -.30783397E+04  d E =-.650523E+00  mag=    -0.0000
       N       E                     dE             d eps       ncg     rms          rms(c)
DAV:   1    -0.303794161106E+04   -0.12139E+00   -0.15119E+02  5824   0.938E+00    0.590E+00
DAV:   2    -0.303834008628E+04   -0.39848E+00   -0.50982E+00  7200   0.170E+00    0.387E+00
DAV:   3    -0.303830484754E+04    0.35239E-01   -0.18350E-01  7200   0.424E-01    0.209E+00
DAV:   4    -0.303830319966E+04    0.16479E-02   -0.75379E-02  7072   0.317E-01    0.212E+00
DAV:   5    -0.303828199351E+04    0.21206E-01   -0.83488E-02  7168   0.290E-01    0.803E-01
DAV:   6    -0.303827724988E+04    0.47436E-02   -0.24985E-02  7200   0.175E-01    0.347E-01
DAV:   7    -0.303827645782E+04    0.79206E-03   -0.73739E-03  7200   0.899E-02    0.279E-01
DAV:   8    -0.303827612331E+04    0.33452E-03   -0.10366E-03  7104   0.345E-02    0.184E-01
DAV:   9    -0.303827587596E+04    0.24735E-03   -0.47728E-04  7424   0.368E-02    0.119E-01
DAV:  10    -0.303827572143E+04    0.15453E-03   -0.61753E-04  7232   0.346E-02    0.597E-02
DAV:  11    -0.303827569598E+04    0.25447E-04   -0.30640E-04  7136   0.222E-02    0.347E-02
DAV:  12    -0.303827570066E+04   -0.46766E-05   -0.54020E-05  6944   0.112E-02
   4 F= -.30788201E+04 E0= -.30788201E+04  d E =-.480434E+00  mag=    -0.0000
       N       E                     dE             d eps       ncg     rms          rms(c)
DAV:   1    -0.303829647894E+04   -0.20783E-01   -0.54364E+00  5824   0.178E+00    0.906E-01
DAV:   2    -0.303831043600E+04   -0.13957E-01   -0.18049E-01  7104   0.318E-01    0.693E-01
DAV:   3    -0.303830929096E+04    0.11450E-02   -0.64951E-03  7200   0.779E-02    0.358E-01
DAV:   4    -0.303830913653E+04    0.15442E-03   -0.24430E-03  6976   0.594E-02    0.349E-01
DAV:   5    -0.303830861629E+04    0.52024E-03   -0.23890E-03  7104   0.514E-02    0.127E-01
DAV:   6    -0.303830851883E+04    0.97462E-04   -0.72397E-04  7104   0.282E-02    0.668E-02
DAV:   7    -0.303830850506E+04    0.13771E-04   -0.19287E-04  7040   0.140E-02    0.511E-02
DAV:   8    -0.303830850421E+04    0.85274E-06   -0.27777E-05  6272   0.543E-03
   5 F= -.30788483E+04 E0= -.30788483E+04  d E =-.508568E+00  mag=    -0.0000
       N       E                     dE             d eps       ncg     rms          rms(c)
DAV:   1    -0.303839201995E+04   -0.83515E-01   -0.10567E+02  5824   0.772E+00    0.400E+00
DAV:   2    -0.303867813204E+04   -0.28611E+00   -0.35275E+00  7072   0.135E+00    0.256E+00
DAV:   3    -0.303865436433E+04    0.23768E-01   -0.10902E-01  7200   0.325E-01    0.145E+00
DAV:   4    -0.303865395531E+04    0.40903E-03   -0.60448E-02  7008   0.235E-01    0.150E+00
DAV:   5    -0.303863996657E+04    0.13989E-01   -0.60087E-02  7040   0.210E-01    0.641E-01
DAV:   6    -0.303863669725E+04    0.32693E-02   -0.17935E-02  7104   0.134E-01    0.271E-01
DAV:   7    -0.303863622365E+04    0.47360E-03   -0.44761E-03  7232   0.786E-02    0.196E-01
DAV:   8    -0.303863603441E+04    0.18925E-03   -0.81240E-04  7104   0.329E-02    0.137E-01
DAV:   9    -0.303863593442E+04    0.99989E-04   -0.25060E-04  6976   0.224E-02    0.868E-02
DAV:  10    -0.303863589181E+04    0.42608E-04   -0.21240E-04  6784   0.285E-02    0.454E-02
DAV:  11    -0.303863591436E+04   -0.22552E-04   -0.17332E-04  7168   0.160E-02    0.278E-02
DAV:  12    -0.303863594137E+04   -0.27009E-04   -0.25877E-05  6016   0.979E-03    0.183E-02
DAV:  13    -0.303863597702E+04   -0.35646E-04   -0.69073E-06  5088   0.729E-03    0.120E-02
DAV:  14    -0.303863603631E+04   -0.59296E-04   -0.67909E-06  4960   0.909E-03    0.670E-03
DAV:  15    -0.303863607986E+04   -0.43550E-04   -0.12706E-05  5216   0.772E-03    0.478E-03
DAV:  16    -0.303863609554E+04   -0.15672E-04   -0.11521E-05  5056   0.340E-03    0.489E-03
DAV:  17    -0.303863611667E+04   -0.21139E-04   -0.12315E-06  4896   0.247E-03    0.300E-03
DAV:  18    -0.303863615425E+04   -0.37574E-04   -0.21058E-06  4928   0.349E-03    0.159E-03
DAV:  19    -0.303863616733E+04   -0.13077E-04   -0.22579E-06  4992   0.162E-03    0.186E-03
DAV:  20    -0.303863616967E+04   -0.23452E-05   -0.48471E-07  5056   0.664E-04
   6 F= -.30791845E+04 E0= -.30791845E+04  d E =-.336237E+00  mag=    -0.0000
       N       E                     dE             d eps       ncg     rms          rms(c)
DAV:   1    -0.303864585938E+04   -0.96921E-02   -0.29177E+00  5824   0.128E+00    0.588E-01
DAV:   2    -0.303865338094E+04   -0.75216E-02   -0.94652E-02  7168   0.224E-01    0.406E-01
DAV:   3    -0.303865275924E+04    0.62170E-03   -0.29900E-03  7072   0.534E-02    0.221E-01
DAV:   4    -0.303865265685E+04    0.10240E-03   -0.13720E-03  7072   0.380E-02    0.220E-01
DAV:   5    -0.303865239706E+04    0.25978E-03   -0.13594E-03  7072   0.337E-02    0.943E-02
DAV:   6    -0.303865231628E+04    0.80785E-04   -0.49770E-04  7072   0.218E-02    0.471E-02
DAV:   7    -0.303865229919E+04    0.17092E-04   -0.11685E-04  7168   0.123E-02    0.314E-02
DAV:   8    -0.303865229440E+04    0.47857E-05   -0.17595E-05  5952   0.507E-03
   7 F= -.30791992E+04 E0= -.30791992E+04  d E =-.350978E+00  mag=    -0.0000
       N       E                     dE             d eps       ncg     rms          rms(c)
DAV:   1    -0.303874755973E+04   -0.95261E-01   -0.40229E+01  5824   0.478E+00    0.225E+00
DAV:   2    -0.303884826827E+04   -0.10071E+00   -0.12367E+00  7136   0.797E-01    0.148E+00
DAV:   3    -0.303884054010E+04    0.77282E-02   -0.45782E-02  7040   0.191E-01    0.833E-01
DAV:   4    -0.303884350735E+04   -0.29672E-02   -0.49071E-02  7008   0.174E-01    0.101E+00
DAV:   5    -0.303883332781E+04    0.10180E-01   -0.33805E-02  7008   0.145E-01    0.317E-01
DAV:   6    -0.303883292548E+04    0.40233E-03   -0.56398E-03  7040   0.664E-02    0.153E-01
DAV:   7    -0.303883271324E+04    0.21224E-03   -0.99313E-04  7104   0.335E-02    0.105E-01
DAV:   8    -0.303883267168E+04    0.41564E-04   -0.17890E-04  6992   0.134E-02    0.736E-02
DAV:   9    -0.303883264007E+04    0.31605E-04   -0.10633E-04  6688   0.106E-02    0.428E-02
DAV:  10    -0.303883262745E+04    0.12621E-04   -0.74226E-05  6656   0.983E-03    0.177E-02
DAV:  11    -0.303883263229E+04   -0.48403E-05   -0.26146E-05  6240   0.566E-03
   8 F= -.30793752E+04 E0= -.30793752E+04  d E =-.175928E+00  mag=    -0.0000
       N       E                     dE             d eps       ncg     rms          rms(c)
DAV:   1    -0.303883436613E+04   -0.17387E-02   -0.93419E-01  5888   0.723E-01    0.338E-01
DAV:   2    -0.303883661557E+04   -0.22494E-02   -0.27895E-02  7136   0.119E-01    0.214E-01
DAV:   3    -0.303883643493E+04    0.18063E-03   -0.96609E-04  7120   0.282E-02    0.119E-01
DAV:   4    -0.303883650468E+04   -0.69740E-04   -0.10924E-03  7040   0.263E-02    0.148E-01
DAV:   5    -0.303883627883E+04    0.22584E-03   -0.72885E-04  6752   0.219E-02    0.441E-02
DAV:   6    -0.303883627449E+04    0.43418E-05   -0.12260E-04  7008   0.101E-02    0.226E-02
DAV:   7    -0.303883627323E+04    0.12635E-05   -0.21041E-05  5984   0.512E-03
   9 F= -.30793781E+04 E0= -.30793781E+04  d E =-.178888E+00  mag=    -0.0000
       N       E                     dE             d eps       ncg     rms          rms(c)
DAV:   1    -0.303891890415E+04   -0.82630E-01   -0.30034E+01  5824   0.414E+00    0.184E+00
DAV:   2    -0.303898957297E+04   -0.70669E-01   -0.87081E-01  7104   0.687E-01    0.135E+00
DAV:   3    -0.303898435240E+04    0.52206E-02   -0.31725E-02  7104   0.160E-01    0.751E-01
DAV:   4    -0.303898707891E+04   -0.27265E-02   -0.30299E-02  6944   0.145E-01    0.890E-01
DAV:   5    -0.303898011350E+04    0.69654E-02   -0.24679E-02  6944   0.123E-01    0.343E-01
DAV:   6    -0.303897945742E+04    0.65609E-03   -0.41847E-03  7008   0.601E-02    0.124E-01
DAV:   7    -0.303897934233E+04    0.11509E-03   -0.76080E-04  7120   0.305E-02    0.975E-02
DAV:   8    -0.303897931607E+04    0.26258E-04   -0.14207E-04  6944   0.119E-02    0.617E-02
DAV:   9    -0.303897929714E+04    0.18932E-04   -0.75069E-05  6368   0.905E-03    0.338E-02
DAV:  10    -0.303897929317E+04    0.39701E-05   -0.49369E-05  6560   0.839E-03
  10 F= -.30795162E+04 E0= -.30795162E+04  d E =-.138110E+00  mag=    -0.0000
       N       E                     dE             d eps       ncg     rms          rms(c)
DAV:   1    -0.303898407172E+04   -0.47746E-02   -0.39372E+00  5824   0.150E+00    0.657E-01
DAV:   2    -0.303899319576E+04   -0.91240E-02   -0.11290E-01  7072   0.248E-01    0.474E-01
DAV:   3    -0.303899251689E+04    0.67887E-03   -0.39558E-03  6976   0.574E-02    0.260E-01
DAV:   4    -0.303899283938E+04   -0.32250E-03   -0.37852E-03  6912   0.527E-02    0.312E-01
DAV:   5    -0.303899196707E+04    0.87231E-03   -0.30398E-03  6816   0.445E-02    0.118E-01
DAV:   6    -0.303899188825E+04    0.78819E-04   -0.52403E-04  7040   0.217E-02    0.435E-02
DAV:   7    -0.303899187860E+04    0.96524E-05   -0.95961E-05  7120   0.111E-02
  11 F= -.30795270E+04 E0= -.30795270E+04  d E =-.148914E+00  mag=    -0.0000
       N       E                     dE             d eps       ncg     rms          rms(c)
DAV:   1    -0.303903903674E+04   -0.47148E-01   -0.23556E+01  5824   0.369E+00    0.162E+00
DAV:   2    -0.303909334849E+04   -0.54312E-01   -0.68401E-01  7136   0.604E-01    0.813E-01
DAV:   3    -0.303908990637E+04    0.34421E-02   -0.20216E-02  7232   0.129E-01    0.574E-01
DAV:   4    -0.303908965588E+04    0.25049E-03   -0.10314E-02  7008   0.908E-02    0.502E-01
DAV:   5    -0.303908743195E+04    0.22239E-02   -0.92601E-03  6944   0.847E-02    0.189E-01
DAV:   6    -0.303908720344E+04    0.22851E-03   -0.20924E-03  7104   0.442E-02    0.100E-01
DAV:   7    -0.303908717334E+04    0.30100E-04   -0.67370E-04  7136   0.252E-02    0.766E-02
DAV:   8    -0.303908713599E+04    0.37354E-04   -0.14551E-04  6944   0.117E-02    0.424E-02
DAV:   9    -0.303908712916E+04    0.68255E-05   -0.44627E-05  6272   0.692E-03
  12 F= -.30796190E+04 E0= -.30796190E+04  d E =-.919945E-01  mag=    -0.0000
       N       E                     dE             d eps       ncg     rms          rms(c)
DAV:   1    -0.303908801029E+04   -0.87430E-03   -0.35885E-01  5888   0.455E-01    0.198E-01
DAV:   2    -0.303908884456E+04   -0.83427E-03   -0.10434E-02  7200   0.748E-02    0.994E-02
DAV:   3    -0.303908879409E+04    0.50468E-04   -0.32554E-04  7040   0.165E-02    0.706E-02
DAV:   4    -0.303908878819E+04    0.59043E-05   -0.16169E-04  6816   0.113E-02    0.603E-02
DAV:   5    -0.303908876153E+04    0.26655E-04   -0.14000E-04  6752   0.111E-02    0.226E-02
DAV:   6    -0.303908876274E+04   -0.12108E-05   -0.33802E-05  6304   0.609E-03
  13 F= -.30796203E+04 E0= -.30796203E+04  d E =-.932285E-01  mag=    -0.0000
       N       E                     dE             d eps       ncg     rms          rms(c)
DAV:   1    -0.303912576058E+04   -0.36999E-01   -0.22227E+01  5824   0.358E+00    0.158E+00
DAV:   2    -0.303917840656E+04   -0.52646E-01   -0.63401E-01  7040   0.574E-01    0.976E-01
DAV:   3    -0.303917469559E+04    0.37110E-02   -0.16998E-02  7168   0.126E-01    0.506E-01
DAV:   4    -0.303917385564E+04    0.83995E-03   -0.63589E-03  7008   0.882E-02    0.532E-01
DAV:   5    -0.303917227776E+04    0.15779E-02   -0.66879E-03  7072   0.791E-02    0.214E-01
DAV:   6    -0.303917197234E+04    0.30542E-03   -0.19171E-03  7136   0.424E-02    0.930E-02
DAV:   7    -0.303917191443E+04    0.57912E-04   -0.36446E-04  7104   0.216E-02    0.749E-02
DAV:   8    -0.303917190065E+04    0.13778E-04   -0.10875E-04  6784   0.103E-02    0.481E-02
DAV:   9    -0.303917189253E+04    0.81211E-05   -0.59283E-05  6176   0.742E-03
  14 F= -.30797027E+04 E0= -.30797027E+04  d E =-.823831E-01  mag=    -0.0000
       N       E                     dE             d eps       ncg     rms          rms(c)
DAV:   1    -0.303917278727E+04   -0.88662E-03   -0.42953E+00  5824   0.157E+00    0.671E-01
DAV:   2    -0.303918291985E+04   -0.10133E-01   -0.12230E-01  7008   0.254E-01    0.432E-01
DAV:   3    -0.303918220754E+04    0.71231E-03   -0.33383E-03  7104   0.555E-02    0.221E-01
DAV:   4    -0.303918204861E+04    0.15892E-03   -0.12844E-03  7072   0.394E-02    0.237E-01
DAV:   5    -0.303918172809E+04    0.32052E-03   -0.13342E-03  7072   0.357E-02    0.916E-02
DAV:   6    -0.303918167740E+04    0.50686E-04   -0.36804E-04  7168   0.193E-02    0.409E-02
DAV:   7    -0.303918167102E+04    0.63840E-05   -0.72138E-05  7008   0.975E-03
  15 F= -.30797121E+04 E0= -.30797121E+04  d E =-.918267E-01  mag=    -0.0000
       N       E                     dE             d eps       ncg     rms          rms(c)
DAV:   1    -0.303918664964E+04   -0.49722E-02   -0.27392E+01  5824   0.411E+00    0.173E+00
DAV:   2    -0.303925384557E+04   -0.67196E-01   -0.80158E-01  7008   0.667E-01    0.117E+00
DAV:   3    -0.303924883221E+04    0.50134E-02   -0.19024E-02  7232   0.140E-01    0.564E-01
DAV:   4    -0.303924778672E+04    0.10455E-02   -0.84090E-03  6944   0.105E-01    0.636E-01
DAV:   5    -0.303924574207E+04    0.20447E-02   -0.80242E-03  7136   0.940E-02    0.189E-01
DAV:   6    -0.303924555816E+04    0.18391E-03   -0.21554E-03  7104   0.444E-02    0.107E-01
DAV:   7    -0.303924549916E+04    0.58992E-04   -0.36926E-04  7040   0.205E-02    0.849E-02
DAV:   8    -0.303924547339E+04    0.25773E-04   -0.64522E-05  6560   0.877E-03    0.488E-02
DAV:   9    -0.303924546341E+04    0.99778E-05   -0.55431E-05  6432   0.892E-03
  16 F= -.30797758E+04 E0= -.30797758E+04  d E =-.637017E-01  mag=    -0.0000
       N       E                     dE             d eps       ncg     rms          rms(c)
DAV:   1    -0.303924550098E+04   -0.27585E-04   -0.67591E-02  5952   0.206E-01    0.834E-02
DAV:   2    -0.303924568002E+04   -0.17904E-03   -0.20665E-03  7136   0.342E-02    0.607E-02
DAV:   3    -0.303924566945E+04    0.10563E-04   -0.62220E-05  6688   0.804E-03    0.345E-02
DAV:   4    -0.303924567190E+04   -0.24437E-05   -0.40229E-05  6144   0.612E-03    0.349E-02
DAV:   5    -0.303924566903E+04    0.28653E-05   -0.40470E-05  6144   0.680E-03
  17 F= -.30797760E+04 E0= -.30797760E+04  d E =-.639023E-01  mag=    -0.0000
       N       E                     dE             d eps       ncg     rms          rms(c)
DAV:   1    -0.303925729793E+04   -0.11626E-01   -0.19411E+01  5824   0.343E+00    0.136E+00
DAV:   2    -0.303930409257E+04   -0.46795E-01   -0.54945E-01  6976   0.543E-01    0.855E-01
DAV:   3    -0.303930123841E+04    0.28542E-02   -0.11500E-02  7232   0.105E-01    0.471E-01
DAV:   4    -0.303930048003E+04    0.75837E-03   -0.51707E-03  7008   0.790E-02    0.456E-01
DAV:   5    -0.303929949498E+04    0.98506E-03   -0.44687E-03  7008   0.682E-02    0.129E-01
DAV:   6    -0.303929944036E+04    0.54614E-04   -0.12606E-03  7040   0.340E-02    0.917E-02
DAV:   7    -0.303929940466E+04    0.35699E-04   -0.27338E-04  7136   0.170E-02    0.686E-02
DAV:   8    -0.303929938966E+04    0.15002E-04   -0.45656E-05  6464   0.733E-03    0.395E-02
DAV:   9    -0.303929938658E+04    0.30852E-05   -0.40894E-05  6208   0.643E-03
  18 F= -.30798285E+04 E0= -.30798285E+04  d E =-.525390E-01  mag=    -0.0000
       N       E                     dE             d eps       ncg     rms          rms(c)
DAV:   1    -0.303929953214E+04   -0.14247E-03   -0.96207E-01  5824   0.767E-01    0.294E-01
DAV:   2    -0.303930187943E+04   -0.23473E-02   -0.27492E-02  6976   0.122E-01    0.189E-01
DAV:   3    -0.303930173954E+04    0.13990E-03   -0.57346E-04  7232   0.236E-02    0.108E-01
DAV:   4    -0.303930170790E+04    0.31636E-04   -0.27112E-04  7008   0.179E-02    0.101E-01
DAV:   5    -0.303930166537E+04    0.42528E-04   -0.25148E-04  7008   0.162E-02    0.362E-02
DAV:   6    -0.303930166076E+04    0.46117E-05   -0.81259E-05  6912   0.856E-03
  19 F= -.30798306E+04 E0= -.30798306E+04  d E =-.545515E-01  mag=    -0.0000
       N       E                     dE             d eps       ncg     rms          rms(c)
DAV:   1    -0.303931474626E+04   -0.13081E-01   -0.14217E+01  5824   0.299E+00    0.119E+00
DAV:   2    -0.303934992745E+04   -0.35181E-01   -0.41849E-01  7008   0.484E-01    0.687E-01
DAV:   3    -0.303934778140E+04    0.21461E-02   -0.10498E-02  7232   0.998E-02    0.410E-01
DAV:   4    -0.303934731948E+04    0.46192E-03   -0.43247E-03  7008   0.699E-02    0.376E-01
DAV:   5    -0.303934651498E+04    0.80450E-03   -0.50780E-03  7008   0.662E-02    0.189E-01
DAV:   6    -0.303934621323E+04    0.30175E-03   -0.17397E-03  7072   0.387E-02    0.762E-02
DAV:   7    -0.303934616279E+04    0.50447E-04   -0.31749E-04  7072   0.199E-02    0.589E-02
DAV:   8    -0.303934614928E+04    0.13501E-04   -0.66913E-05  7008   0.919E-03    0.358E-02
DAV:   9    -0.303934614341E+04    0.58732E-05   -0.30909E-05  6176   0.638E-03
  20 F= -.30798708E+04 E0= -.30798708E+04  d E =-.402608E-01  mag=    -0.0000
       N       E                     dE             d eps       ncg     rms          rms(c)
DAV:   1    -0.303934682676E+04   -0.67748E-03   -0.57965E-01  5824   0.602E-01    0.239E-01
DAV:   2    -0.303934827296E+04   -0.14462E-02   -0.17251E-02  7104   0.986E-02    0.142E-01
DAV:   3    -0.303934818007E+04    0.92892E-04   -0.43249E-04  7104   0.206E-02    0.824E-02
DAV:   4    -0.303934815552E+04    0.24552E-04   -0.15394E-04  7008   0.142E-02    0.773E-02
DAV:   5    -0.303934812308E+04    0.32437E-04   -0.17989E-04  6784   0.144E-02    0.335E-02
DAV:   6    -0.303934811569E+04    0.73885E-05   -0.64316E-05  6880   0.852E-03
  21 F= -.30798719E+04 E0= -.30798719E+04  d E =-.413840E-01  mag=    -0.0000
       N       E                     dE             d eps       ncg     rms          rms(c)
DAV:   1    -0.303935806800E+04   -0.99449E-02   -0.14652E+01  5824   0.303E+00    0.117E+00
DAV:   2    -0.303939502463E+04   -0.36957E-01   -0.43204E-01  7072   0.491E-01    0.853E-01
DAV:   3    -0.303939269181E+04    0.23328E-02   -0.12623E-02  7008   0.107E-01    0.458E-01
DAV:   4    -0.303939278786E+04   -0.96053E-04   -0.68111E-03  7040   0.804E-02    0.492E-01
DAV:   5    -0.303939129250E+04    0.14954E-02   -0.73337E-03  7072   0.725E-02    0.247E-01
DAV:   6    -0.303939088499E+04    0.40752E-03   -0.20433E-03  7072   0.412E-02    0.766E-02
DAV:   7    -0.303939084642E+04    0.38562E-04   -0.33242E-04  7200   0.201E-02    0.679E-02
DAV:   8    -0.303939083603E+04    0.10396E-04   -0.66476E-05  6912   0.856E-03    0.408E-02
DAV:   9    -0.303939083021E+04    0.58165E-05   -0.37573E-05  6240   0.674E-03
  22 F= -.30799079E+04 E0= -.30799079E+04  d E =-.359317E-01  mag=    -0.0000
       N       E                     dE             d eps       ncg     rms          rms(c)
DAV:   1    -0.303939191870E+04   -0.10827E-02   -0.95273E-01  5824   0.773E-01    0.298E-01
DAV:   2    -0.303939431607E+04   -0.23974E-02   -0.28121E-02  7040   0.126E-01    0.220E-01
DAV:   3    -0.303939415520E+04    0.16088E-03   -0.79012E-04  7072   0.272E-02    0.116E-01
DAV:   4    -0.303939415993E+04   -0.47334E-05   -0.40278E-04  6976   0.207E-02    0.127E-01
DAV:   5    -0.303939406948E+04    0.90454E-04   -0.45035E-04  6976   0.190E-02    0.613E-02
DAV:   6    -0.303939404471E+04    0.24767E-04   -0.13444E-04  7072   0.110E-02    0.202E-02
DAV:   7    -0.303939404397E+04    0.74250E-06   -0.23665E-05  6208   0.550E-03
  23 F= -.30799094E+04 E0= -.30799094E+04  d E =-.374192E-01  mag=    -0.0000
       N       E                     dE             d eps       ncg     rms          rms(c)
DAV:   1    -0.303939892057E+04   -0.48759E-02   -0.14547E+01  5824   0.306E+00    0.120E+00
DAV:   2    -0.303943517858E+04   -0.36258E-01   -0.42152E-01  7008   0.492E-01    0.794E-01
DAV:   3    -0.303943280965E+04    0.23689E-02   -0.11989E-02  7104   0.105E-01    0.427E-01
DAV:   4    -0.303943287288E+04   -0.63232E-04   -0.75746E-03  7040   0.847E-02    0.469E-01
DAV:   5    -0.303943127164E+04    0.16012E-02   -0.70030E-03  7072   0.727E-02    0.217E-01
DAV:   6    -0.303943096991E+04    0.30173E-03   -0.18414E-03  7072   0.395E-02    0.682E-02
DAV:   7    -0.303943093744E+04    0.32472E-04   -0.25924E-04  7104   0.181E-02    0.625E-02
DAV:   8    -0.303943091984E+04    0.17600E-04   -0.54888E-05  6496   0.830E-03    0.365E-02
DAV:   9    -0.303943091247E+04    0.73677E-05   -0.33325E-05  6240   0.632E-03
  24 F= -.30799393E+04 E0= -.30799393E+04  d E =-.299068E-01  mag=    -0.0000
       N       E                     dE             d eps       ncg     rms          rms(c)
DAV:   1    -0.303943141692E+04   -0.49708E-03   -0.94911E-02  5952   0.247E-01    0.983E-02
DAV:   2    -0.303943165691E+04   -0.23999E-03   -0.27979E-03  7168   0.406E-02    0.655E-02
DAV:   3    -0.303943164011E+04    0.16797E-04   -0.77978E-05  6656   0.898E-03    0.348E-02
DAV:   4    -0.303943163999E+04    0.12305E-06   -0.41470E-05  6144   0.752E-03    0.381E-02
DAV:   5    -0.303943163133E+04    0.86547E-05   -0.41835E-05  6176   0.727E-03
  25 F= -.30799394E+04 E0= -.30799394E+04  d E =-.300655E-01  mag=    -0.0000
       N       E                     dE             d eps       ncg     rms          rms(c)
DAV:   1    -0.303944257715E+04   -0.10937E-01   -0.12946E+01  5824   0.282E+00    0.106E+00
DAV:   2    -0.303947378843E+04   -0.31211E-01   -0.36235E-01  6912   0.443E-01    0.656E-01
DAV:   3    -0.303947215420E+04    0.16342E-02   -0.92062E-03  7168   0.877E-02    0.388E-01
DAV:   4    -0.303947215593E+04   -0.17289E-05   -0.52495E-03  7056   0.650E-02    0.394E-01
DAV:   5    -0.303947116492E+04    0.99101E-03   -0.52909E-03  7040   0.593E-02    0.174E-01
DAV:   6    -0.303947098184E+04    0.18308E-03   -0.13143E-03  7008   0.330E-02    0.683E-02
DAV:   7    -0.303947095931E+04    0.22532E-04   -0.20200E-04  7104   0.162E-02    0.540E-02
DAV:   8    -0.303947095412E+04    0.51876E-05   -0.49837E-05  6592   0.708E-03
  26 F= -.30799719E+04 E0= -.30799719E+04  d E =-.324609E-01  mag=    -0.0000
       N       E                     dE             d eps       ncg     rms          rms(c)
DAV:   1    -0.303947151496E+04   -0.55565E-03   -0.28399E+00  5824   0.132E+00    0.504E-01
DAV:   2    -0.303947840935E+04   -0.68944E-02   -0.80136E-02  6912   0.208E-01    0.305E-01
DAV:   3    -0.303947806191E+04    0.34744E-03   -0.19851E-03  7136   0.409E-02    0.179E-01
DAV:   4    -0.303947807785E+04   -0.15939E-04   -0.11715E-03  7072   0.306E-02    0.185E-01
DAV:   5    -0.303947786199E+04    0.21585E-03   -0.11675E-03  7008   0.280E-02    0.791E-02
DAV:   6    -0.303947782925E+04    0.32744E-04   -0.27619E-04  7072   0.159E-02    0.317E-02
DAV:   7    -0.303947782802E+04    0.12247E-05   -0.47471E-05  6880   0.802E-03
  27 F= -.30799756E+04 E0= -.30799756E+04  d E =-.361278E-01  mag=    -0.0000
       N       E                     dE             d eps       ncg     rms          rms(c)
DAV:   1    -0.303948869640E+04   -0.10867E-01   -0.11318E+01  5824   0.269E+00    0.989E-01
DAV:   2    -0.303951632195E+04   -0.27626E-01   -0.31934E-01  7008   0.423E-01    0.571E-01
DAV:   3    -0.303951487930E+04    0.14426E-02   -0.70547E-03  7168   0.786E-02    0.347E-01
DAV:   4    -0.303951495677E+04   -0.77470E-04   -0.46131E-03  7072   0.608E-02    0.355E-01
DAV:   5    -0.303951404196E+04    0.91481E-03   -0.43102E-03  7072   0.548E-02    0.134E-01
DAV:   6    -0.303951396813E+04    0.73828E-04   -0.96696E-04  7104   0.292E-02    0.624E-02
DAV:   7    -0.303951395076E+04    0.17370E-04   -0.15584E-04  7136   0.145E-02    0.462E-02
DAV:   8    -0.303951394481E+04    0.59548E-05   -0.27538E-05  6304   0.557E-03
  28 F= -.30800049E+04 E0= -.30800049E+04  d E =-.293951E-01  mag=    -0.0000
       N       E                     dE             d eps       ncg     rms          rms(c)
DAV:   1    -0.303951486017E+04   -0.90941E-03   -0.29628E+00  5824   0.138E+00    0.509E-01
DAV:   2    -0.303952211129E+04   -0.72511E-02   -0.83882E-02  7040   0.217E-01    0.291E-01
DAV:   3    -0.303952173106E+04    0.38023E-03   -0.18125E-03  7200   0.402E-02    0.176E-01
DAV:   4    -0.303952176074E+04   -0.29679E-04   -0.11714E-03  7040   0.312E-02    0.181E-01
DAV:   5    -0.303952152207E+04    0.23866E-03   -0.10936E-03  7072   0.282E-02    0.680E-02
DAV:   6    -0.303952150335E+04    0.18722E-04   -0.25280E-04  7072   0.153E-02    0.317E-02
DAV:   7    -0.303952150031E+04    0.30375E-05   -0.43377E-05  6912   0.771E-03
  29 F= -.30800091E+04 E0= -.30800091E+04  d E =-.335158E-01  mag=    -0.0000
       N       E                     dE             d eps       ncg     rms          rms(c)
DAV:   1    -0.303952996412E+04   -0.84608E-02   -0.11315E+01  5824   0.270E+00    0.101E+00
DAV:   2    -0.303955807038E+04   -0.28106E-01   -0.32319E-01  7008   0.429E-01    0.683E-01
DAV:   3    -0.303955661115E+04    0.14592E-02   -0.80133E-03  7168   0.862E-02    0.367E-01
DAV:   4    -0.303955676255E+04   -0.15141E-03   -0.49343E-03  7040   0.676E-02    0.410E-01
DAV:   5    -0.303955576910E+04    0.99345E-03   -0.49834E-03  7136   0.601E-02    0.178E-01
DAV:   6    -0.303955556945E+04    0.19965E-03   -0.12650E-03  7104   0.335E-02    0.631E-02
DAV:   7    -0.303955554859E+04    0.20858E-04   -0.21067E-04  7104   0.161E-02    0.537E-02
DAV:   8    -0.303955554154E+04    0.70500E-05   -0.33962E-05  6400   0.619E-03
  30 F= -.30800367E+04 E0= -.30800367E+04  d E =-.276569E-01  mag=    -0.0000
       N       E                     dE             d eps       ncg     rms          rms(c)
DAV:   1    -0.303955677005E+04   -0.12215E-02   -0.12729E+00  5824   0.907E-01    0.342E-01
DAV:   2    -0.303955995263E+04   -0.31826E-02   -0.36724E-02  7040   0.145E-01    0.230E-01
DAV:   3    -0.303955979568E+04    0.15696E-03   -0.93388E-04  7168   0.300E-02    0.125E-01
DAV:   4    -0.303955982511E+04   -0.29432E-04   -0.58810E-04  7008   0.235E-02    0.140E-01
DAV:   5    -0.303955970299E+04    0.12212E-03   -0.56992E-04  6976   0.214E-02    0.609E-02
DAV:   6    -0.303955968099E+04    0.21994E-04   -0.14812E-04  6976   0.126E-02    0.215E-02
DAV:   7    -0.303955968027E+04    0.72230E-06   -0.29361E-05  6560   0.610E-03
  31 F= -.30800387E+04 E0= -.30800387E+04  d E =-.296559E-01  mag=    -0.0000
       N       E                     dE             d eps       ncg     rms          rms(c)
DAV:   1    -0.303956867146E+04   -0.89905E-02   -0.95507E+00  5824   0.250E+00    0.882E-01
DAV:   2    -0.303959196266E+04   -0.23291E-01   -0.26756E-01  6976   0.394E-01    0.581E-01
DAV:   3    -0.303959073369E+04    0.12290E-02   -0.67841E-03  7136   0.781E-02    0.321E-01
DAV:   4    -0.303959077018E+04   -0.36496E-04   -0.40319E-03  7040   0.586E-02    0.342E-01
DAV:   5    -0.303959005444E+04    0.71575E-03   -0.38841E-03  7072   0.521E-02    0.156E-01
DAV:   6    -0.303958989881E+04    0.15563E-03   -0.10582E-03  7104   0.289E-02    0.542E-02
DAV:   7    -0.303958988360E+04    0.15213E-04   -0.17326E-04  7136   0.147E-02    0.434E-02
DAV:   8    -0.303958988199E+04    0.16057E-05   -0.34832E-05  6464   0.608E-03
  32 F= -.30800648E+04 E0= -.30800648E+04  d E =-.260476E-01  mag=    -0.0000
       N       E                     dE             d eps       ncg     rms          rms(c)
DAV:   1    -0.303959090307E+04   -0.10195E-02   -0.17720E+00  5824   0.108E+00    0.384E-01
DAV:   2    -0.303959526932E+04   -0.43662E-02   -0.50128E-02  6976   0.170E-01    0.249E-01
DAV:   3    -0.303959505956E+04    0.20976E-03   -0.12500E-03  7072   0.336E-02    0.137E-01
DAV:   4    -0.303959508465E+04   -0.25089E-04   -0.79774E-04  7072   0.257E-02    0.149E-01
DAV:   5    -0.303959494291E+04    0.14174E-03   -0.73575E-04  7008   0.228E-02    0.669E-02
DAV:   6    -0.303959491925E+04    0.23653E-04   -0.18736E-04  7072   0.128E-02    0.229E-02
DAV:   7    -0.303959491942E+04   -0.16723E-06   -0.32368E-05  6368   0.661E-03
  33 F= -.30800680E+04 E0= -.30800680E+04  d E =-.292949E-01  mag=    -0.0000
       N       E                     dE             d eps       ncg     rms          rms(c)
DAV:   1    -0.303960420820E+04   -0.92889E-02   -0.90537E+00  5824   0.243E+00    0.834E-01
DAV:   2    -0.303962583408E+04   -0.21626E-01   -0.24775E-01  7008   0.377E-01    0.455E-01
DAV:   3    -0.303962481288E+04    0.10212E-02   -0.57791E-03  7040   0.719E-02    0.303E-01
DAV:   4    -0.303962462789E+04    0.18499E-03   -0.29507E-03  7040   0.500E-02    0.262E-01
DAV:   5    -0.303962414852E+04    0.47937E-03   -0.27783E-03  7040   0.482E-02    0.119E-01
DAV:   6    -0.303962406988E+04    0.78635E-04   -0.94282E-04  7136   0.274E-02    0.565E-02
DAV:   7    -0.303962404401E+04    0.25869E-04   -0.17344E-04  7168   0.143E-02    0.359E-02
DAV:   8    -0.303962403816E+04    0.58481E-05   -0.26268E-05  6272   0.553E-03
  34 F= -.30800937E+04 E0= -.30800937E+04  d E =-.256479E-01  mag=    -0.0000
       N       E                     dE             d eps       ncg     rms          rms(c)
DAV:   1    -0.303962159777E+04    0.24462E-02   -0.47801E+00  5824   0.177E+00    0.608E-01
DAV:   2    -0.303963297258E+04   -0.11375E-01   -0.13049E-01  6976   0.274E-01    0.331E-01
DAV:   3    -0.303963243218E+04    0.54041E-03   -0.30234E-03  7040   0.525E-02    0.218E-01
DAV:   4    -0.303963234444E+04    0.87741E-04   -0.15936E-03  7040   0.369E-02    0.192E-01
DAV:   5    -0.303963207417E+04    0.27026E-03   -0.14710E-03  6944   0.356E-02    0.869E-02
DAV:   6    -0.303963202889E+04    0.45283E-04   -0.49151E-04  7104   0.207E-02    0.401E-02
DAV:   7    -0.303963201786E+04    0.11032E-04   -0.92317E-05  7104   0.108E-02    0.269E-02
DAV:   8    -0.303963201631E+04    0.15420E-05   -0.13439E-05  5632   0.428E-03
  35 F= -.30800991E+04 E0= -.30800991E+04  d E =-.311046E-01  mag=    -0.0000
       N       E                     dE             d eps       ncg     rms          rms(c)
DAV:   1    -0.303964177142E+04   -0.97536E-02   -0.68403E+00  5824   0.211E+00    0.706E-01
DAV:   2    -0.303965817247E+04   -0.16401E-01   -0.18522E-01  6912   0.322E-01    0.383E-01
DAV:   3    -0.303965754578E+04    0.62669E-03   -0.38412E-03  7104   0.573E-02    0.257E-01
DAV:   4    -0.303965749718E+04    0.48605E-04   -0.19451E-03  6976   0.415E-02    0.226E-01
DAV:   5    -0.303965719970E+04    0.29747E-03   -0.19842E-03  7072   0.391E-02    0.103E-01
DAV:   6    -0.303965715019E+04    0.49515E-04   -0.61766E-04  7040   0.213E-02    0.473E-02
DAV:   7    -0.303965713655E+04    0.13642E-04   -0.96551E-05  7168   0.107E-02    0.316E-02
DAV:   8    -0.303965713471E+04    0.18333E-05   -0.16593E-05  5664   0.404E-03
  36 F= -.30801206E+04 E0= -.30801206E+04  d E =-.215152E-01  mag=    -0.0000
       N       E                     dE             d eps       ncg     rms          rms(c)
DAV:   1    -0.303965584155E+04    0.12950E-02   -0.67234E+00  5824   0.209E+00    0.702E-01
DAV:   2    -0.303967196835E+04   -0.16127E-01   -0.18223E-01  6848   0.320E-01    0.381E-01
DAV:   3    -0.303967135026E+04    0.61809E-03   -0.37869E-03  7136   0.571E-02    0.254E-01
DAV:   4    -0.303967130343E+04    0.46834E-04   -0.19329E-03  6944   0.413E-02    0.224E-01
DAV:   5    -0.303967100027E+04    0.30316E-03   -0.19480E-03  6976   0.388E-02    0.102E-01
DAV:   6    -0.303967094934E+04    0.50929E-04   -0.60487E-04  7040   0.214E-02    0.470E-02
DAV:   7    -0.303967093519E+04    0.14151E-04   -0.97203E-05  7104   0.109E-02    0.316E-02
DAV:   8    -0.303967093310E+04    0.20927E-05   -0.16307E-05  5632   0.409E-03
  37 F= -.30801309E+04 E0= -.30801309E+04  d E =-.317408E-01  mag=    -0.0000
       N       E                     dE             d eps       ncg     rms          rms(c)
DAV:   1    -0.303967052269E+04    0.41250E-03   -0.13671E+00  5824   0.940E-01    0.319E-01
DAV:   2    -0.303967380630E+04   -0.32836E-02   -0.37154E-02  6848   0.144E-01    0.171E-01
DAV:   3    -0.303967368618E+04    0.12012E-03   -0.75953E-04  7040   0.257E-02    0.112E-01
DAV:   4    -0.303967368412E+04    0.20650E-05   -0.40259E-04  6912   0.190E-02    0.102E-01
DAV:   5    -0.303967362341E+04    0.60708E-04   -0.39522E-04  6624   0.176E-02    0.455E-02
DAV:   6    -0.303967361511E+04    0.82965E-05   -0.11794E-04  6848   0.977E-03    0.208E-02
DAV:   7    -0.303967361371E+04    0.14025E-05   -0.18304E-05  5728   0.500E-03
  38 F= -.30801319E+04 E0= -.30801319E+04  d E =-.328106E-01  mag=    -0.0000
       N       E                     dE             d eps       ncg     rms          rms(c)
DAV:   1    -0.303968081740E+04   -0.72023E-02   -0.91151E+00  5824   0.243E+00    0.865E-01
DAV:   2    -0.303970276027E+04   -0.21943E-01   -0.25216E-01  7008   0.378E-01    0.443E-01
DAV:   3    -0.303970174509E+04    0.10152E-02   -0.51162E-03  7232   0.681E-02    0.298E-01
DAV:   4    -0.303970176520E+04   -0.20111E-04   -0.28546E-03  7104   0.510E-02    0.262E-01
DAV:   5    -0.303970126629E+04    0.49890E-03   -0.27673E-03  7072   0.470E-02    0.113E-01
DAV:   6    -0.303970119903E+04    0.67265E-04   -0.80055E-04  7072   0.255E-02    0.587E-02
DAV:   7    -0.303970117455E+04    0.24479E-04   -0.14352E-04  7104   0.132E-02    0.383E-02
DAV:   8    -0.303970116967E+04    0.48755E-05   -0.21308E-05  6240   0.495E-03
  39 F= -.30801543E+04 E0= -.30801543E+04  d E =-.223912E-01  mag=    -0.0000
       N       E                     dE             d eps       ncg     rms          rms(c)
DAV:   1    -0.303970114781E+04    0.26737E-04   -0.26570E+00  5824   0.131E+00    0.471E-01
DAV:   2    -0.303970758439E+04   -0.64366E-02   -0.73940E-02  6976   0.205E-01    0.241E-01
DAV:   3    -0.303970729320E+04    0.29119E-03   -0.14807E-03  7264   0.369E-02    0.159E-01
DAV:   4    -0.303970730098E+04   -0.77774E-05   -0.84629E-04  7104   0.278E-02    0.142E-01
DAV:   5    -0.303970716273E+04    0.13825E-03   -0.81756E-04  7008   0.256E-02    0.621E-02
DAV:   6    -0.303970714112E+04    0.21602E-04   -0.23205E-04  6944   0.142E-02    0.311E-02
DAV:   7    -0.303970713591E+04    0.52185E-05   -0.39066E-05  6720   0.731E-03
  40 F= -.30801575E+04 E0= -.30801575E+04  d E =-.255701E-01  mag=    -0.0000
       N       E                     dE             d eps       ncg     rms          rms(c)
DAV:   1    -0.303971691336E+04   -0.97722E-02   -0.61088E+00  5824   0.200E+00    0.736E-01
DAV:   2    -0.303973165204E+04   -0.14739E-01   -0.16983E-01  6976   0.312E-01    0.405E-01
DAV:   3    -0.303973093180E+04    0.72024E-03   -0.35196E-03  7232   0.587E-02    0.246E-01
DAV:   4    -0.303973085776E+04    0.74037E-04   -0.16011E-03  7072   0.426E-02    0.222E-01
DAV:   5    -0.303973061894E+04    0.23883E-03   -0.16685E-03  7040   0.387E-02    0.102E-01
DAV:   6    -0.303973054737E+04    0.71563E-04   -0.59530E-04  7104   0.222E-02    0.480E-02
DAV:   7    -0.303973052975E+04    0.17629E-04   -0.11207E-04  7040   0.116E-02    0.340E-02
DAV:   8    -0.303973052513E+04    0.46152E-05   -0.19296E-05  5984   0.477E-03
  41 F= -.30801763E+04 E0= -.30801763E+04  d E =-.188348E-01  mag=    -0.0000
       N       E                     dE             d eps       ncg     rms          rms(c)
DAV:   1    -0.303973040179E+04    0.12795E-03   -0.33182E+00  5824   0.147E+00    0.545E-01
DAV:   2    -0.303973839843E+04   -0.79966E-02   -0.92245E-02  7008   0.230E-01    0.297E-01
DAV:   3    -0.303973801237E+04    0.38606E-03   -0.19138E-03  7232   0.433E-02    0.180E-01
DAV:   4    -0.303973799101E+04    0.21357E-04   -0.96130E-04  7104   0.320E-02    0.166E-01
DAV:   5    -0.303973783949E+04    0.15152E-03   -0.99384E-04  7008   0.293E-02    0.790E-02
DAV:   6    -0.303973779157E+04    0.47922E-04   -0.33418E-04  7072   0.172E-02    0.342E-02
DAV:   7    -0.303973778299E+04    0.85823E-05   -0.59840E-05  6912   0.888E-03
  42 F= -.30801802E+04 E0= -.30801802E+04  d E =-.227355E-01  mag=    -0.0000
       N       E                     dE             d eps       ncg     rms          rms(c)
DAV:   1    -0.303974665149E+04   -0.88599E-02   -0.53769E+00  5824   0.188E+00    0.685E-01
DAV:   2    -0.303975961748E+04   -0.12966E-01   -0.14935E-01  6976   0.294E-01    0.399E-01
DAV:   3    -0.303975899837E+04    0.61911E-03   -0.32922E-03  7104   0.567E-02    0.227E-01
DAV:   4    -0.303975890604E+04    0.92330E-04   -0.12833E-03  7072   0.402E-02    0.216E-01
DAV:   5    -0.303975868575E+04    0.22029E-03   -0.13110E-03  7040   0.365E-02    0.803E-02
DAV:   6    -0.303975866302E+04    0.22730E-04   -0.40223E-04  7040   0.195E-02    0.446E-02
DAV:   7    -0.303975864949E+04    0.13532E-04   -0.10252E-04  7040   0.108E-02    0.328E-02
DAV:   8    -0.303975864608E+04    0.34008E-05   -0.20950E-05  5760   0.469E-03
  43 F= -.30801975E+04 E0= -.30801975E+04  d E =-.172150E-01  mag=    -0.0000
       N       E                     dE             d eps       ncg     rms          rms(c)
DAV:   1    -0.303975708211E+04    0.15674E-02   -0.46203E+00  5824   0.174E+00    0.635E-01
DAV:   2    -0.303976822513E+04   -0.11143E-01   -0.12837E-01  7008   0.273E-01    0.370E-01
DAV:   3    -0.303976768998E+04    0.53515E-03   -0.28251E-03  7136   0.528E-02    0.211E-01
DAV:   4    -0.303976760909E+04    0.80892E-04   -0.11183E-03  7008   0.372E-02    0.201E-01
DAV:   5    -0.303976742743E+04    0.18166E-03   -0.11954E-03  6944   0.343E-02    0.852E-02
DAV:   6    -0.303976738468E+04    0.42759E-04   -0.41830E-04  7008   0.194E-02    0.417E-02
DAV:   7    -0.303976737158E+04    0.13091E-04   -0.93011E-05  7008   0.107E-02    0.299E-02
DAV:   8    -0.303976736948E+04    0.21030E-05   -0.17373E-05  5696   0.475E-03
  44 F= -.30802028E+04 E0= -.30802028E+04  d E =-.225569E-01  mag=    -0.0000
       N       E                     dE             d eps       ncg     rms          rms(c)
DAV:   1    -0.303977645168E+04   -0.90801E-02   -0.60367E+00  5824   0.200E+00    0.718E-01
DAV:   2    -0.303979066098E+04   -0.14209E-01   -0.16412E-01  6976   0.310E-01    0.373E-01
DAV:   3    -0.303978995982E+04    0.70117E-03   -0.33114E-03  7168   0.558E-02    0.238E-01
DAV:   4    -0.303978988329E+04    0.76530E-04   -0.15361E-03  6976   0.422E-02    0.206E-01
DAV:   5    -0.303978964124E+04    0.24205E-03   -0.14477E-03  6976   0.383E-02    0.742E-02
DAV:   6    -0.303978963293E+04    0.83011E-05   -0.40617E-04  7072   0.196E-02    0.481E-02
DAV:   7    -0.303978961624E+04    0.16692E-04   -0.12577E-04  7040   0.110E-02    0.328E-02
DAV:   8    -0.303978961197E+04    0.42680E-05   -0.18394E-05  5600   0.423E-03
  45 F= -.30802213E+04 E0= -.30802213E+04  d E =-.185218E-01  mag=    -0.0000
       N       E                     dE             d eps       ncg     rms          rms(c)
DAV:   1    -0.303978931122E+04    0.30503E-03   -0.37416E+00  5824   0.157E+00    0.568E-01
DAV:   2    -0.303979812099E+04   -0.88098E-02   -0.10177E-01  6976   0.244E-01    0.295E-01
DAV:   3    -0.303979768537E+04    0.43562E-03   -0.20669E-03  7200   0.445E-02    0.187E-01
DAV:   4    -0.303979763164E+04    0.53736E-04   -0.95795E-04  6976   0.336E-02    0.162E-01
DAV:   5    -0.303979748462E+04    0.14701E-03   -0.90674E-04  7008   0.308E-02    0.591E-02
DAV:   6    -0.303979747765E+04    0.69702E-05   -0.26575E-04  6976   0.160E-02    0.385E-02
DAV:   7    -0.303979746686E+04    0.10797E-04   -0.78607E-05  6944   0.890E-03    0.259E-02
DAV:   8    -0.303979746479E+04    0.20629E-05   -0.11190E-05  5248   0.354E-03
  46 F= -.30802262E+04 E0= -.30802262E+04  d E =-.234449E-01  mag=    -0.0000
       N       E                     dE             d eps       ncg     rms          rms(c)
DAV:   1    -0.303980455372E+04   -0.70869E-02   -0.77797E+00  5824   0.228E+00    0.826E-01
DAV:   2    -0.303982233225E+04   -0.17779E-01   -0.20747E-01  6976   0.354E-01    0.448E-01
DAV:   3    -0.303982138054E+04    0.95171E-03   -0.43854E-03  7232   0.651E-02    0.275E-01
DAV:   4    -0.303982129726E+04    0.83272E-04   -0.21863E-03  6976   0.504E-02    0.249E-01
DAV:   5    -0.303982097045E+04    0.32681E-03   -0.21320E-03  6976   0.449E-02    0.106E-01
DAV:   6    -0.303982090359E+04    0.66860E-04   -0.71262E-04  7072   0.247E-02    0.569E-02
DAV:   7    -0.303982087341E+04    0.30180E-04   -0.15430E-04  7136   0.128E-02    0.374E-02
DAV:   8    -0.303982086754E+04    0.58768E-05   -0.21862E-05  6016   0.488E-03
  47 F= -.30802451E+04 E0= -.30802451E+04  d E =-.188154E-01  mag=    -0.0000
       N       E                     dE             d eps       ncg     rms          rms(c)
DAV:   1    -0.303982185958E+04   -0.98616E-03   -0.79296E-01  5824   0.728E-01    0.268E-01
DAV:   2    -0.303982368765E+04   -0.18281E-02   -0.21351E-02  6976   0.114E-01    0.142E-01
DAV:   3    -0.303982359573E+04    0.91921E-04   -0.44412E-04  7200   0.212E-02    0.861E-02
DAV:   4    -0.303982358843E+04    0.73056E-05   -0.22289E-04  7040   0.164E-02    0.790E-02
DAV:   5    -0.303982355914E+04    0.29283E-04   -0.22169E-04  6752   0.148E-02    0.355E-02
DAV:   6    -0.303982355080E+04    0.83479E-05   -0.77886E-05  6656   0.874E-03
  48 F= -.30802463E+04 E0= -.30802463E+04  d E =-.200343E-01  mag=     0.0000
       N       E                     dE             d eps       ncg     rms          rms(c)
DAV:   1    -0.303983015830E+04   -0.65992E-02   -0.56558E+00  5824   0.196E+00    0.715E-01
DAV:   2    -0.303984323870E+04   -0.13080E-01   -0.15317E-01  7040   0.308E-01    0.413E-01
DAV:   3    -0.303984255406E+04    0.68464E-03   -0.35809E-03  7104   0.586E-02    0.241E-01
DAV:   4    -0.303984258605E+04   -0.31987E-04   -0.20681E-03  6976   0.455E-02    0.243E-01
DAV:   5    -0.303984224351E+04    0.34254E-03   -0.19885E-03  6944   0.392E-02    0.106E-01
DAV:   6    -0.303984217184E+04    0.71667E-04   -0.55341E-04  7104   0.218E-02    0.455E-02
DAV:   7    -0.303984216036E+04    0.11485E-04   -0.10358E-04  7136   0.115E-02    0.335E-02
DAV:   8    -0.303984215781E+04    0.25543E-05   -0.14870E-05  5728   0.423E-03
  49 F= -.30802604E+04 E0= -.30802604E+04  d E =-.141620E-01  mag=     0.0000
       N       E                     dE             d eps       ncg     rms          rms(c)
DAV:   1    -0.303984332920E+04   -0.11688E-02   -0.74739E-01  5824   0.714E-01    0.263E-01
DAV:   2    -0.303984507543E+04   -0.17462E-02   -0.20418E-02  7040   0.112E-01    0.150E-01
DAV:   3    -0.303984498797E+04    0.87461E-04   -0.47458E-04  7072   0.216E-02    0.866E-02
DAV:   4    -0.303984499400E+04   -0.60325E-05   -0.26613E-04  6944   0.167E-02    0.887E-02
DAV:   5    -0.303984494986E+04    0.44143E-04   -0.25593E-04  6624   0.145E-02    0.387E-02
DAV:   6    -0.303984494071E+04    0.91444E-05   -0.72660E-05  6464   0.849E-03
  50 F= -.30802616E+04 E0= -.30802616E+04  d E =-.153299E-01  mag=    -0.0000
       N       E                     dE             d eps       ncg     rms          rms(c)
DAV:   1    -0.303985246109E+04   -0.75112E-02   -0.56106E+00  5824   0.196E+00    0.707E-01
DAV:   2    -0.303986520640E+04   -0.12745E-01   -0.14871E-01  6912   0.301E-01    0.378E-01
DAV:   3    -0.303986454575E+04    0.66065E-03   -0.33999E-03  7104   0.564E-02    0.235E-01
DAV:   4    -0.303986468264E+04   -0.13689E-03   -0.24618E-03  7008   0.457E-02    0.241E-01
DAV:   5    -0.303986420566E+04    0.47698E-03   -0.20616E-03  6976   0.395E-02    0.830E-02
DAV:   6    -0.303986418014E+04    0.25527E-04   -0.42394E-04  7040   0.195E-02    0.423E-02
DAV:   7    -0.303986417319E+04    0.69499E-05   -0.78731E-05  7168   0.987E-03
  51 F= -.30802759E+04 E0= -.30802759E+04  d E =-.142614E-01  mag=    -0.0000
       N       E                     dE             d eps       ncg     rms          rms(c)
DAV:   1    -0.303986552661E+04   -0.13465E-02   -0.17927E+00  5824   0.111E+00    0.407E-01
DAV:   2    -0.303986962713E+04   -0.41005E-02   -0.47808E-02  6944   0.171E-01    0.208E-01
DAV:   3    -0.303986942203E+04    0.20510E-03   -0.99948E-04  7200   0.311E-02    0.129E-01
DAV:   4    -0.303986946235E+04   -0.40323E-04   -0.69251E-04  7040   0.256E-02    0.129E-01
DAV:   5    -0.303986933636E+04    0.12599E-03   -0.61073E-04  6880   0.220E-02    0.458E-02
DAV:   6    -0.303986932620E+04    0.10164E-04   -0.13499E-04  7008   0.113E-02    0.250E-02
DAV:   7    -0.303986932430E+04    0.18983E-05   -0.26127E-05  6272   0.583E-03
  52 F= -.30802782E+04 E0= -.30802782E+04  d E =-.166025E-01  mag=    -0.0000
       N       E                     dE             d eps       ncg     rms          rms(c)
DAV:   1    -0.303987710048E+04   -0.77743E-02   -0.57862E+00  5824   0.200E+00    0.703E-01
DAV:   2    -0.303988970356E+04   -0.12603E-01   -0.14874E-01  6944   0.306E-01    0.373E-01
DAV:   3    -0.303988890736E+04    0.79620E-03   -0.34088E-03  7200   0.591E-02    0.232E-01
DAV:   4    -0.303988897596E+04   -0.68609E-04   -0.22800E-03  7040   0.467E-02    0.231E-01
DAV:   5    -0.303988855137E+04    0.42459E-03   -0.19915E-03  7040   0.398E-02    0.892E-02
DAV:   6    -0.303988849819E+04    0.53180E-04   -0.46938E-04  7072   0.211E-02    0.449E-02
DAV:   7    -0.303988849122E+04    0.69755E-05   -0.88843E-05  7136   0.111E-02
  53 F= -.30802919E+04 E0= -.30802919E+04  d E =-.136872E-01  mag=    -0.0000
       N       E                     dE             d eps       ncg     rms          rms(c)
DAV:   1    -0.303988989616E+04   -0.13980E-02   -0.80860E-01  5824   0.748E-01    0.270E-01
DAV:   2    -0.303989167802E+04   -0.17819E-02   -0.20981E-02  6976   0.115E-01    0.134E-01
DAV:   3    -0.303989156889E+04    0.10913E-03   -0.42633E-04  7200   0.216E-02    0.831E-02
DAV:   4    -0.303989157604E+04   -0.71574E-05   -0.25973E-04  7072   0.177E-02    0.792E-02
DAV:   5    -0.303989153049E+04    0.45550E-04   -0.22594E-04  6912   0.147E-02    0.303E-02
DAV:   6    -0.303989152426E+04    0.62360E-05   -0.61550E-05  6400   0.807E-03
  54 F= -.30802929E+04 E0= -.30802929E+04  d E =-.146726E-01  mag=    -0.0000
       N       E                     dE             d eps       ncg     rms          rms(c)
DAV:   1    -0.303989847897E+04   -0.69485E-02   -0.48551E+00  5824   0.182E+00    0.615E-01
DAV:   2    -0.303990896066E+04   -0.10482E-01   -0.12209E-01  7008   0.275E-01    0.356E-01
DAV:   3    -0.303990839693E+04    0.56373E-03   -0.26510E-03  7168   0.511E-02    0.208E-01
DAV:   4    -0.303990838397E+04    0.12957E-04   -0.12831E-03  7040   0.379E-02    0.199E-01
DAV:   5    -0.303990819783E+04    0.18614E-03   -0.13017E-03  7072   0.327E-02    0.903E-02
DAV:   6    -0.303990813883E+04    0.59004E-04   -0.42455E-04  6944   0.188E-02    0.438E-02
DAV:   7    -0.303990812802E+04    0.10807E-04   -0.77718E-05  6976   0.102E-02    0.276E-02
DAV:   8    -0.303990812631E+04    0.17157E-05   -0.12614E-05  5536   0.397E-03
  55 F= -.30803040E+04 E0= -.30803040E+04  d E =-.111498E-01  mag=    -0.0000
       N       E                     dE             d eps       ncg     rms          rms(c)
DAV:   1    -0.303990982230E+04   -0.16943E-02   -0.11113E+00  5824   0.871E-01    0.297E-01
DAV:   2    -0.303991223685E+04   -0.24146E-02   -0.28088E-02  6976   0.132E-01    0.170E-01
DAV:   3    -0.303991210994E+04    0.12691E-03   -0.61536E-04  7168   0.247E-02    0.991E-02
DAV:   4    -0.303991211368E+04   -0.37406E-05   -0.32366E-04  7040   0.185E-02    0.969E-02
DAV:   5    -0.303991206399E+04    0.49696E-04   -0.32538E-04  6816   0.161E-02    0.438E-02
DAV:   6    -0.303991205051E+04    0.13479E-04   -0.10000E-04  6464   0.949E-03    0.207E-02
DAV:   7    -0.303991204889E+04    0.16211E-05   -0.17363E-05  5728   0.517E-03
  56 F= -.30803053E+04 E0= -.30803053E+04  d E =-.124651E-01  mag=    -0.0000
       N       E                     dE             d eps       ncg     rms          rms(c)
DAV:   1    -0.303991981713E+04   -0.77666E-02   -0.29096E+00  5824   0.144E+00    0.519E-01
DAV:   2    -0.303992640809E+04   -0.65910E-02   -0.78555E-02  6976   0.226E-01    0.282E-01
DAV:   3    -0.303992594925E+04    0.45884E-03   -0.17727E-03  7168   0.443E-02    0.164E-01
DAV:   4    -0.303992586372E+04    0.85524E-04   -0.81917E-04  7008   0.331E-02    0.148E-01
DAV:   5    -0.303992572194E+04    0.14178E-03   -0.61980E-04  6976   0.280E-02    0.525E-02
DAV:   6    -0.303992571195E+04    0.99871E-05   -0.20181E-04  7104   0.157E-02    0.331E-02
DAV:   7    -0.303992570472E+04    0.72349E-05   -0.53207E-05  6944   0.813E-03
  57 F= -.30803152E+04 E0= -.30803152E+04  d E =-.980552E-02  mag=    -0.0000
       N       E                     dE             d eps       ncg     rms          rms(c)
DAV:   1    -0.303992710544E+04   -0.13935E-02   -0.42631E-01  5888   0.552E-01    0.205E-01
DAV:   2    -0.303992807791E+04   -0.97247E-03   -0.11620E-02  7040   0.867E-02    0.104E-01
DAV:   3    -0.303992801210E+04    0.65813E-04   -0.24674E-04  7200   0.169E-02    0.609E-02
DAV:   4    -0.303992799844E+04    0.13659E-04   -0.11202E-04  7040   0.130E-02    0.531E-02
DAV:   5    -0.303992797814E+04    0.20298E-04   -0.75328E-05  6432   0.110E-02    0.184E-02
DAV:   6    -0.303992797709E+04    0.10523E-05   -0.27123E-05  6080   0.663E-03
  58 F= -.30803160E+04 E0= -.30803160E+04  d E =-.106039E-01  mag=    -0.0000
       N       E                     dE             d eps       ncg     rms          rms(c)
DAV:   1    -0.303993349163E+04   -0.55135E-02   -0.33662E+00  5824   0.156E+00    0.525E-01
DAV:   2    -0.303994115639E+04   -0.76648E-02   -0.90339E-02  6944   0.241E-01    0.288E-01
DAV:   3    -0.303994068302E+04    0.47336E-03   -0.19565E-03  7168   0.455E-02    0.173E-01
DAV:   4    -0.303994062111E+04    0.61913E-04   -0.96264E-04  6976   0.343E-02    0.157E-01
DAV:   5    -0.303994046432E+04    0.15679E-03   -0.73652E-04  6976   0.286E-02    0.523E-02
DAV:   6    -0.303994045897E+04    0.53506E-05   -0.20674E-04  7136   0.154E-02    0.334E-02
DAV:   7    -0.303994045543E+04    0.35401E-05   -0.58232E-05  6912   0.796E-03
  59 F= -.30803253E+04 E0= -.30803253E+04  d E =-.930389E-02  mag=    -0.0000
       N       E                     dE             d eps       ncg     rms          rms(c)
DAV:   1    -0.303994142879E+04   -0.96983E-03   -0.45663E-01  5824   0.573E-01    0.200E-01
DAV:   2    -0.303994248098E+04   -0.10522E-02   -0.12414E-02  6976   0.891E-02    0.103E-01
DAV:   3    -0.303994242106E+04    0.59921E-04   -0.25760E-04  7200   0.168E-02    0.624E-02
DAV:   4    -0.303994241399E+04    0.70691E-05   -0.12415E-04  6944   0.131E-02    0.542E-02
DAV:   5    -0.303994239532E+04    0.18670E-04   -0.86832E-05  6528   0.107E-02    0.179E-02
DAV:   6    -0.303994239550E+04   -0.18167E-06   -0.23549E-05  5984   0.628E-03
  60 F= -.30803260E+04 E0= -.30803260E+04  d E =-.100743E-01  mag=    -0.0000
       N       E                     dE             d eps       ncg     rms          rms(c)
DAV:   1    -0.303994654190E+04   -0.41466E-02   -0.37002E+00  5824   0.164E+00    0.524E-01
DAV:   2    -0.303995473621E+04   -0.81943E-02   -0.95823E-02  6976   0.248E-01    0.279E-01
DAV:   3    -0.303995426266E+04    0.47355E-03   -0.20287E-03  7104   0.458E-02    0.173E-01
DAV:   4    -0.303995418445E+04    0.78214E-04   -0.87112E-04  6976   0.333E-02    0.148E-01
DAV:   5    -0.303995405090E+04    0.13354E-03   -0.66491E-04  6976   0.276E-02    0.542E-02
DAV:   6    -0.303995405214E+04   -0.12344E-05   -0.21363E-04  7072   0.151E-02    0.370E-02
DAV:   7    -0.303995404292E+04    0.92172E-05   -0.65316E-05  6784   0.799E-03
  61 F= -.30803352E+04 E0= -.30803352E+04  d E =-.920626E-02  mag=    -0.0000
       N       E                     dE             d eps       ncg     rms          rms(c)
DAV:   1    -0.303995443214E+04   -0.38000E-03   -0.85623E-01  5824   0.788E-01    0.258E-01
DAV:   2    -0.303995634244E+04   -0.19103E-02   -0.22327E-02  7040   0.119E-01    0.133E-01
DAV:   3    -0.303995623929E+04    0.10315E-03   -0.46736E-04  7072   0.220E-02    0.795E-02
DAV:   4    -0.303995623046E+04    0.88374E-05   -0.24483E-04  6976   0.167E-02    0.741E-02
DAV:   5    -0.303995619600E+04    0.34461E-04   -0.18352E-04  6848   0.136E-02    0.244E-02
DAV:   6    -0.303995619715E+04   -0.11548E-05   -0.55247E-05  6464   0.758E-03
  62 F= -.30803362E+04 E0= -.30803362E+04  d E =-.101846E-01  mag=    -0.0000
       N       E                     dE             d eps       ncg     rms          rms(c)
DAV:   1    -0.303995696955E+04   -0.77355E-03   -0.46981E+00  5824   0.184E+00    0.584E-01
DAV:   2    -0.303996695227E+04   -0.99827E-02   -0.11739E-01  7040   0.275E-01    0.300E-01
DAV:   3    -0.303996629524E+04    0.65703E-03   -0.22495E-03  7232   0.487E-02    0.185E-01
DAV:   4    -0.303996619700E+04    0.98245E-04   -0.12024E-03  7040   0.387E-02    0.158E-01
DAV:   5    -0.303996603782E+04    0.15917E-03   -0.97908E-04  7008   0.318E-02    0.648E-02
DAV:   6    -0.303996602207E+04    0.15752E-04   -0.34094E-04  7072   0.174E-02    0.446E-02
DAV:   7    -0.303996600572E+04    0.16349E-04   -0.76153E-05  6944   0.913E-03    0.256E-02
DAV:   8    -0.303996600345E+04    0.22732E-05   -0.82608E-06  5184   0.349E-03
  63 F= -.30803438E+04 E0= -.30803438E+04  d E =-.759758E-02  mag=    -0.0000
       N       E                     dE             d eps       ncg     rms          rms(c)
DAV:   1    -0.303996620980E+04   -0.20407E-03   -0.54562E-02  5888   0.198E-01    0.672E-02
DAV:   2    -0.303996633118E+04   -0.12138E-03   -0.14088E-03  7168   0.303E-02    0.337E-02
DAV:   3    -0.303996632466E+04    0.65217E-05   -0.31560E-05  6368   0.627E-03    0.215E-02
DAV:   4    -0.303996632365E+04    0.10091E-05   -0.13977E-05  5344   0.444E-03    0.181E-02
DAV:   5    -0.303996632265E+04    0.99785E-06   -0.12033E-05  5056   0.454E-03
  64 F= -.30803439E+04 E0= -.30803439E+04  d E =-.767916E-02  mag=    -0.0000
       N       E                     dE             d eps       ncg     rms          rms(c)
DAV:   1    -0.303996826550E+04   -0.19419E-02   -0.31492E+00  5824   0.150E+00    0.473E-01
DAV:   2    -0.303997493586E+04   -0.66704E-02   -0.78863E-02  7008   0.227E-01    0.249E-01
DAV:   3    -0.303997449013E+04    0.44573E-03   -0.16709E-03  7136   0.413E-02    0.155E-01
DAV:   4    -0.303997446352E+04    0.26611E-04   -0.10321E-03  7072   0.335E-02    0.142E-01
DAV:   5    -0.303997431113E+04    0.15239E-03   -0.92253E-04  7040   0.276E-02    0.571E-02
DAV:   6    -0.303997428687E+04    0.24255E-04   -0.21388E-04  7072   0.146E-02    0.324E-02
DAV:   7    -0.303997428140E+04    0.54737E-05   -0.47601E-05  6976   0.756E-03
  65 F= -.30803508E+04 E0= -.30803508E+04  d E =-.689840E-02  mag=    -0.0000
       N       E                     dE             d eps       ncg     rms          rms(c)
DAV:   1    -0.303997444935E+04   -0.16247E-03   -0.15938E-01  5888   0.338E-01    0.113E-01
DAV:   2    -0.303997479729E+04   -0.34794E-03   -0.40835E-03  7104   0.515E-02    0.527E-02
DAV:   3    -0.303997477656E+04    0.20728E-04   -0.78474E-05  7136   0.959E-03    0.341E-02
DAV:   4    -0.303997477742E+04   -0.85926E-06   -0.49537E-05  6656   0.833E-03    0.285E-02
DAV:   5    -0.303997477052E+04    0.68999E-05   -0.36550E-05  6080   0.643E-03
  66 F= -.30803510E+04 E0= -.30803510E+04  d E =-.714871E-02  mag=    -0.0000
       N       E                     dE             d eps       ncg     rms          rms(c)
DAV:   1    -0.303997548692E+04   -0.70949E-03   -0.29857E+00  5824   0.148E+00    0.454E-01
DAV:   2    -0.303998209633E+04   -0.66094E-02   -0.76867E-02  6976   0.222E-01    0.241E-01
DAV:   3    -0.303998171486E+04    0.38146E-03   -0.15683E-03  7136   0.398E-02    0.152E-01
DAV:   4    -0.303998168282E+04    0.32042E-04   -0.86633E-04  7152   0.307E-02    0.137E-01
DAV:   5    -0.303998156007E+04    0.12276E-03   -0.78348E-04  7008   0.256E-02    0.545E-02
DAV:   6    -0.303998154340E+04    0.16671E-04   -0.20734E-04  6976   0.138E-02    0.327E-02
DAV:   7    -0.303998153767E+04    0.57296E-05   -0.46684E-05  6656   0.758E-03
  67 F= -.30803575E+04 E0= -.30803575E+04  d E =-.644896E-02  mag=    -0.0000
       N       E                     dE             d eps       ncg     rms          rms(c)
DAV:   1    -0.303998142240E+04    0.12100E-03   -0.24437E-01  5824   0.422E-01    0.136E-01
DAV:   2    -0.303998197482E+04   -0.55242E-03   -0.64044E-03  7040   0.639E-02    0.655E-02
DAV:   3    -0.303998194687E+04    0.27947E-04   -0.12118E-04  7168   0.114E-02    0.424E-02
DAV:   4    -0.303998194812E+04   -0.12494E-05   -0.69182E-05  6976   0.930E-03    0.372E-02
DAV:   5    -0.303998193785E+04    0.10275E-04   -0.49993E-05  6208   0.747E-03    0.136E-02
DAV:   6    -0.303998193777E+04    0.83295E-07   -0.11154E-05  5248   0.413E-03
  68 F= -.30803578E+04 E0= -.30803578E+04  d E =-.675729E-02  mag=    -0.0000
       N       E                     dE             d eps       ncg     rms          rms(c)
DAV:   1    -0.303998143659E+04    0.50126E-03   -0.31456E+00  5824   0.153E+00    0.473E-01
DAV:   2    -0.303998851569E+04   -0.70791E-02   -0.82166E-02  6944   0.231E-01    0.236E-01
DAV:   3    -0.303998807813E+04    0.43756E-03   -0.15022E-03  7200   0.395E-02    0.151E-01
DAV:   4    -0.303998795684E+04    0.12129E-03   -0.65431E-04  7072   0.296E-02    0.110E-01
DAV:   5    -0.303998790411E+04    0.52735E-04   -0.40357E-04  7072   0.226E-02    0.401E-02
DAV:   6    -0.303998790033E+04    0.37772E-05   -0.11800E-04  7072   0.125E-02    0.283E-02
DAV:   7    -0.303998789969E+04    0.64186E-06   -0.34316E-05  6432   0.598E-03
  69 F= -.30803639E+04 E0= -.30803639E+04  d E =-.607782E-02  mag=    -0.0000
       N       E                     dE             d eps       ncg     rms          rms(c)
DAV:   1    -0.303998769334E+04    0.20699E-03   -0.22069E-01  5888   0.405E-01    0.132E-01
DAV:   2    -0.303998819780E+04   -0.50446E-03   -0.58601E-03  6976   0.616E-02    0.609E-02
DAV:   3    -0.303998817042E+04    0.27381E-04   -0.11509E-04  7168   0.111E-02    0.396E-02
DAV:   4    -0.303998817206E+04   -0.16448E-05   -0.72446E-05  6816   0.864E-03    0.369E-02
DAV:   5    -0.303998815999E+04    0.12073E-04   -0.58131E-05  6144   0.739E-03    0.142E-02
DAV:   6    -0.303998815943E+04    0.55938E-06   -0.13091E-05  5280   0.422E-03
  70 F= -.30803642E+04 E0= -.30803642E+04  d E =-.636766E-02  mag=    -0.0000
       N       E                     dE             d eps       ncg     rms          rms(c)
DAV:   1    -0.303998630443E+04    0.18556E-02   -0.33318E+00  5824   0.157E+00    0.493E-01
DAV:   2    -0.303999370661E+04   -0.74022E-02   -0.86503E-02  6976   0.238E-01    0.262E-01
DAV:   3    -0.303999322155E+04    0.48506E-03   -0.16824E-03  7200   0.421E-02    0.159E-01
DAV:   4    -0.303999308292E+04    0.13863E-03   -0.66721E-04  7040   0.305E-02    0.125E-01
DAV:   5    -0.303999301333E+04    0.69594E-04   -0.46255E-04  7008   0.249E-02    0.402E-02
DAV:   6    -0.303999301207E+04    0.12565E-05   -0.13542E-04  7104   0.133E-02    0.291E-02
DAV:   7    -0.303999301108E+04    0.99099E-06   -0.33807E-05  6688   0.627E-03
  71 F= -.30803696E+04 E0= -.30803696E+04  d E =-.543097E-02  mag=    -0.0000
       N       E                     dE             d eps       ncg     rms          rms(c)
DAV:   1    -0.303999291857E+04    0.93502E-04   -0.34284E-02  5952   0.159E-01    0.572E-02
DAV:   2    -0.303999299902E+04   -0.80456E-04   -0.93407E-04  7104   0.246E-02    0.256E-02
DAV:   3    -0.303999299605E+04    0.29731E-05   -0.22458E-05  5920   0.514E-03    0.172E-02
DAV:   4    -0.303999299673E+04   -0.67509E-06   -0.15756E-05  5280   0.401E-03    0.162E-02
DAV:   5    -0.303999299527E+04    0.14603E-05   -0.10610E-05  5056   0.400E-03
  72 F= -.30803696E+04 E0= -.30803696E+04  d E =-.547365E-02  mag=     0.0000
       N       E                     dE             d eps       ncg     rms          rms(c)
DAV:   1    -0.303999221019E+04    0.78654E-03   -0.23099E+00  5824   0.131E+00    0.411E-01
DAV:   2    -0.303999716707E+04   -0.49569E-02   -0.58343E-02  7008   0.197E-01    0.231E-01
DAV:   3    -0.303999684286E+04    0.32422E-03   -0.12160E-03  7168   0.352E-02    0.134E-01
DAV:   4    -0.303999675782E+04    0.85030E-04   -0.50583E-04  7008   0.258E-02    0.118E-01
DAV:   5    -0.303999670126E+04    0.56568E-04   -0.47751E-04  7040   0.220E-02    0.501E-02
DAV:   6    -0.303999668332E+04    0.17941E-04   -0.16761E-04  7008   0.122E-02    0.292E-02
DAV:   7    -0.303999667665E+04    0.66640E-05   -0.33447E-05  6176   0.664E-03
  73 F= -.30803741E+04 E0= -.30803741E+04  d E =-.442136E-02  mag=     0.0000
       N       E                     dE             d eps       ncg     rms          rms(c)
DAV:   1    -0.303999654480E+04    0.13851E-03   -0.39809E-02  5888   0.172E-01    0.598E-02
DAV:   2    -0.303999663493E+04   -0.90127E-04   -0.10464E-03  7136   0.261E-02    0.280E-02
DAV:   3    -0.303999663101E+04    0.39143E-05   -0.20560E-05  5760   0.487E-03    0.179E-02
DAV:   4    -0.303999663180E+04   -0.78895E-06   -0.13967E-05  5248   0.403E-03    0.165E-02
DAV:   5    -0.303999663059E+04    0.12164E-05   -0.11723E-05  5152   0.379E-03
  74 F= -.30803741E+04 E0= -.30803741E+04  d E =-.447210E-02  mag=    -0.0000
       N       E                     dE             d eps       ncg     rms          rms(c)
DAV:   1    -0.303999567726E+04    0.95455E-03   -0.21334E+00  5824   0.127E+00    0.393E-01
DAV:   2    -0.304000011116E+04   -0.44339E-02   -0.52484E-02  6976   0.188E-01    0.212E-01
DAV:   3    -0.303999978404E+04    0.32712E-03   -0.11186E-03  7136   0.347E-02    0.127E-01
DAV:   4    -0.303999973917E+04    0.44866E-04   -0.63293E-04  7072   0.270E-02    0.121E-01
DAV:   5    -0.303999963696E+04    0.10221E-03   -0.55311E-04  7040   0.231E-02    0.503E-02
DAV:   6    -0.303999961625E+04    0.20709E-04   -0.16366E-04  7040   0.124E-02    0.270E-02
DAV:   7    -0.303999961166E+04    0.45908E-05   -0.26633E-05  5888   0.629E-03
  75 F= -.30803778E+04 E0= -.30803778E+04  d E =-.372357E-02  mag=     0.0000
       N       E                     dE             d eps       ncg     rms          rms(c)
DAV:   1    -0.303999956510E+04    0.51149E-04   -0.72506E-03  6144   0.739E-02    0.292E-02
DAV:   2    -0.303999958242E+04   -0.17314E-04   -0.19739E-04  7136   0.115E-02    0.124E-02
DAV:   3    -0.303999958259E+04   -0.16927E-06   -0.10300E-05  5216   0.331E-03    0.124E-02
DAV:   4    -0.303999958170E+04    0.88545E-06   -0.42018E-06  4960   0.207E-03    0.600E-03
DAV:   5    -0.303999958287E+04   -0.11636E-05   -0.17020E-06  4736   0.224E-03
  76 F= -.30803778E+04 E0= -.30803778E+04  d E =-.373787E-02  mag=    -0.0000
       N       E                     dE             d eps       ncg     rms          rms(c)
DAV:   1    -0.303999867591E+04    0.90579E-03   -0.19118E+00  5824   0.121E+00    0.358E-01
DAV:   2    -0.304000261020E+04   -0.39343E-02   -0.46872E-02  7040   0.179E-01    0.185E-01
DAV:   3    -0.304000230798E+04    0.30222E-03   -0.91673E-04  7264   0.318E-02    0.116E-01
DAV:   4    -0.304000225710E+04    0.50875E-04   -0.50790E-04  7104   0.257E-02    0.102E-01
DAV:   5    -0.304000218087E+04    0.76229E-04   -0.40447E-04  7040   0.210E-02    0.386E-02
DAV:   6    -0.304000217054E+04    0.10334E-04   -0.11020E-04  7008   0.107E-02    0.246E-02
DAV:   7    -0.304000216711E+04    0.34305E-05   -0.22502E-05  5824   0.537E-03
  77 F= -.30803812E+04 E0= -.30803812E+04  d E =-.332725E-02  mag=     0.0000
       N       E                     dE             d eps       ncg     rms          rms(c)
DAV:   1    -0.304000208687E+04    0.83669E-04   -0.16165E-02  5952   0.111E-01    0.380E-02
DAV:   2    -0.304000212267E+04   -0.35800E-04   -0.41903E-04  7168   0.169E-02    0.166E-02
DAV:   3    -0.304000212123E+04    0.14445E-05   -0.12799E-05  5216   0.405E-03    0.140E-02
DAV:   4    -0.304000212046E+04    0.76916E-06   -0.74183E-06  4960   0.273E-03    0.910E-03
DAV:   5    -0.304000212060E+04   -0.13952E-06   -0.41738E-06  4896   0.315E-03
  78 F= -.30803812E+04 E0= -.30803812E+04  d E =-.334884E-02  mag=    -0.0000
       N       E                     dE             d eps       ncg     rms          rms(c)
DAV:   1    -0.304000198894E+04    0.13152E-03   -0.15232E+00  5824   0.107E+00    0.318E-01
DAV:   2    -0.304000524414E+04   -0.32552E-02   -0.38180E-02  6912   0.160E-01    0.175E-01
DAV:   3    -0.304000504451E+04    0.19962E-03   -0.71642E-04  7232   0.274E-02    0.106E-01
DAV:   4    -0.304000499663E+04    0.47883E-04   -0.38119E-04  7072   0.220E-02    0.897E-02
DAV:   5    -0.304000495515E+04    0.41482E-04   -0.27357E-04  7168   0.169E-02    0.321E-02
DAV:   6    -0.304000494963E+04    0.55152E-05   -0.72219E-05  6624   0.879E-03
  79 F= -.30803846E+04 E0= -.30803846E+04  d E =-.343661E-02  mag=    -0.0000
       N       E                     dE             d eps       ncg     rms          rms(c)
DAV:   1    -0.304000448323E+04    0.47192E-03   -0.25163E-01  5824   0.436E-01    0.137E-01
DAV:   2    -0.304000502840E+04   -0.54517E-03   -0.64271E-03  7008   0.653E-02    0.684E-02
DAV:   3    -0.304000499863E+04    0.29775E-04   -0.12865E-04  7040   0.117E-02    0.445E-02
DAV:   4    -0.304000500544E+04   -0.68190E-05   -0.11188E-04  7040   0.100E-02    0.432E-02
DAV:   5    -0.304000498621E+04    0.19236E-04   -0.81278E-05  6176   0.822E-03    0.136E-02
DAV:   6    -0.304000498567E+04    0.54255E-06   -0.11832E-05  5120   0.417E-03
  80 F= -.30803849E+04 E0= -.30803849E+04  d E =-.371932E-02  mag=     0.0000
       N       E                     dE             d eps       ncg     rms          rms(c)
DAV:   1    -0.304000526053E+04   -0.27432E-03   -0.12309E+00  5824   0.964E-01    0.287E-01
DAV:   2    -0.304000792748E+04   -0.26669E-02   -0.31070E-02  6880   0.143E-01    0.154E-01
DAV:   3    -0.304000776944E+04    0.15804E-03   -0.54116E-04  7136   0.235E-02    0.946E-02
DAV:   4    -0.304000774378E+04    0.25665E-04   -0.32872E-04  7136   0.197E-02    0.805E-02
DAV:   5    -0.304000771460E+04    0.29179E-04   -0.25097E-04  7200   0.149E-02    0.318E-02
DAV:   6    -0.304000770835E+04    0.62530E-05   -0.59192E-05  6208   0.729E-03
  81 F= -.30803881E+04 E0= -.30803881E+04  d E =-.317019E-02  mag=    -0.0000
       N       E                     dE             d eps       ncg     rms          rms(c)
DAV:   1    -0.304000702327E+04    0.69133E-03   -0.50108E-01  5824   0.615E-01    0.188E-01
DAV:   2    -0.304000811471E+04   -0.10914E-02   -0.12761E-02  6944   0.916E-02    0.968E-02
DAV:   3    -0.304000805423E+04    0.60482E-04   -0.22916E-04  7168   0.153E-02    0.607E-02
DAV:   4    -0.304000806146E+04   -0.72354E-05   -0.19225E-04  7104   0.136E-02    0.578E-02
DAV:   5    -0.304000803290E+04    0.28564E-04   -0.14597E-04  7008   0.105E-02    0.199E-02
DAV:   6    -0.304000803064E+04    0.22636E-05   -0.20479E-05  5760   0.486E-03
  82 F= -.30803887E+04 E0= -.30803887E+04  d E =-.377782E-02  mag=     0.0000
       N       E                     dE             d eps       ncg     rms          rms(c)
DAV:   1    -0.304000866606E+04   -0.63316E-03   -0.11553E+00  5824   0.932E-01    0.289E-01
DAV:   2    -0.304001113307E+04   -0.24670E-02   -0.29180E-02  6880   0.139E-01    0.143E-01
DAV:   3    -0.304001096278E+04    0.17030E-03   -0.52316E-04  7136   0.239E-02    0.908E-02
DAV:   4    -0.304001092619E+04    0.36584E-04   -0.33126E-04  7008   0.205E-02    0.690E-02
DAV:   5    -0.304001090341E+04    0.22782E-04   -0.21249E-04  7168   0.146E-02    0.290E-02
DAV:   6    -0.304001089710E+04    0.63125E-05   -0.53132E-05  6304   0.727E-03
  83 F= -.30803920E+04 E0= -.30803920E+04  d E =-.327154E-02  mag=     0.0000
       N       E                     dE             d eps       ncg     rms          rms(c)
DAV:   1    -0.304001042825E+04    0.47516E-03   -0.36383E-01  5824   0.523E-01    0.167E-01
DAV:   2    -0.304001120949E+04   -0.78124E-03   -0.92691E-03  6912   0.783E-02    0.790E-02
DAV:   3    -0.304001115804E+04    0.51451E-04   -0.17449E-04  7008   0.140E-02    0.510E-02
DAV:   4    -0.304001116368E+04   -0.56369E-05   -0.15639E-04  7040   0.125E-02    0.493E-02
DAV:   5    -0.304001113768E+04    0.25999E-04   -0.11032E-04  6640   0.975E-03    0.151E-02
DAV:   6    -0.304001113628E+04    0.14057E-05   -0.15253E-05  5248   0.467E-03
  84 F= -.30803924E+04 E0= -.30803924E+04  d E =-.373802E-02  mag=    -0.0000
       N       E                     dE             d eps       ncg     rms          rms(c)
DAV:   1    -0.304001160549E+04   -0.46781E-03   -0.11166E+00  5824   0.909E-01    0.282E-01
DAV:   2    -0.304001397108E+04   -0.23656E-02   -0.27834E-02  6912   0.135E-01    0.139E-01
DAV:   3    -0.304001382262E+04    0.14846E-03   -0.51541E-04  7104   0.232E-02    0.910E-02
DAV:   4    -0.304001378126E+04    0.41362E-04   -0.25758E-04  7072   0.186E-02    0.612E-02
DAV:   5    -0.304001376929E+04    0.11966E-04   -0.13867E-04  7136   0.129E-02    0.240E-02
DAV:   6    -0.304001376684E+04    0.24494E-05   -0.34420E-05  6240   0.694E-03
  85 F= -.30803955E+04 E0= -.30803955E+04  d E =-.311838E-02  mag=    -0.0000
       N       E                     dE             d eps       ncg     rms          rms(c)
DAV:   1    -0.304001328300E+04    0.48629E-03   -0.30695E-01  5824   0.477E-01    0.152E-01
DAV:   2    -0.304001393791E+04   -0.65491E-03   -0.77189E-03  6912   0.707E-02    0.717E-02
DAV:   3    -0.304001389944E+04    0.38461E-04   -0.14368E-04  7072   0.124E-02    0.468E-02
DAV:   4    -0.304001389926E+04    0.18044E-06   -0.91794E-05  7072   0.107E-02    0.393E-02
DAV:   5    -0.304001388638E+04    0.12888E-04   -0.59980E-05  6624   0.789E-03    0.133E-02
DAV:   6    -0.304001388574E+04    0.64063E-06   -0.97682E-06  5184   0.397E-03
  86 F= -.30803959E+04 E0= -.30803959E+04  d E =-.349301E-02  mag=     0.0000
       N       E                     dE             d eps       ncg     rms          rms(c)
DAV:   1    -0.304001437454E+04   -0.48817E-03   -0.11342E+00  5824   0.919E-01    0.291E-01
DAV:   2    -0.304001682275E+04   -0.24482E-02   -0.28982E-02  7008   0.138E-01    0.147E-01
DAV:   3    -0.304001665856E+04    0.16419E-03   -0.56427E-04  7104   0.240E-02    0.928E-02
DAV:   4    -0.304001660459E+04    0.53967E-04   -0.26570E-04  7072   0.188E-02    0.612E-02
DAV:   5    -0.304001659474E+04    0.98535E-05   -0.14153E-04  7072   0.132E-02    0.242E-02
DAV:   6    -0.304001659165E+04    0.30943E-05   -0.38457E-05  6496   0.732E-03
  87 F= -.30803991E+04 E0= -.30803991E+04  d E =-.316174E-02  mag=     0.0000
       N       E                     dE             d eps       ncg     rms          rms(c)
DAV:   1    -0.304001630481E+04    0.28993E-03   -0.18210E-01  5888   0.368E-01    0.122E-01
DAV:   2    -0.304001670241E+04   -0.39760E-03   -0.47229E-03  7040   0.558E-02    0.582E-02
DAV:   3    -0.304001667781E+04    0.24598E-04   -0.98209E-05  7072   0.103E-02    0.376E-02
DAV:   4    -0.304001668008E+04   -0.22664E-05   -0.61067E-05  6528   0.833E-03    0.360E-02
DAV:   5    -0.304001666697E+04    0.13108E-04   -0.45403E-05  6080   0.722E-03    0.108E-02
DAV:   6    -0.304001666682E+04    0.14732E-06   -0.10040E-05  5216   0.386E-03
  88 F= -.30803993E+04 E0= -.30803993E+04  d E =-.341961E-02  mag=     0.0000
       N       E                     dE             d eps       ncg     rms          rms(c)
DAV:   1    -0.304001672709E+04   -0.60121E-04   -0.13042E+00  5824   0.988E-01    0.302E-01
DAV:   2    -0.304001955805E+04   -0.28310E-02   -0.33099E-02  6912   0.148E-01    0.163E-01
DAV:   3    -0.304001938130E+04    0.17675E-03   -0.63151E-04  7168   0.251E-02    0.101E-01
DAV:   4    -0.304001935310E+04    0.28202E-04   -0.35613E-04  7072   0.200E-02    0.877E-02
DAV:   5    -0.304001931495E+04    0.38146E-04   -0.34037E-04  7104   0.170E-02    0.364E-02
DAV:   6    -0.304001930469E+04    0.10256E-04   -0.85593E-05  6816   0.869E-03    0.191E-02
DAV:   7    -0.304001930328E+04    0.14137E-05   -0.14585E-05  5312   0.462E-03
  89 F= -.30804026E+04 E0= -.30804026E+04  d E =-.326578E-02  mag=    -0.0000
[...]
 323 F= -.30808726E+04 E0= -.30808726E+04  d E =-.116636E-02  mag=    -0.0000
       N       E                     dE             d eps       ncg     rms          rms(c)
DAV:   1    -0.304021583116E+04    0.28241E-03   -0.61403E-02  5824   0.220E-01    0.743E-02
DAV:   2    -0.304021596439E+04   -0.13323E-03   -0.15909E-03  7136   0.333E-02    0.320E-02
DAV:   3    -0.304021595349E+04    0.10901E-04   -0.30265E-05  5888   0.648E-03    0.198E-02
DAV:   4    -0.304021595160E+04    0.18882E-05   -0.22543E-05  5184   0.613E-03    0.168E-02
DAV:   5    -0.304021594976E+04    0.18372E-05   -0.15833E-05  5088   0.444E-03
 324 F= -.30808727E+04 E0= -.30808727E+04  d E =-.124032E-02  mag=    -0.0000
       N       E                     dE             d eps       ncg     rms          rms(c)
DAV:   1    -0.304021578155E+04    0.17005E-03   -0.26699E-01  5824   0.457E-01    0.137E-01
DAV:   2    -0.304021635351E+04   -0.57196E-03   -0.66791E-03  7040   0.678E-02    0.685E-02
DAV:   3    -0.304021631562E+04    0.37891E-04   -0.13580E-04  7136   0.123E-02    0.428E-02
DAV:   4    -0.304021630648E+04    0.91484E-05   -0.59902E-05  7008   0.912E-03    0.340E-02
DAV:   5    -0.304021630083E+04    0.56480E-05   -0.43390E-05  6240   0.756E-03
 325 F= -.30808736E+04 E0= -.30808736E+04  d E =-.893850E-03  mag=    -0.0000
       N       E                     dE             d eps       ncg     rms          rms(c)
DAV:   1    -0.304021604143E+04    0.26505E-03   -0.67887E-02  5824   0.230E-01    0.719E-02
DAV:   2    -0.304021618518E+04   -0.14375E-03   -0.17128E-03  7104   0.345E-02    0.361E-02
DAV:   3    -0.304021617644E+04    0.87417E-05   -0.45031E-05  6560   0.717E-03    0.239E-02
DAV:   4    -0.304021617454E+04    0.19023E-05   -0.20225E-05  5440   0.499E-03    0.198E-02
DAV:   5    -0.304021617214E+04    0.23948E-05   -0.17457E-05  5120   0.494E-03
 326 F= -.30808737E+04 E0= -.30808737E+04  d E =-.103869E-02  mag=    -0.0000
       N       E                     dE             d eps       ncg     rms          rms(c)
DAV:   1    -0.304021630495E+04   -0.13041E-03   -0.15211E-01  5824   0.349E-01    0.119E-01
DAV:   2    -0.304021662185E+04   -0.31690E-03   -0.39363E-03  6976   0.536E-02    0.523E-02
DAV:   3    -0.304021658820E+04    0.33648E-04   -0.98613E-05  7136   0.114E-02    0.325E-02
DAV:   4    -0.304021657906E+04    0.91398E-05   -0.43805E-05  7008   0.829E-03    0.244E-02
DAV:   5    -0.304021657272E+04    0.63434E-05   -0.22469E-05  5584   0.671E-03
 327 F= -.30808746E+04 E0= -.30808746E+04  d E =-.842975E-03  mag=    -0.0000
       N       E                     dE             d eps       ncg     rms          rms(c)
DAV:   1    -0.304021646538E+04    0.11369E-03   -0.14135E-02  6016   0.106E-01    0.390E-02
DAV:   2    -0.304021649409E+04   -0.28716E-04   -0.37095E-04  7168   0.167E-02    0.180E-02
DAV:   3    -0.304021649128E+04    0.28127E-05   -0.15436E-05  5248   0.469E-03    0.139E-02
DAV:   4    -0.304021648939E+04    0.18923E-05   -0.74323E-06  4928   0.320E-03    0.912E-03
DAV:   5    -0.304021648812E+04    0.12629E-05   -0.41112E-06  4896   0.321E-03
 328 F= -.30808746E+04 E0= -.30808746E+04  d E =-.893317E-03  mag=    -0.0000
       N       E                     dE             d eps       ncg     rms          rms(c)
DAV:   1    -0.304021654875E+04   -0.59367E-04   -0.14352E-01  5824   0.339E-01    0.106E-01
DAV:   2    -0.304021684418E+04   -0.29543E-03   -0.35226E-03  7072   0.501E-02    0.485E-02
DAV:   3    -0.304021681748E+04    0.26701E-04   -0.73714E-05  7104   0.955E-03    0.297E-02
DAV:   4    -0.304021681036E+04    0.71212E-05   -0.38004E-05  6528   0.734E-03    0.228E-02
DAV:   5    -0.304021680579E+04    0.45747E-05   -0.20809E-05  5536   0.553E-03
 329 F= -.30808754E+04 E0= -.30808754E+04  d E =-.717598E-03  mag=    -0.0000
       N       E                     dE             d eps       ncg     rms          rms(c)
DAV:   1    -0.304021668242E+04    0.12794E-03   -0.25767E-02  5888   0.144E-01    0.475E-02
DAV:   2    -0.304021673475E+04   -0.52330E-04   -0.63906E-04  7136   0.214E-02    0.218E-02
DAV:   3    -0.304021673011E+04    0.46408E-05   -0.17612E-05  5344   0.481E-03    0.148E-02
DAV:   4    -0.304021672900E+04    0.11076E-05   -0.10626E-05  5024   0.356E-03    0.121E-02
DAV:   5    -0.304021672739E+04    0.16126E-05   -0.74382E-06  4960   0.338E-03
 330 F= -.30808755E+04 E0= -.30808755E+04  d E =-.808524E-03  mag=     0.0000
       N       E                     dE             d eps       ncg     rms          rms(c)
DAV:   1    -0.304021684573E+04   -0.11673E-03   -0.15766E-01  5824   0.356E-01    0.110E-01
DAV:   2    -0.304021716055E+04   -0.31482E-03   -0.38253E-03  6976   0.525E-02    0.504E-02
DAV:   3    -0.304021713031E+04    0.30235E-04   -0.85687E-05  7168   0.106E-02    0.309E-02
DAV:   4    -0.304021712241E+04    0.79069E-05   -0.43140E-05  6688   0.802E-03    0.251E-02
DAV:   5    -0.304021711585E+04    0.65577E-05   -0.24531E-05  5568   0.643E-03
 331 F= -.30808761E+04 E0= -.30808761E+04  d E =-.681812E-03  mag=     0.0000
       N       E                     dE             d eps       ncg     rms          rms(c)
DAV:   1    -0.304021705052E+04    0.71888E-04   -0.14659E-02  6016   0.108E-01    0.368E-02
DAV:   2    -0.304021707877E+04   -0.28254E-04   -0.36266E-04  7168   0.164E-02    0.177E-02
DAV:   3    -0.304021707608E+04    0.26972E-05   -0.14760E-05  5248   0.443E-03    0.130E-02
DAV:   4    -0.304021707448E+04    0.15972E-05   -0.70615E-06  4992   0.303E-03    0.881E-03
DAV:   5    -0.304021707337E+04    0.11086E-05   -0.41978E-06  4832   0.299E-03
 332 F= -.30808762E+04 E0= -.30808762E+04  d E =-.728832E-03  mag=    -0.0000
       N       E                     dE             d eps       ncg     rms          rms(c)
DAV:   1    -0.304021723722E+04   -0.16274E-03   -0.13877E-01  5824   0.333E-01    0.104E-01
DAV:   2    -0.304021751774E+04   -0.28052E-03   -0.34005E-03  7008   0.494E-02    0.472E-02
DAV:   3    -0.304021749090E+04    0.26849E-04   -0.75746E-05  7136   0.973E-03    0.295E-02
DAV:   4    -0.304021748417E+04    0.67290E-05   -0.39699E-05  6464   0.745E-03    0.235E-02
DAV:   5    -0.304021747869E+04    0.54813E-05   -0.22741E-05  5536   0.581E-03
 333 F= -.30808768E+04 E0= -.30808768E+04  d E =-.576345E-03  mag=     0.0000
       N       E                     dE             d eps       ncg     rms          rms(c)
DAV:   1    -0.304021745504E+04    0.29125E-04   -0.70690E-03  6016   0.750E-02    0.265E-02
DAV:   2    -0.304021746894E+04   -0.13895E-04   -0.17979E-04  7168   0.116E-02    0.133E-02
DAV:   3    -0.304021746778E+04    0.11571E-05   -0.91802E-06  5088   0.331E-03    0.103E-02
DAV:   4    -0.304021746671E+04    0.10674E-05   -0.38773E-06  4864   0.221E-03    0.604E-03
DAV:   5    -0.304021746635E+04    0.36159E-06   -0.21495E-06  4768   0.207E-03
 334 F= -.30808768E+04 E0= -.30808768E+04  d E =-.602589E-03  mag=     0.0000
       N       E                     dE             d eps       ncg     rms          rms(c)
DAV:   1    -0.304021757609E+04   -0.10938E-03   -0.14915E-01  5824   0.344E-01    0.105E-01
DAV:   2    -0.304021787443E+04   -0.29834E-03   -0.36202E-03  7136   0.508E-02    0.480E-02
DAV:   3    -0.304021784686E+04    0.27564E-04   -0.81333E-05  7104   0.991E-03    0.301E-02
DAV:   4    -0.304021783931E+04    0.75554E-05   -0.40359E-05  6496   0.753E-03    0.230E-02
DAV:   5    -0.304021783449E+04    0.48146E-05   -0.23506E-05  5472   0.578E-03
 335 F= -.30808773E+04 E0= -.30808773E+04  d E =-.517723E-03  mag=     0.0000
       N       E                     dE             d eps       ncg     rms          rms(c)
DAV:   1    -0.304021779061E+04    0.48694E-04   -0.10490E-02  5952   0.910E-02    0.310E-02
DAV:   2    -0.304021781099E+04   -0.20380E-04   -0.26222E-04  7168   0.139E-02    0.150E-02
DAV:   3    -0.304021780926E+04    0.17302E-05   -0.11262E-05  5120   0.373E-03    0.113E-02
DAV:   4    -0.304021780809E+04    0.11753E-05   -0.50727E-06  4832   0.252E-03    0.726E-03
DAV:   5    -0.304021780745E+04    0.63702E-06   -0.30926E-06  4800   0.236E-03
 336 F= -.30808773E+04 E0= -.30808773E+04  d E =-.530328E-03  mag=     0.0000
       N       E                     dE             d eps       ncg     rms          rms(c)
DAV:   1    -0.304021787516E+04   -0.67068E-04   -0.12111E-01  5824   0.309E-01    0.883E-02
DAV:   2    -0.304021812177E+04   -0.24661E-03   -0.29203E-03  6976   0.452E-02    0.424E-02
DAV:   3    -0.304021810318E+04    0.18585E-04   -0.61614E-05  7040   0.836E-03    0.269E-02
DAV:   4    -0.304021809766E+04    0.55199E-05   -0.27214E-05  5600   0.630E-03    0.207E-02
DAV:   5    -0.304021809479E+04    0.28737E-05   -0.19781E-05  5376   0.523E-03
 337 F= -.30808778E+04 E0= -.30808778E+04  d E =-.461772E-03  mag=     0.0000
       N       E                     dE             d eps       ncg     rms          rms(c)
DAV:   1    -0.304021804548E+04    0.52181E-04   -0.18633E-02  5888   0.121E-01    0.372E-02
DAV:   2    -0.304021808262E+04   -0.37138E-04   -0.45572E-04  7136   0.180E-02    0.179E-02
DAV:   3    -0.304021807999E+04    0.26306E-05   -0.12831E-05  5056   0.403E-03    0.120E-02
DAV:   4    -0.304021807922E+04    0.77358E-06   -0.62113E-06  4864   0.284E-03    0.950E-03
DAV:   5    -0.304021807852E+04    0.70035E-06   -0.50727E-06  4800   0.279E-03
 338 F= -.30808778E+04 E0= -.30808778E+04  d E =-.513858E-03  mag=     0.0000
       N       E                     dE             d eps       ncg     rms          rms(c)
DAV:   1    -0.304021824355E+04   -0.16433E-03   -0.10075E-01  5824   0.283E-01    0.918E-02
DAV:   2    -0.304021844953E+04   -0.20599E-03   -0.25107E-03  7104   0.424E-02    0.399E-02
DAV:   3    -0.304021842890E+04    0.20636E-04   -0.55034E-05  7104   0.840E-03    0.250E-02
DAV:   4    -0.304021842342E+04    0.54732E-05   -0.30631E-05  5792   0.675E-03    0.187E-02
DAV:   5    -0.304021842063E+04    0.27915E-05   -0.17182E-05  5184   0.494E-03
 339 F= -.30808783E+04 E0= -.30808783E+04  d E =-.520563E-03  mag=     0.0000
       N       E                     dE             d eps       ncg     rms          rms(c)
DAV:   1    -0.304021838719E+04    0.36237E-04   -0.91363E-03  5952   0.853E-02    0.304E-02
DAV:   2    -0.304021840549E+04   -0.18307E-04   -0.23278E-04  7136   0.131E-02    0.136E-02
DAV:   3    -0.304021840373E+04    0.17635E-05   -0.81182E-06  4992   0.337E-03    0.967E-03
DAV:   4    -0.304021840298E+04    0.74983E-06   -0.44311E-06  4848   0.241E-03    0.716E-03
DAV:   5    -0.304021840235E+04    0.63312E-06   -0.27789E-06  4832   0.233E-03
 340 F= -.30808784E+04 E0= -.30808784E+04  d E =-.556007E-03  mag=    -0.0000
       N       E                     dE             d eps       ncg     rms          rms(c)
DAV:   1    -0.304021850233E+04   -0.99346E-04   -0.10199E-01  5824   0.285E-01    0.867E-02
DAV:   2    -0.304021871137E+04   -0.20904E-03   -0.25090E-03  7072   0.423E-02    0.395E-02
DAV:   3    -0.304021869289E+04    0.18480E-04   -0.53224E-05  7136   0.812E-03    0.252E-02
DAV:   4    -0.304021868758E+04    0.53056E-05   -0.31410E-05  6112   0.690E-03    0.176E-02
DAV:   5    -0.304021868552E+04    0.20614E-05   -0.16929E-05  5248   0.472E-03
 341 F= -.30808788E+04 E0= -.30808788E+04  d E =-.455575E-03  mag=     0.0000
       N       E                     dE             d eps       ncg     rms          rms(c)
DAV:   1    -0.304021864304E+04    0.44538E-04   -0.11520E-02  5888   0.958E-02    0.319E-02
DAV:   2    -0.304021866628E+04   -0.23242E-04   -0.29040E-04  7168   0.146E-02    0.143E-02
DAV:   3    -0.304021866423E+04    0.20526E-05   -0.78588E-06  4960   0.339E-03    0.961E-03
DAV:   4    -0.304021866377E+04    0.46095E-06   -0.46154E-06  4864   0.258E-03    0.797E-03
DAV:   5    -0.304021866313E+04    0.64011E-06   -0.34747E-06  4832   0.251E-03
 342 F= -.30808789E+04 E0= -.30808789E+04  d E =-.491133E-03  mag=    -0.0000
       N       E                     dE             d eps       ncg     rms          rms(c)
DAV:   1    -0.304021877162E+04   -0.10785E-03   -0.92297E-02  5824   0.271E-01    0.811E-02
DAV:   2    -0.304021895901E+04   -0.18739E-03   -0.22386E-03  6976   0.398E-02    0.366E-02
DAV:   3    -0.304021894366E+04    0.15348E-04   -0.46326E-05  6944   0.739E-03    0.236E-02
DAV:   4    -0.304021893948E+04    0.41804E-05   -0.26635E-05  5760   0.630E-03    0.171E-02
DAV:   5    -0.304021893773E+04    0.17548E-05   -0.16326E-05  5120   0.454E-03
 343 F= -.30808793E+04 E0= -.30808793E+04  d E =-.425173E-03  mag=    -0.0000
       N       E                     dE             d eps       ncg     rms          rms(c)
DAV:   1    -0.304021888893E+04    0.50548E-04   -0.17643E-02  5888   0.118E-01    0.379E-02
DAV:   2    -0.304021892436E+04   -0.35425E-04   -0.43515E-04  7104   0.177E-02    0.166E-02
DAV:   3    -0.304021892144E+04    0.29209E-05   -0.98305E-06  4992   0.373E-03    0.108E-02
DAV:   4    -0.304021892078E+04    0.65920E-06   -0.54297E-06  4896   0.295E-03    0.868E-03
DAV:   5    -0.304021892019E+04    0.59046E-06   -0.43691E-06  4928   0.270E-03
 344 F= -.30808793E+04 E0= -.30808793E+04  d E =-.473510E-03  mag=    -0.0000
       N       E                     dE             d eps       ncg     rms          rms(c)
DAV:   1    -0.304021897380E+04   -0.53020E-04   -0.10293E-01  5824   0.286E-01    0.898E-02
DAV:   2    -0.304021918509E+04   -0.21129E-03   -0.25527E-03  6944   0.426E-02    0.397E-02
DAV:   3    -0.304021916576E+04    0.19331E-04   -0.55312E-05  7104   0.833E-03    0.255E-02
DAV:   4    -0.304021916177E+04    0.39871E-05   -0.34088E-05  6048   0.697E-03    0.202E-02
DAV:   5    -0.304021915799E+04    0.37846E-05   -0.22750E-05  5344   0.532E-03
 345 F= -.30808798E+04 E0= -.30808798E+04  d E =-.432897E-03  mag=    -0.0000
       N       E                     dE             d eps       ncg     rms          rms(c)
DAV:   1    -0.304021912867E+04    0.33102E-04   -0.37531E-03  6144   0.546E-02    0.201E-02
DAV:   2    -0.304021913595E+04   -0.72765E-05   -0.96864E-05  7168   0.853E-03    0.907E-03
DAV:   3    -0.304021913531E+04    0.63883E-06   -0.35161E-06  4928   0.236E-03    0.631E-03
DAV:   4    -0.304021913500E+04    0.30675E-06   -0.15534E-06  4704   0.165E-03    0.442E-03
DAV:   5    -0.304021913486E+04    0.13912E-06   -0.10410E-06  4768   0.169E-03
 346 F= -.30808798E+04 E0= -.30808798E+04  d E =-.447027E-03  mag=    -0.0000
       N       E                     dE             d eps       ncg     rms          rms(c)
DAV:   1    -0.304021911516E+04    0.19845E-04   -0.97050E-02  5824   0.278E-01    0.855E-02
DAV:   2    -0.304021931556E+04   -0.20040E-03   -0.23837E-03  7072   0.411E-02    0.385E-02
DAV:   3    -0.304021929823E+04    0.17333E-04   -0.49724E-05  7008   0.781E-03    0.245E-02
DAV:   4    -0.304021929512E+04    0.31085E-05   -0.31956E-05  5856   0.656E-03    0.202E-02
DAV:   5    -0.304021929133E+04    0.37877E-05   -0.21849E-05  5312   0.503E-03
 347 F= -.30808802E+04 E0= -.30808802E+04  d E =-.405711E-03  mag=    -0.0000
       N       E                     dE             d eps       ncg     rms          rms(c)
DAV:   1    -0.304021924371E+04    0.51404E-04   -0.55281E-03  6080   0.663E-02    0.231E-02
DAV:   2    -0.304021925474E+04   -0.11028E-04   -0.13958E-04  7168   0.101E-02    0.105E-02
DAV:   3    -0.304021925385E+04    0.89081E-06   -0.44379E-06  4992   0.255E-03    0.707E-03
DAV:   4    -0.304021925349E+04    0.35577E-06   -0.20589E-06  4800   0.183E-03    0.520E-03
DAV:   5    -0.304021925330E+04    0.19645E-06   -0.14072E-06  4768   0.177E-03
 348 F= -.30808802E+04 E0= -.30808802E+04  d E =-.427159E-03  mag=    -0.0000
       N       E                     dE             d eps       ncg     rms          rms(c)
DAV:   1    -0.304021918985E+04    0.63645E-04   -0.10210E-01  5824   0.285E-01    0.870E-02
DAV:   2    -0.304021939738E+04   -0.20753E-03   -0.24954E-03  7008   0.422E-02    0.400E-02
DAV:   3    -0.304021937907E+04    0.18307E-04   -0.54994E-05  7040   0.823E-03    0.254E-02
DAV:   4    -0.304021937547E+04    0.36018E-05   -0.31992E-05  5664   0.662E-03    0.211E-02
DAV:   5    -0.304021937117E+04    0.43017E-05   -0.22647E-05  5408   0.534E-03
 349 F= -.30808806E+04 E0= -.30808806E+04  d E =-.389054E-03  mag=    -0.0000
       N       E                     dE             d eps       ncg     rms          rms(c)
DAV:   1    -0.304021933141E+04    0.44061E-04   -0.31961E-03  6304   0.504E-02    0.182E-02
DAV:   2    -0.304021933750E+04   -0.60851E-05   -0.81603E-05  7168   0.788E-03    0.930E-03
DAV:   3    -0.304021933702E+04    0.47690E-06   -0.40728E-06  4896   0.233E-03    0.661E-03
DAV:   4    -0.304021933659E+04    0.43435E-06   -0.15808E-06  4704   0.158E-03    0.427E-03
DAV:   5    -0.304021933644E+04    0.14709E-06   -0.93443E-07  4720   0.149E-03
 350 F= -.30808806E+04 E0= -.30808806E+04  d E =-.402318E-03  mag=    -0.0000
       N       E                     dE             d eps       ncg     rms          rms(c)
DAV:   1    -0.304021932274E+04    0.13842E-04   -0.98863E-02  5824   0.280E-01    0.833E-02
DAV:   2    -0.304021952135E+04   -0.19861E-03   -0.23864E-03  7040   0.411E-02    0.388E-02
DAV:   3    -0.304021950438E+04    0.16974E-04   -0.50849E-05  6944   0.784E-03    0.249E-02
DAV:   4    -0.304021950044E+04    0.39369E-05   -0.28188E-05  5664   0.626E-03    0.197E-02
DAV:   5    -0.304021949708E+04    0.33573E-05   -0.19164E-05  5280   0.506E-03
 351 F= -.30808810E+04 E0= -.30808810E+04  d E =-.396458E-03  mag=    -0.0000
       N       E                     dE             d eps       ncg     rms          rms(c)
DAV:   1    -0.304021944025E+04    0.60193E-04   -0.99120E-03  5888   0.885E-02    0.288E-02
DAV:   2    -0.304021945976E+04   -0.19511E-04   -0.24491E-04  7168   0.133E-02    0.135E-02
DAV:   3    -0.304021945821E+04    0.15442E-05   -0.73100E-06  5056   0.316E-03    0.910E-03
DAV:   4    -0.304021945772E+04    0.49599E-06   -0.37173E-06  4800   0.226E-03    0.743E-03
DAV:   5    -0.304021945719E+04    0.52230E-06   -0.27694E-06  4704   0.224E-03
 352 F= -.30808811E+04 E0= -.30808811E+04  d E =-.431259E-03  mag=    -0.0000
       N       E                     dE             d eps       ncg     rms          rms(c)
DAV:   1    -0.304021950981E+04   -0.52091E-04   -0.10282E-01  5824   0.285E-01    0.844E-02
DAV:   2    -0.304021971734E+04   -0.20753E-03   -0.24698E-03  6912   0.418E-02    0.394E-02
DAV:   3    -0.304021969953E+04    0.17806E-04   -0.49637E-05  6848   0.782E-03    0.252E-02
DAV:   4    -0.304021969537E+04    0.41635E-05   -0.28944E-05  5728   0.638E-03    0.200E-02
DAV:   5    -0.304021969164E+04    0.37317E-05   -0.19391E-05  5312   0.522E-03
 353 F= -.30808815E+04 E0= -.30808815E+04  d E =-.433772E-03  mag=    -0.0000
       N       E                     dE             d eps       ncg     rms          rms(c)
DAV:   1    -0.304021964550E+04    0.49866E-04   -0.95250E-03  5888   0.868E-02    0.279E-02
DAV:   2    -0.304021966442E+04   -0.18917E-04   -0.23329E-04  7168   0.130E-02    0.130E-02
DAV:   3    -0.304021966291E+04    0.15102E-05   -0.64227E-06  5088   0.297E-03    0.880E-03
DAV:   4    -0.304021966247E+04    0.44133E-06   -0.35710E-06  4800   0.220E-03    0.724E-03
DAV:   5    -0.304021966198E+04    0.48289E-06   -0.26659E-06  4800   0.219E-03
 354 F= -.30808815E+04 E0= -.30808815E+04  d E =-.464762E-03  mag=    -0.0000
       N       E                     dE             d eps       ncg     rms          rms(c)
DAV:   1    -0.304021967658E+04   -0.14115E-04   -0.11093E-01  5824   0.296E-01    0.861E-02
DAV:   2    -0.304021990252E+04   -0.22594E-03   -0.26802E-03  7008   0.434E-02    0.410E-02
DAV:   3    -0.304021988364E+04    0.18881E-04   -0.52950E-05  6816   0.804E-03    0.261E-02
DAV:   4    -0.304021987887E+04    0.47745E-05   -0.28734E-05  5696   0.644E-03    0.208E-02
DAV:   5    -0.304021987490E+04    0.39709E-05   -0.20625E-05  5344   0.535E-03
 355 F= -.30808819E+04 E0= -.30808819E+04  d E =-.412449E-03  mag=    -0.0000
