       N       E                     dE             d eps       ncg     rms          rms(c)
DAV:   1     0.182359393559E+05    0.18236E+05   -0.75447E+05  5936   0.106E+03
DAV:   2     0.382190248424E+03   -0.17854E+05   -0.17099E+05  7488   0.280E+02
DAV:   3    -0.293321153573E+04   -0.33154E+04   -0.32963E+04  6656   0.125E+02
DAV:   4    -0.302953206346E+04   -0.96321E+02   -0.95895E+02  6688   0.247E+01
DAV:   5    -0.303171269352E+04   -0.21806E+01   -0.21770E+01  7152   0.338E+00    0.188E+02
DAV:   6    -0.146331903004E+04    0.15684E+04   -0.29672E+03  6256   0.447E+01    0.864E+01
DAV:   7    -0.160596031334E+04   -0.14264E+03   -0.22877E+02  6544   0.116E+01    0.523E+01
DAV:   8    -0.164150912503E+04   -0.35549E+02   -0.24968E+01  6656   0.523E+00    0.410E+01
DAV:   9    -0.183345875879E+04   -0.19195E+03   -0.32271E+01  6656   0.497E+00    0.332E+01
DAV:  10    -0.207257711661E+04   -0.23912E+03   -0.76466E+01  6608   0.638E+00    0.275E+01
DAV:  11    -0.233535807744E+04   -0.26278E+03   -0.12098E+02  6512   0.809E+00    0.216E+01
DAV:  12    -0.269400798356E+04   -0.35865E+03   -0.32397E+02  6320   0.116E+01    0.132E+01
DAV:  13    -0.279998131024E+04   -0.10597E+03   -0.83204E+01  6752   0.541E+00    0.100E+01
DAV:  14    -0.282712206211E+04   -0.27141E+02   -0.96210E+00  6576   0.244E+00    0.816E+00
DAV:  15    -0.284096805605E+04   -0.13846E+02   -0.34660E+00  6496   0.152E+00    0.661E+00
DAV:  16    -0.284874576229E+04   -0.77777E+01   -0.19149E+00  6496   0.114E+00    0.527E+00
DAV:  17    -0.285433584813E+04   -0.55901E+01   -0.18437E+00  6320   0.106E+00    0.391E+00
DAV:  18    -0.285862754869E+04   -0.42917E+01   -0.10861E+00  6480   0.827E-01    0.261E+00
DAV:  19    -0.286030184824E+04   -0.16743E+01   -0.54560E-01  6336   0.675E-01    0.152E+00
DAV:  20    -0.286042601803E+04   -0.12417E+00   -0.11272E-01  6384   0.431E-01    0.103E+00
DAV:  21    -0.286330660021E+04   -0.28806E+01   -0.12632E-01  6048   0.441E-01    0.620E-01
DAV:  22    -0.286514386788E+04   -0.18373E+01   -0.51579E-02  6512   0.295E-01    0.405E-01
DAV:  23    -0.286621795349E+04   -0.10741E+01   -0.29096E-02  6560   0.194E-01    0.236E-01
DAV:  24    -0.286683138696E+04   -0.61343E+00   -0.12869E-02  6672   0.148E-01    0.130E-01
DAV:  25    -0.286700541572E+04   -0.17403E+00   -0.54549E-03  6704   0.948E-02    0.773E-02
DAV:  26    -0.286705191771E+04   -0.46502E-01   -0.20879E-03  6672   0.593E-02    0.419E-02
DAV:  27    -0.286707067126E+04   -0.18754E-01   -0.82933E-04  6624   0.372E-02    0.231E-02
DAV:  28    -0.286707478944E+04   -0.41182E-02   -0.27555E-04  6576   0.221E-02    0.158E-02
DAV:  29    -0.286707687180E+04   -0.20824E-02   -0.97947E-05  6384   0.130E-02    0.108E-02
DAV:  30    -0.286707779100E+04   -0.91921E-03   -0.31486E-05  5696   0.787E-03    0.670E-03
DAV:  31    -0.286707827498E+04   -0.48397E-03   -0.16802E-05  5152   0.527E-03    0.463E-03
DAV:  32    -0.286707901853E+04   -0.74355E-03   -0.15176E-05  5120   0.469E-03    0.381E-03
DAV:  33    -0.286707934421E+04   -0.32568E-03   -0.55568E-06  4736   0.278E-03    0.243E-03
DAV:  34    -0.286707952217E+04   -0.17796E-03   -0.38015E-06  4688   0.207E-03    0.150E-03
DAV:  35    -0.286707963736E+04   -0.11519E-03   -0.29330E-06  4704   0.174E-03    0.116E-03
DAV:  36    -0.286707969089E+04   -0.53530E-04   -0.10734E-06  4672   0.951E-04    0.898E-04
DAV:  37    -0.286707971345E+04   -0.22559E-04   -0.46622E-07  4736   0.663E-04    0.511E-04
DAV:  38    -0.286707972483E+04   -0.11380E-04   -0.22647E-07  4688   0.447E-04    0.391E-04
DAV:  39    -0.286707973063E+04   -0.57978E-05   -0.66484E-08  4688   0.263E-04
   1 F= -.29013046E+04 E0= -.29013046E+04  d E =-.290130E+04  mag=    -0.0000
