 Entering Gaussian System, Link 0=g16
 Initial command:
 /home/chesagar/softwares/G16_AVX2//g16/l1.exe "/home/chesagar/scratch/Gau-51039.inp" -scrdir="/home/chesagar/scratch/"
 Entering Link 1 = /home/chesagar/softwares/G16_AVX2//g16/l1.exe PID=     51040.
  
 Copyright (c) 1988-2019, Gaussian, Inc.  All Rights Reserved.
  
 This is part of the Gaussian(R) 16 program.  It is based on
 the Gaussian(R) 09 system (copyright 2009, Gaussian, Inc.),
 the Gaussian(R) 03 system (copyright 2003, Gaussian, Inc.),
 the Gaussian(R) 98 system (copyright 1998, Gaussian, Inc.),
 the Gaussian(R) 94 system (copyright 1995, Gaussian, Inc.),
 the Gaussian 92(TM) system (copyright 1992, Gaussian, Inc.),
 the Gaussian 90(TM) system (copyright 1990, Gaussian, Inc.),
 the Gaussian 88(TM) system (copyright 1988, Gaussian, Inc.),
 the Gaussian 86(TM) system (copyright 1986, Carnegie Mellon
 University), and the Gaussian 82(TM) system (copyright 1983,
 Carnegie Mellon University). Gaussian is a federally registered
 trademark of Gaussian, Inc.
  
 This software contains proprietary and confidential information,
 including trade secrets, belonging to Gaussian, Inc.
  
 This software is provided under written license and may be
 used, copied, transmitted, or stored only in accord with that
 written license.
  
 The following legend is applicable only to US Government
 contracts under FAR:
  
                    RESTRICTED RIGHTS LEGEND
  
 Use, reproduction and disclosure by the US Government is
 subject to restrictions as set forth in subparagraphs (a)
 and (c) of the Commercial Computer Software - Restricted
 Rights clause in FAR 52.227-19.
  
 Gaussian, Inc.
 340 Quinnipiac St., Bldg. 40, Wallingford CT 06492
  
  
 ---------------------------------------------------------------
 Warning -- This program may not be used in any manner that
 competes with the business of Gaussian, Inc. or will provide
 assistance to any competitor of Gaussian, Inc.  The licensee
 of this program is prohibited from giving any competitor of
 Gaussian, Inc. access to this program.  By using this program,
 the user acknowledges that Gaussian, Inc. is engaged in the
 business of creating and licensing software in the field of
 computational chemistry and represents and warrants to the
 licensee that it is not a competitor of Gaussian, Inc. and that
 it will not use this program in any manner prohibited above.
 ---------------------------------------------------------------
  

 Cite this work as:
 Gaussian 16, Revision C.01,
 M. J. Frisch, G. W. Trucks, H. B. Schlegel, G. E. Scuseria, 
 M. A. Robb, J. R. Cheeseman, G. Scalmani, V. Barone, 
 G. A. Petersson, H. Nakatsuji, X. Li, M. Caricato, A. V. Marenich, 
 J. Bloino, B. G. Janesko, R. Gomperts, B. Mennucci, H. P. Hratchian, 
 J. V. Ortiz, A. F. Izmaylov, J. L. Sonnenberg, D. Williams-Young, 
 F. Ding, F. Lipparini, F. Egidi, J. Goings, B. Peng, A. Petrone, 
 T. Henderson, D. Ranasinghe, V. G. Zakrzewski, J. Gao, N. Rega, 
 G. Zheng, W. Liang, M. Hada, M. Ehara, K. Toyota, R. Fukuda, 
 J. Hasegawa, M. Ishida, T. Nakajima, Y. Honda, O. Kitao, H. Nakai, 
 T. Vreven, K. Throssell, J. A. Montgomery, Jr., J. E. Peralta, 
 F. Ogliaro, M. J. Bearpark, J. J. Heyd, E. N. Brothers, K. N. Kudin, 
 V. N. Staroverov, T. A. Keith, R. Kobayashi, J. Normand, 
 K. Raghavachari, A. P. Rendell, J. C. Burant, S. S. Iyengar, 
 J. Tomasi, M. Cossi, J. M. Millam, M. Klene, C. Adamo, R. Cammi, 
 J. W. Ochterski, R. L. Martin, K. Morokuma, O. Farkas, 
 J. B. Foresman, and D. J. Fox, Gaussian, Inc., Wallingford CT, 2019.
 
 ******************************************
 Gaussian 16:  ES64L-G16RevC.01  3-Jul-2019
                10-Mar-2022 
 ******************************************
 %nprocshared=48
 Will use up to   48 processors via shared memory.
 %mem=32GB
 ---------------------------------------
 # opt freq b3lyp/gen nosymm pseudo=read
 ---------------------------------------
 1/18=20,19=15,26=3,38=1/1,3;
 2/9=110,12=2,15=1,17=6,18=5,40=1/2;
 3/5=7,11=2,16=1,17=8,25=1,30=1,71=1,74=-5/1,2,3;
 4//1;
 5/5=2,38=5/2;
 6/7=2,8=2,9=2,10=2,28=1/1;
 7/30=1/1,2,3,16;
 1/18=20,19=15,26=3/3(2);
 2/9=110,15=1/2;
 99//99;
 2/9=110,15=1/2;
 3/5=7,6=1,11=2,16=1,17=8,25=1,30=1,71=1,74=-5,82=7/1,2,3;
 4/5=5,16=3,69=1/1;
 5/5=2,38=5/2;
 7/30=1/1,2,3,16;
 1/18=20,19=15,26=3/3(-5);
 2/9=110,15=1/2;
 6/7=2,8=2,9=2,10=2,19=2,28=1/1;
 99/9=1/99;
 -------------------
 Title Card Required
 -------------------
 Symbolic Z-matrix:
 Charge =  0 Multiplicity = 1
 42                    1.58177  -0.37596  -0.88097 
 6                     3.17835  -0.65354  -2.14745 
 6                     1.22635  -2.17224  -0.16775 
 6                     0.64008  -1.2022   -2.5169 
 8                     0.14491  -1.71959  -3.41631 
 8                     4.05185  -0.72829  -2.89008 
 8                     0.97589  -3.20214   0.29067 
 16                   -0.44903   0.82585  -0.64651 
 1                     0.15828   1.98543  -0.28806 
 16                    3.28039  -0.06094   0.77351 
 1                     2.77744  -0.68322   1.86397 
 

 GradGradGradGradGradGradGradGradGradGradGradGradGradGradGradGradGradGrad
 Berny optimization.
 Initialization pass.
                           ----------------------------
                           !    Initial Parameters    !
                           ! (Angstroms and Degrees)  !
 --------------------------                            --------------------------
 ! Name  Definition              Value          Derivative Info.                !
 --------------------------------------------------------------------------------
 ! R1    R(1,2)                  2.0567         estimate D2E/DX2                !
 ! R2    R(1,3)                  1.9651         estimate D2E/DX2                !
 ! R3    R(1,4)                  2.0605         estimate D2E/DX2                !
 ! R4    R(1,8)                  2.3714         estimate D2E/DX2                !
 ! R5    R(1,10)                 2.392          estimate D2E/DX2                !
 ! R6    R(2,6)                  1.149          estimate D2E/DX2                !
 ! R7    R(3,7)                  1.1548         estimate D2E/DX2                !
 ! R8    R(4,5)                  1.1497         estimate D2E/DX2                !
 ! R9    R(8,9)                  1.3572         estimate D2E/DX2                !
 ! R10   R(10,11)                1.3525         estimate D2E/DX2                !
 ! A1    A(2,1,3)              103.9179         estimate D2E/DX2                !
 ! A2    A(2,1,4)               79.1501         estimate D2E/DX2                !
 ! A3    A(2,1,8)              142.5669         estimate D2E/DX2                !
 ! A4    A(2,1,10)              83.8254         estimate D2E/DX2                !
 ! A5    A(3,1,4)               80.7327         estimate D2E/DX2                !
 ! A6    A(3,1,8)              105.8121         estimate D2E/DX2                !
 ! A7    A(3,1,10)              89.873          estimate D2E/DX2                !
 ! A8    A(4,1,8)               83.7041         estimate D2E/DX2                !
 ! A9    A(4,1,10)             157.893          estimate D2E/DX2                !
 ! A10   A(8,1,10)             118.2289         estimate D2E/DX2                !
 ! A11   A(1,8,9)               94.3537         estimate D2E/DX2                !
 ! A12   A(1,10,11)            103.4731         estimate D2E/DX2                !
 ! A13   L(1,2,6,5,-1)         179.7664         estimate D2E/DX2                !
 ! A14   L(1,3,7,11,-1)        179.0589         estimate D2E/DX2                !
 ! A15   L(1,4,5,6,-1)         178.871          estimate D2E/DX2                !
 ! A16   L(1,2,6,5,-2)         175.1042         estimate D2E/DX2                !
 ! A17   L(1,3,7,11,-2)        176.8925         estimate D2E/DX2                !
 ! A18   L(1,4,5,6,-2)         176.6482         estimate D2E/DX2                !
 ! D1    D(2,1,8,9)            -77.6433         estimate D2E/DX2                !
 ! D2    D(3,1,8,9)            140.9818         estimate D2E/DX2                !
 ! D3    D(4,1,8,9)           -140.5338         estimate D2E/DX2                !
 ! D4    D(10,1,8,9)            42.3885         estimate D2E/DX2                !
 ! D5    D(2,1,10,11)         -140.693          estimate D2E/DX2                !
 ! D6    D(3,1,10,11)          -36.678          estimate D2E/DX2                !
 ! D7    D(4,1,10,11)         -100.9964         estimate D2E/DX2                !
 ! D8    D(8,1,10,11)           71.2654         estimate D2E/DX2                !
 --------------------------------------------------------------------------------
 Trust Radius=3.00D-01 FncErr=1.00D-07 GrdErr=1.00D-06 EigMax=2.50D+02 EigMin=1.00D-04
 Number of steps in this run=     46 maximum allowed number of steps=    100.
 GradGradGradGradGradGradGradGradGradGradGradGradGradGradGradGradGradGrad

                          Input orientation:                          
 ---------------------------------------------------------------------
 Center     Atomic      Atomic             Coordinates (Angstroms)
 Number     Number       Type             X           Y           Z
 ---------------------------------------------------------------------
      1         42           0        1.581768   -0.375964   -0.880971
      2          6           0        3.178345   -0.653537   -2.147452
      3          6           0        1.226346   -2.172241   -0.167746
      4          6           0        0.640076   -1.202202   -2.516895
      5          8           0        0.144911   -1.719592   -3.416309
      6          8           0        4.051854   -0.728290   -2.890076
      7          8           0        0.975889   -3.202142    0.290671
      8         16           0       -0.449031    0.825849   -0.646511
      9          1           0        0.158278    1.985430   -0.288057
     10         16           0        3.280389   -0.060938    0.773512
     11          1           0        2.777438   -0.683221    1.863965
 ---------------------------------------------------------------------
                    Distance matrix (angstroms):
                    1          2          3          4          5
     1  Mo   0.000000
     2  C    2.056716   0.000000
     3  C    1.965102   3.167964   0.000000
     4  C    2.060510   2.623038   2.608292   0.000000
     5  O    3.209024   3.456616   3.453629   1.149707   0.000000
     6  O    3.203430   1.148954   4.180858   3.464691   4.064948
     7  O    3.118833   4.158202   1.154803   3.463374   4.078012
     8  S    2.371386   4.195148   3.467657   2.966055   3.808388
     9  H    2.820293   4.420668   4.294354   3.919292   4.849054
    10  S    2.392043   2.982217   3.092355   4.370414   5.489714
    11  H    3.009769   4.031510   2.958195   4.901999   5.990455
                    6          7          8          9         10
     6  O    0.000000
     7  O    5.069384   0.000000
     8  S    5.263734   4.374176   0.000000
     9  H    5.412459   5.283400   1.357181   0.000000
    10  S    3.802945   3.925687   4.087962   3.880996   0.000000
    11  H    4.922100   3.473585   4.357738   4.314267   1.352510
                   11
    11  H    0.000000
 Symmetry turned off by external request.
 Stoichiometry    C3H2MoO3S2
 Framework group  C1[X(C3H2MoO3S2)]
 Deg. of freedom    27
 Full point group                 C1      NOp   1
 Rotational constants (GHZ):           0.8788202           0.7722166           0.6587268
 General basis read from cards:  (5D, 7F)
 ======================================================================================================
                                       Pseudopotential Parameters
 ======================================================================================================
  Center     Atomic      Valence      Angular      Power
  Number     Number     Electrons     Momentum     of R      Exponent        Coefficient   SO-Coeffient
 ======================================================================================================
    1         42           14
                                      F and up 
                                                     0      537.9667807       -0.04694920    0.00000000
                                                     1      147.8982938      -20.20800840    0.00000000
                                                     2       45.7358898     -106.21163020    0.00000000
                                                     2       13.2911467      -41.81073680    0.00000000
                                                     2        4.7059961       -4.20541030    0.00000000
                                      S - F
                                                     0      110.2991760        2.80637170    0.00000000
                                                     1       23.2014645       44.51620120    0.00000000
                                                     2        5.3530131       82.77852270    0.00000000
                                      P - F
                                                     0       63.2901397        4.94208760    0.00000000
                                                     1       23.3315302       25.86049760    0.00000000
                                                     2       24.6759423      132.47087420    0.00000000
                                                     2        4.6493040       57.31497940    0.00000000
                                      D - F
                                                     0      104.4839977        3.00545910    0.00000000
                                                     1       66.2307245       26.36378510    0.00000000
                                                     2       39.1283176      183.38491990    0.00000000
                                                     2       13.1164437       98.44530680    0.00000000
                                                     2        3.6280263       22.49013770    0.00000000
    2          6
                                   No pseudopotential on this center.
    3          6
                                   No pseudopotential on this center.
    4          6
                                   No pseudopotential on this center.
    5          8
                                   No pseudopotential on this center.
    6          8
                                   No pseudopotential on this center.
    7          8
                                   No pseudopotential on this center.
    8         16
                                   No pseudopotential on this center.
    9          1
                                   No pseudopotential on this center.
   10         16
                                   No pseudopotential on this center.
   11          1
                                   No pseudopotential on this center.
 ======================================================================================================
   152 basis functions,   335 primitive gaussians,   162 cartesian basis functions
    45 alpha electrons       45 beta electrons
       nuclear repulsion energy       620.4718355204 Hartrees.
 NAtoms=   11 NActive=   11 NUniq=   11 SFac= 1.00D+00 NAtFMM=   60 NAOKFM=F Big=F
 Integral buffers will be    131072 words long.
 Raffenetti 2 integral format.
 Two-electron integral symmetry is turned off.
 One-electron integrals computed using PRISM.
   1 Symmetry operations used in ECPInt.
 ECPInt:  NShTT=    1176 NPrTT=    8321 LenC2=    1118 LenP2D=    5445.
 LDataN:  DoStor=T MaxTD1= 5 Len=  102
 NBasis=   152 RedAO= T EigKep=  4.98D-03  NBF=   152
 NBsUse=   152 1.00D-06 EigRej= -1.00D+00 NBFU=   152
 Defaulting to unpruned grid for atomic number  42.
 ExpMin= 2.47D-02 ExpMax= 2.19D+04 ExpMxC= 3.30D+03 IAcc=3 IRadAn=         5 AccDes= 0.00D+00
 Harris functional with IExCor=  402 and IRadAn=       5 diagonalized for initial guess.
 HarFok:  IExCor=  402 AccDes= 0.00D+00 IRadAn=         5 IDoV= 1 UseB2=F ITyADJ=14
 ICtDFT=  3500011 ScaDFX=  1.000000  1.000000  1.000000  1.000000
 Defaulting to unpruned grid for atomic number  42.
 FoFCou: FMM=F IPFlag=           0 FMFlag=      100000 FMFlg1=           0
         NFxFlg=           0 DoJE=T BraDBF=F KetDBF=T FulRan=T
         wScrn=  0.000000 ICntrl=       500 IOpCl=  0 I1Cent=   200000004 NGrid=           0
         NMat0=    1 NMatS0=      1 NMatT0=    0 NMatD0=    1 NMtDS0=    0 NMtDT0=    0
 Symmetry not used in FoFCou.
 Keep R1 ints in memory in canonical form, NReq=115073230.
 Requested convergence on RMS density matrix=1.00D-08 within 128 cycles.
 Requested convergence on MAX density matrix=1.00D-06.
 Requested convergence on             energy=1.00D-06.
 No special actions if energy rises.
 Defaulting to unpruned grid for atomic number  42.
 Defaulting to unpruned grid for atomic number  42.
 Defaulting to unpruned grid for atomic number  42.
 Defaulting to unpruned grid for atomic number  42.
 Defaulting to unpruned grid for atomic number  42.
 Defaulting to unpruned grid for atomic number  42.
 Defaulting to unpruned grid for atomic number  42.
 Defaulting to unpruned grid for atomic number  42.
 Defaulting to unpruned grid for atomic number  42.
 Defaulting to unpruned grid for atomic number  42.
 Defaulting to unpruned grid for atomic number  42.
 Defaulting to unpruned grid for atomic number  42.
 Defaulting to unpruned grid for atomic number  42.
 Defaulting to unpruned grid for atomic number  42.
 Defaulting to unpruned grid for atomic number  42.
 Defaulting to unpruned grid for atomic number  42.
 Defaulting to unpruned grid for atomic number  42.
 Defaulting to unpruned grid for atomic number  42.
 Defaulting to unpruned grid for atomic number  42.
 Defaulting to unpruned grid for atomic number  42.
 Defaulting to unpruned grid for atomic number  42.
 Defaulting to unpruned grid for atomic number  42.
 Defaulting to unpruned grid for atomic number  42.
 Defaulting to unpruned grid for atomic number  42.
 Defaulting to unpruned grid for atomic number  42.
 Defaulting to unpruned grid for atomic number  42.
 Defaulting to unpruned grid for atomic number  42.
 Defaulting to unpruned grid for atomic number  42.
 Defaulting to unpruned grid for atomic number  42.
 Defaulting to unpruned grid for atomic number  42.
 Defaulting to unpruned grid for atomic number  42.
 Defaulting to unpruned grid for atomic number  42.
 Defaulting to unpruned grid for atomic number  42.
 Defaulting to unpruned grid for atomic number  42.
 Defaulting to unpruned grid for atomic number  42.
 Defaulting to unpruned grid for atomic number  42.
 Defaulting to unpruned grid for atomic number  42.
 Defaulting to unpruned grid for atomic number  42.
 Defaulting to unpruned grid for atomic number  42.
 Defaulting to unpruned grid for atomic number  42.
 Defaulting to unpruned grid for atomic number  42.
 Defaulting to unpruned grid for atomic number  42.
 Defaulting to unpruned grid for atomic number  42.
 Defaulting to unpruned grid for atomic number  42.
 Defaulting to unpruned grid for atomic number  42.
 Defaulting to unpruned grid for atomic number  42.
 Defaulting to unpruned grid for atomic number  42.
 Defaulting to unpruned grid for atomic number  42.
 EnCoef did     3 forward-backward iterations
 SCF Done:  E(RB3LYP) =  -1205.17780708     A.U. after   17 cycles
            NFock= 17  Conv=0.92D-08     -V/T= 2.0427

 **********************************************************************

            Population analysis using the SCF Density.

 **********************************************************************

 Alpha  occ. eigenvalues --  -88.87392 -88.87292 -19.26411 -19.25593 -19.24724
 Alpha  occ. eigenvalues --  -10.33758 -10.33392 -10.32769  -7.95152  -7.95010
 Alpha  occ. eigenvalues --   -5.91438  -5.91285  -5.91057  -5.90955  -5.90810
 Alpha  occ. eigenvalues --   -5.90655  -2.51870  -1.54934  -1.54297  -1.53794
 Alpha  occ. eigenvalues --   -1.16664  -1.15957  -1.14939  -0.72936  -0.72239
 Alpha  occ. eigenvalues --   -0.60167  -0.58783  -0.57939  -0.50007  -0.49246
 Alpha  occ. eigenvalues --   -0.48758  -0.48324  -0.47918  -0.47272  -0.46913
 Alpha  occ. eigenvalues --   -0.46229  -0.45442  -0.41614  -0.41229  -0.33029
 Alpha  occ. eigenvalues --   -0.31518  -0.29879  -0.27197  -0.25716  -0.25139
 Alpha virt. eigenvalues --   -0.13523  -0.10552  -0.05265  -0.03870  -0.03048
 Alpha virt. eigenvalues --   -0.02132  -0.01546  -0.00924   0.00611   0.00806
 Alpha virt. eigenvalues --    0.02326   0.03263   0.03674   0.06615   0.07861
 Alpha virt. eigenvalues --    0.15662   0.20961   0.23895   0.24945   0.26732
 Alpha virt. eigenvalues --    0.28313   0.33430   0.34715   0.35649   0.36373
 Alpha virt. eigenvalues --    0.37575   0.38428   0.39991   0.44927   0.45861
 Alpha virt. eigenvalues --    0.48438   0.49905   0.50644   0.52240   0.54807
 Alpha virt. eigenvalues --    0.62065   0.62905   0.65428   0.67579   0.68687
 Alpha virt. eigenvalues --    0.70462   0.71346   0.72242   0.74411   0.75130
 Alpha virt. eigenvalues --    0.75870   0.78147   0.79879   0.83372   0.84261
 Alpha virt. eigenvalues --    0.85703   0.86378   0.90449   0.91684   0.93563
 Alpha virt. eigenvalues --    0.96404   0.98713   1.00598   1.01423   1.02434
 Alpha virt. eigenvalues --    1.03736   1.05005   1.07810   1.10222   1.15610
 Alpha virt. eigenvalues --    1.16762   1.28650   1.46340   1.46975   1.47641
 Alpha virt. eigenvalues --    1.47858   1.48421   1.48591   1.50360   1.52276
 Alpha virt. eigenvalues --    1.54820   1.55712   1.56703   1.59302   1.66613
 Alpha virt. eigenvalues --    1.72844   1.74241   1.92204   1.92684   1.93355
 Alpha virt. eigenvalues --    1.94439   1.95332   1.95797   2.06897   2.07796
 Alpha virt. eigenvalues --    2.08776   2.12234   2.36185   2.37272   2.38579
 Alpha virt. eigenvalues --    2.55755   2.56700   2.56816   2.57086   2.57588
 Alpha virt. eigenvalues --    2.57976   2.71016   2.72382   2.95391   2.98780
 Alpha virt. eigenvalues --    2.99320  10.74358
          Condensed to atoms (all electrons):
               1          2          3          4          5          6
     1  Mo  12.937209   0.146992   0.212911   0.149397  -0.014263  -0.013163
     2  C    0.146992   5.056989  -0.014217  -0.019953  -0.001944   0.639336
     3  C    0.212911  -0.014217   4.942651  -0.007055  -0.002525  -0.000074
     4  C    0.149397  -0.019953  -0.007055   5.035391   0.641181  -0.002128
     5  O   -0.014263  -0.001944  -0.002525   0.641181   7.599420   0.000036
     6  O   -0.013163   0.639336  -0.000074  -0.002128   0.000036   7.585427
     7  O   -0.013037  -0.000107   0.618314  -0.002668   0.000065   0.000001
     8  S    0.279408  -0.003444   0.007603  -0.004632  -0.000218  -0.000001
     9  H   -0.023308   0.000290  -0.000039   0.000703  -0.000004  -0.000001
    10  S    0.290102  -0.004294   0.001096  -0.007263   0.000020  -0.000171
    11  H   -0.030915   0.000732  -0.005054   0.000087  -0.000000  -0.000005
               7          8          9         10         11
     1  Mo  -0.013037   0.279408  -0.023308   0.290102  -0.030915
     2  C   -0.000107  -0.003444   0.000290  -0.004294   0.000732
     3  C    0.618314   0.007603  -0.000039   0.001096  -0.005054
     4  C   -0.002668  -0.004632   0.000703  -0.007263   0.000087
     5  O    0.000065  -0.000218  -0.000004   0.000020  -0.000000
     6  O    0.000001  -0.000001  -0.000001  -0.000171  -0.000005
     7  O    7.632301  -0.000410  -0.000002  -0.000978   0.000721
     8  S   -0.000410  15.590085   0.251612   0.010636  -0.001073
     9  H   -0.000002   0.251612   0.691825  -0.003525   0.000105
    10  S   -0.000978   0.010636  -0.003525  15.563272   0.261944
    11  H    0.000721  -0.001073   0.000105   0.261944   0.691788
 Mulliken charges:
               1
     1  Mo   0.078668
     2  C    0.199620
     3  C    0.246389
     4  C    0.216940
     5  O   -0.221768
     6  O   -0.209257
     7  O   -0.234201
     8  S   -0.129566
     9  H    0.082345
    10  S   -0.110840
    11  H    0.081670
 Sum of Mulliken charges =  -0.00000
 Mulliken charges with hydrogens summed into heavy atoms:
               1
     1  Mo   0.078668
     2  C    0.199620
     3  C    0.246389
     4  C    0.216940
     5  O   -0.221768
     6  O   -0.209257
     7  O   -0.234201
     8  S   -0.047221
    10  S   -0.029170
 Electronic spatial extent (au):  <R**2>=           3235.4452
 Charge=              0.0000 electrons
 Dipole moment (field-independent basis, Debye):
    X=              0.4190    Y=              0.6331    Z=             -0.1297  Tot=              0.7702
 Quadrupole moment (field-independent basis, Debye-Ang):
   XX=            -88.6211   YY=            -81.5834   ZZ=            -81.4741
   XY=              0.4825   XZ=             -1.9658   YZ=             -1.0294
 Traceless Quadrupole moment (field-independent basis, Debye-Ang):
   XX=             -4.7282   YY=              2.3095   ZZ=              2.4188
   XY=              0.4825   XZ=             -1.9658   YZ=             -1.0294
 Octapole moment (field-independent basis, Debye-Ang**2):
  XXX=           -423.6523  YYY=            161.1363  ZZZ=            237.1971  XYY=           -126.4536
  XXY=             46.1272  XXZ=             74.4392  XZZ=           -122.7341  YZZ=             50.3183
  YYZ=             71.3975  XYZ=             -4.4698
 Hexadecapole moment (field-independent basis, Debye-Ang**3):
 XXXX=          -2451.0324 YYYY=           -859.1337 ZZZZ=          -1303.3352 XXXY=            260.4531
 XXXZ=            307.4301 YYYX=            257.5427 YYYZ=           -170.9268 ZZZX=            314.8089
 ZZZY=           -210.3386 XXYY=           -506.6982 XXZZ=           -600.7092 YYZZ=           -356.0680
 XXYZ=            -75.3637 YYXZ=             87.2525 ZZXY=             80.9324
 N-N= 6.204718355204D+02 E-N=-4.071355342183D+03  KE= 1.155871773212D+03
   1 Symmetry operations used in ECPInt.
 ECPInt:  NShTT=    1176 NPrTT=    8321 LenC2=    1118 LenP2D=    5445.
 LDataN:  DoStor=T MaxTD1= 6 Len=  172
 Calling FoFJK, ICntrl=      2127 FMM=F ISym2X=0 I1Cent= 0 IOpClX= 0 NMat=1 NMatS=1 NMatT=0.
 Defaulting to unpruned grid for atomic number  42.
 Defaulting to unpruned grid for atomic number  42.
 Defaulting to unpruned grid for atomic number  42.
 Defaulting to unpruned grid for atomic number  42.
 Defaulting to unpruned grid for atomic number  42.
 Defaulting to unpruned grid for atomic number  42.
 Defaulting to unpruned grid for atomic number  42.
 Defaulting to unpruned grid for atomic number  42.
 Defaulting to unpruned grid for atomic number  42.
 Defaulting to unpruned grid for atomic number  42.
 Defaulting to unpruned grid for atomic number  42.
 Defaulting to unpruned grid for atomic number  42.
 Defaulting to unpruned grid for atomic number  42.
 Defaulting to unpruned grid for atomic number  42.
 Defaulting to unpruned grid for atomic number  42.
 Defaulting to unpruned grid for atomic number  42.
 Defaulting to unpruned grid for atomic number  42.
 Defaulting to unpruned grid for atomic number  42.
 Defaulting to unpruned grid for atomic number  42.
 Defaulting to unpruned grid for atomic number  42.
 Defaulting to unpruned grid for atomic number  42.
 Defaulting to unpruned grid for atomic number  42.
 Defaulting to unpruned grid for atomic number  42.
 Defaulting to unpruned grid for atomic number  42.
 Defaulting to unpruned grid for atomic number  42.
 Defaulting to unpruned grid for atomic number  42.
 Defaulting to unpruned grid for atomic number  42.
 Defaulting to unpruned grid for atomic number  42.
 Defaulting to unpruned grid for atomic number  42.
 Defaulting to unpruned grid for atomic number  42.
 Defaulting to unpruned grid for atomic number  42.
 Defaulting to unpruned grid for atomic number  42.
 Defaulting to unpruned grid for atomic number  42.
 Defaulting to unpruned grid for atomic number  42.
 Defaulting to unpruned grid for atomic number  42.
 Defaulting to unpruned grid for atomic number  42.
 Defaulting to unpruned grid for atomic number  42.
 Defaulting to unpruned grid for atomic number  42.
 Defaulting to unpruned grid for atomic number  42.
 Defaulting to unpruned grid for atomic number  42.
 Defaulting to unpruned grid for atomic number  42.
 Defaulting to unpruned grid for atomic number  42.
 Defaulting to unpruned grid for atomic number  42.
 Defaulting to unpruned grid for atomic number  42.
 Defaulting to unpruned grid for atomic number  42.
 Defaulting to unpruned grid for atomic number  42.
 Defaulting to unpruned grid for atomic number  42.
 Defaulting to unpruned grid for atomic number  42.
 -------------------------------------------------------------------
 Center     Atomic                   Forces (Hartrees/Bohr)
 Number     Number              X              Y              Z
 -------------------------------------------------------------------
      1       42           0.000034145   -0.000131148    0.000006029
      2        6          -0.000022376    0.000117504   -0.000007377
      3        6           0.000033097   -0.000073383    0.000103742
      4        6           0.000008862    0.000004355   -0.000104708
      5        8          -0.000023729   -0.000008039    0.000035209
      6        8           0.000002956   -0.000059576    0.000004438
      7        8          -0.000017429    0.000029374   -0.000046808
      8       16          -0.000004686    0.000043028    0.000009782
      9        1          -0.000005051    0.000046041   -0.000003541
     10       16          -0.000005912    0.000081672    0.000025747
     11        1           0.000000123   -0.000049827   -0.000022514
 -------------------------------------------------------------------
 Cartesian Forces:  Max     0.000131148 RMS     0.000050559

 GradGradGradGradGradGradGradGradGradGradGradGradGradGradGradGradGradGrad
 Berny optimization.
 FormGI is forming the generalized inverse of G from B-inverse, IUseBI=4.
 Internal  Forces:  Max     0.000114085 RMS     0.000045570
 Search for a local minimum.
 Step number   1 out of a maximum of   46
 All quantities printed in internal units (Hartrees-Bohrs-Radians)
 Mixed Optimization -- En-DIIS/RFO-DIIS
 Second derivative matrix not updated -- first step.
 ITU=  0
     Eigenvalues ---    0.00230   0.00230   0.02527   0.04935   0.04935
     Eigenvalues ---    0.05003   0.05003   0.05013   0.05013   0.07514
     Eigenvalues ---    0.12482   0.13111   0.14637   0.15451   0.15600
     Eigenvalues ---    0.16000   0.16000   0.19876   0.20556   0.22290
     Eigenvalues ---    0.24914   0.25000   0.25094   0.25446   1.31256
     Eigenvalues ---    1.34773   1.35303
 RFO step:  Lambda=-2.60196187D-06 EMin= 2.30000000D-03
 Linear search not attempted -- first point.
 Iteration  1 RMS(Cart)=  0.00510095 RMS(Int)=  0.00003463
 Iteration  2 RMS(Cart)=  0.00003190 RMS(Int)=  0.00000011
 Iteration  3 RMS(Cart)=  0.00000000 RMS(Int)=  0.00000011
 Variable       Old X    -DE/DX   Delta X   Delta X   Delta X     New X
                                 (Linear)    (Quad)   (Total)
    R1        3.88663  -0.00002   0.00000  -0.00013  -0.00013   3.88650
    R2        3.71350   0.00006   0.00000   0.00029   0.00029   3.71380
    R3        3.89380   0.00006   0.00000   0.00041   0.00041   3.89421
    R4        4.48127   0.00005   0.00000   0.00042   0.00042   4.48169
    R5        4.52031   0.00000   0.00000   0.00001   0.00001   4.52032
    R6        2.17121   0.00000   0.00000   0.00000   0.00000   2.17121
    R7        2.18226  -0.00004   0.00000  -0.00003  -0.00003   2.18223
    R8        2.17263  -0.00001   0.00000  -0.00001  -0.00001   2.17262
    R9        2.56470   0.00003   0.00000   0.00014   0.00014   2.56484
   R10        2.55587   0.00001   0.00000   0.00002   0.00002   2.55590
    A1        1.81371   0.00002   0.00000   0.00021   0.00021   1.81392
    A2        1.38143  -0.00001   0.00000  -0.00004  -0.00004   1.38139
    A3        2.48826  -0.00005   0.00000  -0.00033  -0.00034   2.48793
    A4        1.46303   0.00004   0.00000  -0.00014  -0.00014   1.46289
    A5        1.40905   0.00003   0.00000   0.00040   0.00040   1.40945
    A6        1.84677   0.00005   0.00000   0.00044   0.00044   1.84721
    A7        1.56858  -0.00001   0.00000   0.00021   0.00021   1.56879
    A8        1.46091   0.00002   0.00000   0.00021   0.00021   1.46113
    A9        2.75575   0.00004   0.00000   0.00019   0.00019   2.75594
   A10        2.06348  -0.00005   0.00000  -0.00031  -0.00031   2.06317
   A11        1.64678   0.00007   0.00000   0.00041   0.00041   1.64719
   A12        1.80595  -0.00006   0.00000  -0.00039  -0.00039   1.80555
   A13        3.13752  -0.00003   0.00000  -0.00068  -0.00068   3.13683
   A14        3.12517   0.00009   0.00000   0.00177   0.00177   3.12694
   A15        3.12189   0.00008   0.00000   0.00157   0.00157   3.12346
   A16        3.05615   0.00011   0.00000   0.00228   0.00228   3.05842
   A17        3.08736  -0.00002   0.00000  -0.00032  -0.00032   3.08704
   A18        3.08309  -0.00004   0.00000  -0.00076  -0.00076   3.08233
    D1       -1.35513   0.00005   0.00000   0.00510   0.00510  -1.35003
    D2        2.46060  -0.00001   0.00000   0.00418   0.00418   2.46478
    D3       -2.45278   0.00002   0.00000   0.00459   0.00459  -2.44818
    D4        0.73982  -0.00002   0.00000   0.00379   0.00379   0.74361
    D5       -2.45556   0.00001   0.00000   0.01288   0.01288  -2.44268
    D6       -0.64015   0.00003   0.00000   0.01307   0.01307  -0.62709
    D7       -1.76272   0.00000   0.00000   0.01156   0.01156  -1.75116
    D8        1.24382   0.00007   0.00000   0.01363   0.01363   1.25745
         Item               Value     Threshold  Converged?
 Maximum Force            0.000114     0.000450     YES
 RMS     Force            0.000046     0.000300     YES
 Maximum Displacement     0.020823     0.001800     NO 
 RMS     Displacement     0.005102     0.001200     NO 
 Predicted change in Energy=-1.300960D-06
 GradGradGradGradGradGradGradGradGradGradGradGradGradGradGradGradGradGrad

                          Input orientation:                          
 ---------------------------------------------------------------------
 Center     Atomic      Atomic             Coordinates (Angstroms)
 Number     Number       Type             X           Y           Z
 ---------------------------------------------------------------------
      1         42           0        1.580908   -0.374956   -0.880035
      2          6           0        3.178173   -0.651461   -2.145769
      3          6           0        1.226567   -2.171312   -0.166045
      4          6           0        0.640493   -1.202080   -2.516518
      5          8           0        0.144634   -1.720532   -3.414931
      6          8           0        4.052017   -0.728162   -2.887802
      7          8           0        0.975613   -3.201505    0.291402
      8         16           0       -0.450488    0.826526   -0.646810
      9          1           0        0.156203    1.988307   -0.294200
     10         16           0        3.278841   -0.057433    0.774687
     11          1           0        2.783302   -0.694240    1.860152
 ---------------------------------------------------------------------
                    Distance matrix (angstroms):
                    1          2          3          4          5
     1  Mo   0.000000
     2  C    2.056646   0.000000
     3  C    1.965257   3.168284   0.000000
     4  C    2.060726   2.623062   2.609141   0.000000
     5  O    3.209229   3.457751   3.453844   1.149702   0.000000
     6  O    3.203476   1.148956   4.180169   3.464238   4.065747
     7  O    3.118978   4.158581   1.154787   3.463296   4.076851
     8  S    2.371608   4.195057   3.468527   2.966697   3.808434
     9  H    2.820993   4.419161   4.297037   3.918137   4.847121
    10  S    2.392050   2.981957   3.092780   4.370713   5.490177
    11  H    3.009372   4.025563   2.951379   4.899466   5.986847
                    6          7          8          9         10
     6  O    0.000000
     7  O    5.068434   0.000000
     8  S    5.264185   4.374818   0.000000
     9  H    5.411408   5.286634   1.357255   0.000000
    10  S    3.802829   3.927290   4.087778   3.883096   0.000000
    11  H    4.914658   3.466279   4.365201   4.328849   1.352522
                   11
    11  H    0.000000
 Symmetry turned off by external request.
 Stoichiometry    C3H2MoO3S2
 Framework group  C1[X(C3H2MoO3S2)]
 Deg. of freedom    27
 Full point group                 C1      NOp   1
 Rotational constants (GHZ):           0.8788010           0.7720372           0.6587058
 Basis read from rwf:  (5D, 7F)
 Pseudo-potential data read from rwf file.
   152 basis functions,   335 primitive gaussians,   162 cartesian basis functions
    45 alpha electrons       45 beta electrons
       nuclear repulsion energy       620.4437402210 Hartrees.
 NAtoms=   11 NActive=   11 NUniq=   11 SFac= 1.00D+00 NAtFMM=   60 NAOKFM=F Big=F
 Integral buffers will be    131072 words long.
 Raffenetti 2 integral format.
 Two-electron integral symmetry is turned off.
 One-electron integrals computed using PRISM.
   1 Symmetry operations used in ECPInt.
 ECPInt:  NShTT=    1176 NPrTT=    8321 LenC2=    1118 LenP2D=    5445.
 LDataN:  DoStor=T MaxTD1= 5 Len=  102
 NBasis=   152 RedAO= T EigKep=  4.99D-03  NBF=   152
 NBsUse=   152 1.00D-06 EigRej= -1.00D+00 NBFU=   152
 Defaulting to unpruned grid for atomic number  42.
 Initial guess from the checkpoint file:  "/home/chesagar/scratch/Gau-51040.chk"
 B after Tr=    -0.002235    0.001491    0.000291
         Rot=    1.000000    0.000206    0.000143   -0.000190 Ang=   0.04 deg.
 ExpMin= 2.47D-02 ExpMax= 2.19D+04 ExpMxC= 3.30D+03 IAcc=3 IRadAn=         5 AccDes= 0.00D+00
 Harris functional with IExCor=  402 and IRadAn=       5 diagonalized for initial guess.
 HarFok:  IExCor=  402 AccDes= 0.00D+00 IRadAn=         5 IDoV= 1 UseB2=F ITyADJ=14
 ICtDFT=  3500011 ScaDFX=  1.000000  1.000000  1.000000  1.000000
 Defaulting to unpruned grid for atomic number  42.
 FoFCou: FMM=F IPFlag=           0 FMFlag=      100000 FMFlg1=           0
         NFxFlg=           0 DoJE=T BraDBF=F KetDBF=T FulRan=T
         wScrn=  0.000000 ICntrl=       500 IOpCl=  0 I1Cent=   200000004 NGrid=           0
         NMat0=    1 NMatS0=      1 NMatT0=    0 NMatD0=    1 NMtDS0=    0 NMtDT0=    0
 Symmetry not used in FoFCou.
 Keep R1 ints in memory in canonical form, NReq=115073230.
 Requested convergence on RMS density matrix=1.00D-08 within 128 cycles.
 Requested convergence on MAX density matrix=1.00D-06.
 Requested convergence on             energy=1.00D-06.
 No special actions if energy rises.
 Defaulting to unpruned grid for atomic number  42.
 Defaulting to unpruned grid for atomic number  42.
 Defaulting to unpruned grid for atomic number  42.
 Defaulting to unpruned grid for atomic number  42.
 Defaulting to unpruned grid for atomic number  42.
 Defaulting to unpruned grid for atomic number  42.
 Defaulting to unpruned grid for atomic number  42.
 Defaulting to unpruned grid for atomic number  42.
 Defaulting to unpruned grid for atomic number  42.
 Defaulting to unpruned grid for atomic number  42.
 Defaulting to unpruned grid for atomic number  42.
 Defaulting to unpruned grid for atomic number  42.
 Defaulting to unpruned grid for atomic number  42.
 Defaulting to unpruned grid for atomic number  42.
 Defaulting to unpruned grid for atomic number  42.
 Defaulting to unpruned grid for atomic number  42.
 Defaulting to unpruned grid for atomic number  42.
 Defaulting to unpruned grid for atomic number  42.
 Defaulting to unpruned grid for atomic number  42.
 Defaulting to unpruned grid for atomic number  42.
 Defaulting to unpruned grid for atomic number  42.
 Defaulting to unpruned grid for atomic number  42.
 Defaulting to unpruned grid for atomic number  42.
 Defaulting to unpruned grid for atomic number  42.
 Defaulting to unpruned grid for atomic number  42.
 Defaulting to unpruned grid for atomic number  42.
 Defaulting to unpruned grid for atomic number  42.
 Defaulting to unpruned grid for atomic number  42.
 Defaulting to unpruned grid for atomic number  42.
 Defaulting to unpruned grid for atomic number  42.
 Defaulting to unpruned grid for atomic number  42.
 Defaulting to unpruned grid for atomic number  42.
 Defaulting to unpruned grid for atomic number  42.
 Defaulting to unpruned grid for atomic number  42.
 Defaulting to unpruned grid for atomic number  42.
 Defaulting to unpruned grid for atomic number  42.
 Defaulting to unpruned grid for atomic number  42.
 Defaulting to unpruned grid for atomic number  42.
 Defaulting to unpruned grid for atomic number  42.
 Defaulting to unpruned grid for atomic number  42.
 Defaulting to unpruned grid for atomic number  42.
 Defaulting to unpruned grid for atomic number  42.
 Defaulting to unpruned grid for atomic number  42.
 Defaulting to unpruned grid for atomic number  42.
 Defaulting to unpruned grid for atomic number  42.
 Defaulting to unpruned grid for atomic number  42.
 Defaulting to unpruned grid for atomic number  42.
 Defaulting to unpruned grid for atomic number  42.
 SCF Done:  E(RB3LYP) =  -1205.17780542     A.U. after   11 cycles
            NFock= 11  Conv=0.42D-08     -V/T= 2.0427
   1 Symmetry operations used in ECPInt.
 ECPInt:  NShTT=    1176 NPrTT=    8321 LenC2=    1118 LenP2D=    5445.
 LDataN:  DoStor=T MaxTD1= 6 Len=  172
 Calling FoFJK, ICntrl=      2127 FMM=F ISym2X=0 I1Cent= 0 IOpClX= 0 NMat=1 NMatS=1 NMatT=0.
 Defaulting to unpruned grid for atomic number  42.
 Defaulting to unpruned grid for atomic number  42.
 Defaulting to unpruned grid for atomic number  42.
 Defaulting to unpruned grid for atomic number  42.
 Defaulting to unpruned grid for atomic number  42.
 Defaulting to unpruned grid for atomic number  42.
 Defaulting to unpruned grid for atomic number  42.
 Defaulting to unpruned grid for atomic number  42.
 Defaulting to unpruned grid for atomic number  42.
 Defaulting to unpruned grid for atomic number  42.
 Defaulting to unpruned grid for atomic number  42.
 Defaulting to unpruned grid for atomic number  42.
 Defaulting to unpruned grid for atomic number  42.
 Defaulting to unpruned grid for atomic number  42.
 Defaulting to unpruned grid for atomic number  42.
 Defaulting to unpruned grid for atomic number  42.
 Defaulting to unpruned grid for atomic number  42.
 Defaulting to unpruned grid for atomic number  42.
 Defaulting to unpruned grid for atomic number  42.
 Defaulting to unpruned grid for atomic number  42.
 Defaulting to unpruned grid for atomic number  42.
 Defaulting to unpruned grid for atomic number  42.
 Defaulting to unpruned grid for atomic number  42.
 Defaulting to unpruned grid for atomic number  42.
 Defaulting to unpruned grid for atomic number  42.
 Defaulting to unpruned grid for atomic number  42.
 Defaulting to unpruned grid for atomic number  42.
 Defaulting to unpruned grid for atomic number  42.
 Defaulting to unpruned grid for atomic number  42.
 Defaulting to unpruned grid for atomic number  42.
 Defaulting to unpruned grid for atomic number  42.
 Defaulting to unpruned grid for atomic number  42.
 Defaulting to unpruned grid for atomic number  42.
 Defaulting to unpruned grid for atomic number  42.
 Defaulting to unpruned grid for atomic number  42.
 Defaulting to unpruned grid for atomic number  42.
 Defaulting to unpruned grid for atomic number  42.
 Defaulting to unpruned grid for atomic number  42.
 Defaulting to unpruned grid for atomic number  42.
 Defaulting to unpruned grid for atomic number  42.
 Defaulting to unpruned grid for atomic number  42.
 Defaulting to unpruned grid for atomic number  42.
 Defaulting to unpruned grid for atomic number  42.
 Defaulting to unpruned grid for atomic number  42.
 Defaulting to unpruned grid for atomic number  42.
 Defaulting to unpruned grid for atomic number  42.
 Defaulting to unpruned grid for atomic number  42.
 Defaulting to unpruned grid for atomic number  42.
 -------------------------------------------------------------------
 Center     Atomic                   Forces (Hartrees/Bohr)
 Number     Number              X              Y              Z
 -------------------------------------------------------------------
      1       42          -0.000025702    0.000130821    0.000094024
      2        6           0.000031186   -0.000152476   -0.000105559
      3        6           0.000064677    0.000087705   -0.000154847
      4        6          -0.000049842   -0.000008545   -0.000026961
      5        8           0.000029315    0.000019186    0.000027731
      6        8          -0.000019312    0.000063068    0.000042869
      7        8           0.000002953   -0.000031813    0.000062856
      8       16          -0.000101234   -0.000043360   -0.000046751
      9        1           0.000049419   -0.000025990    0.000041689
     10       16           0.000028132   -0.000185534    0.000019505
     11        1          -0.000009593    0.000146937    0.000045443
 -------------------------------------------------------------------
 Cartesian Forces:  Max     0.000185534 RMS     0.000076433

 GradGradGradGradGradGradGradGradGradGradGradGradGradGradGradGradGradGrad
 Berny optimization.
 Using GEDIIS/GDIIS optimizer.
 FormGI is forming the generalized inverse of G from B-inverse, IUseBI=4.
 Internal  Forces:  Max     0.000145733 RMS     0.000065912
 Search for a local minimum.
 Step number   2 out of a maximum of   46
 All quantities printed in internal units (Hartrees-Bohrs-Radians)
 Mixed Optimization -- En-DIIS/RFO-DIIS
 Swapping is turned off.
 Update second derivatives using D2CorX and points    1    2
 DE=  1.67D-06 DEPred=-1.30D-06 R=-1.28D+00
 Trust test=-1.28D+00 RLast= 2.74D-02 DXMaxT set to 1.50D-01
 ITU= -1  0
     Eigenvalues ---    0.00230   0.00658   0.02667   0.04722   0.04946
     Eigenvalues ---    0.04960   0.05003   0.05009   0.05383   0.07750
     Eigenvalues ---    0.12510   0.13016   0.14645   0.15340   0.15623
     Eigenvalues ---    0.16000   0.16664   0.20008   0.20742   0.22076
     Eigenvalues ---    0.24785   0.24994   0.25079   0.25464   1.31293
     Eigenvalues ---    1.34776   1.35334
 En-DIIS/RFO-DIIS/Sim-DIIS IScMMF=       -3 using points:     2    1
 RFO step:  Lambda=-4.39342073D-06.
 DidBck=T Rises=T En-DIIS coefs:    0.40221    0.59779
 Iteration  1 RMS(Cart)=  0.00411466 RMS(Int)=  0.00002182
 Iteration  2 RMS(Cart)=  0.00001981 RMS(Int)=  0.00000005
 Iteration  3 RMS(Cart)=  0.00000000 RMS(Int)=  0.00000005
 Variable       Old X    -DE/DX   Delta X   Delta X   Delta X     New X
                                 (Linear)    (Quad)   (Total)
    R1        3.88650   0.00006   0.00008   0.00002   0.00010   3.88660
    R2        3.71380  -0.00010  -0.00017   0.00006  -0.00012   3.71368
    R3        3.89421   0.00000  -0.00024   0.00030   0.00005   3.89426
    R4        4.48169   0.00001  -0.00025   0.00032   0.00007   4.48176
    R5        4.52032   0.00005  -0.00001   0.00014   0.00013   4.52045
    R6        2.17121  -0.00005  -0.00000  -0.00001  -0.00001   2.17120
    R7        2.18223   0.00005   0.00002  -0.00001   0.00001   2.18224
    R8        2.17262  -0.00004   0.00001  -0.00002  -0.00001   2.17261
    R9        2.56484   0.00001  -0.00008   0.00011   0.00003   2.56487
   R10        2.55590  -0.00003  -0.00001  -0.00002  -0.00003   2.55586
    A1        1.81392  -0.00009  -0.00012  -0.00006  -0.00018   1.81374
    A2        1.38139  -0.00000   0.00003   0.00000   0.00003   1.38141
    A3        2.48793   0.00003   0.00020  -0.00013   0.00007   2.48799
    A4        1.46289   0.00003   0.00008   0.00013   0.00021   1.46310
    A5        1.40945  -0.00000  -0.00024   0.00009  -0.00015   1.40930
    A6        1.84721   0.00003  -0.00026   0.00026  -0.00000   1.84720
    A7        1.56879  -0.00004  -0.00013  -0.00008  -0.00020   1.56859
    A8        1.46113  -0.00004  -0.00013   0.00003  -0.00010   1.46102
    A9        2.75594   0.00003  -0.00011   0.00014   0.00003   2.75597
   A10        2.06317   0.00001   0.00019  -0.00016   0.00002   2.06320
   A11        1.64719  -0.00013  -0.00024   0.00004  -0.00021   1.64698
   A12        1.80555   0.00013   0.00023  -0.00002   0.00021   1.80577
   A13        3.13683   0.00009   0.00041   0.00008   0.00048   3.13732
   A14        3.12694  -0.00010  -0.00106   0.00063  -0.00043   3.12650
   A15        3.12346  -0.00003  -0.00094   0.00092  -0.00002   3.12344
   A16        3.05842  -0.00010  -0.00136   0.00102  -0.00034   3.05808
   A17        3.08704  -0.00002   0.00019  -0.00034  -0.00015   3.08689
   A18        3.08233   0.00000   0.00045  -0.00052  -0.00007   3.08227
    D1       -1.35003  -0.00010  -0.00305  -0.00048  -0.00353  -1.35356
    D2        2.46478  -0.00000  -0.00250  -0.00069  -0.00319   2.46159
    D3       -2.44818  -0.00002  -0.00275  -0.00063  -0.00338  -2.45156
    D4        0.74361   0.00002  -0.00226  -0.00069  -0.00295   0.74066
    D5       -2.44268  -0.00006  -0.00770  -0.00275  -0.01045  -2.45313
    D6       -0.62709  -0.00015  -0.00781  -0.00280  -0.01061  -0.63770
    D7       -1.75116  -0.00002  -0.00691  -0.00268  -0.00959  -1.76075
    D8        1.25745  -0.00013  -0.00815  -0.00258  -0.01073   1.24672
         Item               Value     Threshold  Converged?
 Maximum Force            0.000146     0.000450     YES
 RMS     Force            0.000066     0.000300     YES
 Maximum Displacement     0.017099     0.001800     NO 
 RMS     Displacement     0.004114     0.001200     NO 
 Predicted change in Energy=-2.196996D-06
 GradGradGradGradGradGradGradGradGradGradGradGradGradGradGradGradGradGrad

                          Input orientation:                          
 ---------------------------------------------------------------------
 Center     Atomic      Atomic             Coordinates (Angstroms)
 Number     Number       Type             X           Y           Z
 ---------------------------------------------------------------------
      1         42           0        1.581674   -0.375786   -0.880747
      2          6           0        3.178415   -0.652608   -2.147160
      3          6           0        1.227001   -2.172298   -0.167485
      4          6           0        0.640274   -1.202084   -2.517117
      5          8           0        0.143892   -1.720143   -3.415460
      6          8           0        4.052234   -0.728927   -2.889253
      7          8           0        0.975824   -3.202484    0.289867
      8         16           0       -0.449344    0.826197   -0.646456
      9          1           0        0.157824    1.986371   -0.289353
     10         16           0        3.280016   -0.059895    0.773967
     11          1           0        2.778454   -0.685192    1.863328
 ---------------------------------------------------------------------
                    Distance matrix (angstroms):
                    1          2          3          4          5
     1  Mo   0.000000
     2  C    2.056699   0.000000
     3  C    1.965195   3.168058   0.000000
     4  C    2.060754   2.623157   2.608895   0.000000
     5  O    3.209249   3.457824   3.453536   1.149696   0.000000
     6  O    3.203509   1.148950   4.180106   3.464655   4.066269
     7  O    3.118912   4.158410   1.154792   3.463142   4.076628
     8  S    2.371643   4.195189   3.468504   2.966575   3.808301
     9  H    2.820794   4.420364   4.295639   3.919431   4.848812
    10  S    2.392119   2.982384   3.092482   4.370820   5.490264
    11  H    3.009645   4.030514   2.956805   4.901764   5.989795
                    6          7          8          9         10
     6  O    0.000000
     7  O    5.068490   0.000000
     8  S    5.264291   4.374709   0.000000
     9  H    5.412832   5.284774   1.357269   0.000000
    10  S    3.803039   3.926769   4.087896   3.881486   0.000000
    11  H    4.920514   3.473041   4.359128   4.317289   1.352504
                   11
    11  H    0.000000
 Symmetry turned off by external request.
 Stoichiometry    C3H2MoO3S2
 Framework group  C1[X(C3H2MoO3S2)]
 Deg. of freedom    27
 Full point group                 C1      NOp   1
 Rotational constants (GHZ):           0.8787969           0.7720711           0.6586579
 Basis read from rwf:  (5D, 7F)
 Pseudo-potential data read from rwf file.
   152 basis functions,   335 primitive gaussians,   162 cartesian basis functions
    45 alpha electrons       45 beta electrons
       nuclear repulsion energy       620.4387325382 Hartrees.
 NAtoms=   11 NActive=   11 NUniq=   11 SFac= 1.00D+00 NAtFMM=   60 NAOKFM=F Big=F
 Integral buffers will be    131072 words long.
 Raffenetti 2 integral format.
 Two-electron integral symmetry is turned off.
 One-electron integrals computed using PRISM.
   1 Symmetry operations used in ECPInt.
 ECPInt:  NShTT=    1176 NPrTT=    8321 LenC2=    1118 LenP2D=    5445.
 LDataN:  DoStor=T MaxTD1= 5 Len=  102
 NBasis=   152 RedAO= T EigKep=  4.99D-03  NBF=   152
 NBsUse=   152 1.00D-06 EigRej= -1.00D+00 NBFU=   152
 Defaulting to unpruned grid for atomic number  42.
 Initial guess from the checkpoint file:  "/home/chesagar/scratch/Gau-51040.chk"
 B after Tr=     0.001833   -0.001217   -0.000131
         Rot=    1.000000   -0.000169   -0.000119    0.000154 Ang=  -0.03 deg.
 Keep R1 ints in memory in canonical form, NReq=115073230.
 Requested convergence on RMS density matrix=1.00D-08 within 128 cycles.
 Requested convergence on MAX density matrix=1.00D-06.
 Requested convergence on             energy=1.00D-06.
 No special actions if energy rises.
 Defaulting to unpruned grid for atomic number  42.
 Defaulting to unpruned grid for atomic number  42.
 Defaulting to unpruned grid for atomic number  42.
 Defaulting to unpruned grid for atomic number  42.
 Defaulting to unpruned grid for atomic number  42.
 Defaulting to unpruned grid for atomic number  42.
 Defaulting to unpruned grid for atomic number  42.
 Defaulting to unpruned grid for atomic number  42.
 Defaulting to unpruned grid for atomic number  42.
 Defaulting to unpruned grid for atomic number  42.
 Defaulting to unpruned grid for atomic number  42.
 Defaulting to unpruned grid for atomic number  42.
 Defaulting to unpruned grid for atomic number  42.
 Defaulting to unpruned grid for atomic number  42.
 Defaulting to unpruned grid for atomic number  42.
 Defaulting to unpruned grid for atomic number  42.
 Defaulting to unpruned grid for atomic number  42.
 Defaulting to unpruned grid for atomic number  42.
 Defaulting to unpruned grid for atomic number  42.
 Defaulting to unpruned grid for atomic number  42.
 Defaulting to unpruned grid for atomic number  42.
 Defaulting to unpruned grid for atomic number  42.
 Defaulting to unpruned grid for atomic number  42.
 Defaulting to unpruned grid for atomic number  42.
 Defaulting to unpruned grid for atomic number  42.
 Defaulting to unpruned grid for atomic number  42.
 Defaulting to unpruned grid for atomic number  42.
 Defaulting to unpruned grid for atomic number  42.
 Defaulting to unpruned grid for atomic number  42.
 Defaulting to unpruned grid for atomic number  42.
 Defaulting to unpruned grid for atomic number  42.
 Defaulting to unpruned grid for atomic number  42.
 Defaulting to unpruned grid for atomic number  42.
 Defaulting to unpruned grid for atomic number  42.
 Defaulting to unpruned grid for atomic number  42.
 Defaulting to unpruned grid for atomic number  42.
 Defaulting to unpruned grid for atomic number  42.
 Defaulting to unpruned grid for atomic number  42.
 Defaulting to unpruned grid for atomic number  42.
 Defaulting to unpruned grid for atomic number  42.
 Defaulting to unpruned grid for atomic number  42.
 Defaulting to unpruned grid for atomic number  42.
 Defaulting to unpruned grid for atomic number  42.
 Defaulting to unpruned grid for atomic number  42.
 Defaulting to unpruned grid for atomic number  42.
 Defaulting to unpruned grid for atomic number  42.
 Defaulting to unpruned grid for atomic number  42.
 Defaulting to unpruned grid for atomic number  42.
 SCF Done:  E(RB3LYP) =  -1205.17780747     A.U. after   10 cycles
            NFock= 10  Conv=0.94D-08     -V/T= 2.0427
   1 Symmetry operations used in ECPInt.
 ECPInt:  NShTT=    1176 NPrTT=    8321 LenC2=    1118 LenP2D=    5445.
 LDataN:  DoStor=T MaxTD1= 6 Len=  172
 Calling FoFJK, ICntrl=      2127 FMM=F ISym2X=0 I1Cent= 0 IOpClX= 0 NMat=1 NMatS=1 NMatT=0.
 Defaulting to unpruned grid for atomic number  42.
 Defaulting to unpruned grid for atomic number  42.
 Defaulting to unpruned grid for atomic number  42.
 Defaulting to unpruned grid for atomic number  42.
 Defaulting to unpruned grid for atomic number  42.
 Defaulting to unpruned grid for atomic number  42.
 Defaulting to unpruned grid for atomic number  42.
 Defaulting to unpruned grid for atomic number  42.
 Defaulting to unpruned grid for atomic number  42.
 Defaulting to unpruned grid for atomic number  42.
 Defaulting to unpruned grid for atomic number  42.
 Defaulting to unpruned grid for atomic number  42.
 Defaulting to unpruned grid for atomic number  42.
 Defaulting to unpruned grid for atomic number  42.
 Defaulting to unpruned grid for atomic number  42.
 Defaulting to unpruned grid for atomic number  42.
 Defaulting to unpruned grid for atomic number  42.
 Defaulting to unpruned grid for atomic number  42.
 Defaulting to unpruned grid for atomic number  42.
 Defaulting to unpruned grid for atomic number  42.
 Defaulting to unpruned grid for atomic number  42.
 Defaulting to unpruned grid for atomic number  42.
 Defaulting to unpruned grid for atomic number  42.
 Defaulting to unpruned grid for atomic number  42.
 Defaulting to unpruned grid for atomic number  42.
 Defaulting to unpruned grid for atomic number  42.
 Defaulting to unpruned grid for atomic number  42.
 Defaulting to unpruned grid for atomic number  42.
 Defaulting to unpruned grid for atomic number  42.
 Defaulting to unpruned grid for atomic number  42.
 Defaulting to unpruned grid for atomic number  42.
 Defaulting to unpruned grid for atomic number  42.
 Defaulting to unpruned grid for atomic number  42.
 Defaulting to unpruned grid for atomic number  42.
 Defaulting to unpruned grid for atomic number  42.
 Defaulting to unpruned grid for atomic number  42.
 Defaulting to unpruned grid for atomic number  42.
 Defaulting to unpruned grid for atomic number  42.
 Defaulting to unpruned grid for atomic number  42.
 Defaulting to unpruned grid for atomic number  42.
 Defaulting to unpruned grid for atomic number  42.
 Defaulting to unpruned grid for atomic number  42.
 Defaulting to unpruned grid for atomic number  42.
 Defaulting to unpruned grid for atomic number  42.
 Defaulting to unpruned grid for atomic number  42.
 Defaulting to unpruned grid for atomic number  42.
 Defaulting to unpruned grid for atomic number  42.
 Defaulting to unpruned grid for atomic number  42.
 -------------------------------------------------------------------
 Center     Atomic                   Forces (Hartrees/Bohr)
 Number     Number              X              Y              Z
 -------------------------------------------------------------------
      1       42           0.000072006    0.000059940   -0.000002297
      2        6           0.000000645   -0.000049351    0.000008878
      3        6          -0.000037982   -0.000031142   -0.000060509
      4        6          -0.000076081   -0.000043583    0.000051709
      5        8           0.000034998    0.000025138   -0.000011999
      6        8          -0.000006799    0.000022318   -0.000006333
      7        8           0.000025837    0.000010326    0.000024313
      8       16           0.000005586    0.000009678   -0.000013487
      9        1           0.000004272   -0.000010756    0.000003742
     10       16          -0.000028982    0.000022262    0.000009962
     11        1           0.000006499   -0.000014830   -0.000003980
 -------------------------------------------------------------------
 Cartesian Forces:  Max     0.000076081 RMS     0.000032028

 GradGradGradGradGradGradGradGradGradGradGradGradGradGradGradGradGradGrad
 Berny optimization.
 Using GEDIIS/GDIIS optimizer.
 FormGI is forming the generalized inverse of G from B-inverse, IUseBI=4.
 Internal  Forces:  Max     0.000080046 RMS     0.000026770
 Search for a local minimum.
 Step number   3 out of a maximum of   46
 All quantities printed in internal units (Hartrees-Bohrs-Radians)
 Mixed Optimization -- En-DIIS/RFO-DIIS
 Swapping is turned off.
 Update second derivatives using D2CorX and points    1    2    3
 DE= -2.06D-06 DEPred=-2.20D-06 R= 9.36D-01
 TightC=F SS=  1.41D+00  RLast= 2.17D-02 DXNew= 2.5227D-01 6.5225D-02
 Trust test= 9.36D-01 RLast= 2.17D-02 DXMaxT set to 1.50D-01
 ITU=  1 -1  0
     Eigenvalues ---    0.00232   0.00791   0.02625   0.04857   0.04944
     Eigenvalues ---    0.04993   0.05003   0.05261   0.07423   0.08086
     Eigenvalues ---    0.12528   0.12838   0.14517   0.15538   0.15654
     Eigenvalues ---    0.16065   0.16656   0.19927   0.20541   0.21800
     Eigenvalues ---    0.24362   0.25022   0.25198   0.25467   1.31279
     Eigenvalues ---    1.34649   1.35312
 En-DIIS/RFO-DIIS/Sim-DIIS IScMMF=       -3 using points:     3    2    1
 RFO step:  Lambda=-3.02771800D-07.
 DidBck=T Rises=F RFO-DIIS coefs:    0.03085    0.24504    0.72411
 Iteration  1 RMS(Cart)=  0.00041818 RMS(Int)=  0.00000016
 Iteration  2 RMS(Cart)=  0.00000017 RMS(Int)=  0.00000003
 Variable       Old X    -DE/DX   Delta X   Delta X   Delta X     New X
                                 (Linear)    (Quad)   (Total)
    R1        3.88660  -0.00000  -0.00000   0.00000  -0.00000   3.88660
    R2        3.71368   0.00001  -0.00010   0.00010   0.00000   3.71368
    R3        3.89426  -0.00000  -0.00035   0.00032  -0.00003   3.89423
    R4        4.48176  -0.00001  -0.00037   0.00033  -0.00004   4.48171
    R5        4.52045  -0.00001  -0.00014   0.00011  -0.00003   4.52042
    R6        2.17120  -0.00000   0.00001  -0.00001  -0.00000   2.17120
    R7        2.18224  -0.00001   0.00001  -0.00001   0.00000   2.18224
    R8        2.17261  -0.00002   0.00002  -0.00002  -0.00000   2.17261
    R9        2.56487  -0.00001  -0.00013   0.00011  -0.00002   2.56485
   R10        2.55586   0.00000   0.00002  -0.00001   0.00000   2.55586
    A1        1.81374  -0.00003   0.00002  -0.00008  -0.00006   1.81368
    A2        1.38141   0.00001   0.00001   0.00003   0.00004   1.38145
    A3        2.48799  -0.00001   0.00018  -0.00017   0.00000   2.48800
    A4        1.46310   0.00002  -0.00010   0.00016   0.00006   1.46316
    A5        1.40930  -0.00002  -0.00014   0.00004  -0.00011   1.40920
    A6        1.84720   0.00002  -0.00031   0.00032   0.00001   1.84721
    A7        1.56859   0.00002   0.00005  -0.00004   0.00000   1.56859
    A8        1.46102  -0.00002  -0.00006   0.00001  -0.00004   1.46098
    A9        2.75597   0.00004  -0.00016   0.00020   0.00003   2.75600
   A10        2.06320  -0.00002   0.00020  -0.00021  -0.00000   2.06319
   A11        1.64698  -0.00002  -0.00009   0.00004  -0.00005   1.64693
   A12        1.80577  -0.00000   0.00008  -0.00007   0.00001   1.80578
   A13        3.13732   0.00000   0.00002   0.00001   0.00003   3.13735
   A14        3.12650  -0.00008  -0.00086   0.00031  -0.00055   3.12595
   A15        3.12344  -0.00008  -0.00112   0.00056  -0.00056   3.12288
   A16        3.05808  -0.00005  -0.00131   0.00091  -0.00041   3.05767
   A17        3.08689   0.00002   0.00038  -0.00024   0.00014   3.08703
   A18        3.08227   0.00004   0.00062  -0.00032   0.00029   3.08256
    D1       -1.35356  -0.00001  -0.00027  -0.00043  -0.00070  -1.35426
    D2        2.46159   0.00002   0.00006  -0.00064  -0.00057   2.46102
    D3       -2.45156  -0.00001  -0.00005  -0.00065  -0.00070  -2.45226
    D4        0.74066  -0.00001   0.00012  -0.00070  -0.00058   0.74007
    D5       -2.45313   0.00001   0.00080   0.00011   0.00091  -2.45222
    D6       -0.63770  -0.00002   0.00083   0.00002   0.00085  -0.63685
    D7       -1.76075   0.00003   0.00093   0.00026   0.00119  -1.75956
    D8        1.24672   0.00002   0.00053   0.00033   0.00086   1.24758
         Item               Value     Threshold  Converged?
 Maximum Force            0.000080     0.000450     YES
 RMS     Force            0.000027     0.000300     YES
 Maximum Displacement     0.001262     0.001800     YES
 RMS     Displacement     0.000418     0.001200     YES
 Predicted change in Energy=-1.263263D-07
 Optimization completed.
    -- Stationary point found.
                           ----------------------------
                           !   Optimized Parameters   !
                           ! (Angstroms and Degrees)  !
 --------------------------                            --------------------------
 ! Name  Definition              Value          Derivative Info.                !
 --------------------------------------------------------------------------------
 ! R1    R(1,2)                  2.0567         -DE/DX =    0.0                 !
 ! R2    R(1,3)                  1.9652         -DE/DX =    0.0                 !
 ! R3    R(1,4)                  2.0608         -DE/DX =    0.0                 !
 ! R4    R(1,8)                  2.3716         -DE/DX =    0.0                 !
 ! R5    R(1,10)                 2.3921         -DE/DX =    0.0                 !
 ! R6    R(2,6)                  1.149          -DE/DX =    0.0                 !
 ! R7    R(3,7)                  1.1548         -DE/DX =    0.0                 !
 ! R8    R(4,5)                  1.1497         -DE/DX =    0.0                 !
 ! R9    R(8,9)                  1.3573         -DE/DX =    0.0                 !
 ! R10   R(10,11)                1.3525         -DE/DX =    0.0                 !
 ! A1    A(2,1,3)              103.9195         -DE/DX =    0.0                 !
 ! A2    A(2,1,4)               79.1491         -DE/DX =    0.0                 !
 ! A3    A(2,1,8)              142.5515         -DE/DX =    0.0                 !
 ! A4    A(2,1,10)              83.8296         -DE/DX =    0.0                 !
 ! A5    A(3,1,4)               80.747          -DE/DX =    0.0                 !
 ! A6    A(3,1,8)              105.8369         -DE/DX =    0.0                 !
 ! A7    A(3,1,10)              89.8734         -DE/DX =    0.0                 !
 ! A8    A(4,1,8)               83.7106         -DE/DX =    0.0                 !
 ! A9    A(4,1,10)             157.9055         -DE/DX =    0.0                 !
 ! A10   A(8,1,10)             118.2124         -DE/DX =    0.0                 !
 ! A11   A(1,8,9)               94.3652         -DE/DX =    0.0                 !
 ! A12   A(1,10,11)            103.4627         -DE/DX =    0.0                 !
 ! A13   L(1,2,6,5,-1)         179.7551         -DE/DX =    0.0                 !
 ! A14   L(1,3,7,11,-1)        179.1355         -DE/DX =   -0.0001              !
 ! A15   L(1,4,5,6,-1)         178.9599         -DE/DX =   -0.0001              !
 ! A16   L(1,2,6,5,-2)         175.2149         -DE/DX =   -0.0001              !
 ! A17   L(1,3,7,11,-2)        176.8655         -DE/DX =    0.0                 !
 ! A18   L(1,4,5,6,-2)         176.6008         -DE/DX =    0.0                 !
 ! D1    D(2,1,8,9)            -77.5534         -DE/DX =    0.0                 !
 ! D2    D(3,1,8,9)            141.0387         -DE/DX =    0.0                 !
 ! D3    D(4,1,8,9)           -140.464          -DE/DX =    0.0                 !
 ! D4    D(10,1,8,9)            42.4365         -DE/DX =    0.0                 !
 ! D5    D(2,1,10,11)         -140.5539         -DE/DX =    0.0                 !
 ! D6    D(3,1,10,11)          -36.5375         -DE/DX =    0.0                 !
 ! D7    D(4,1,10,11)         -100.8836         -DE/DX =    0.0                 !
 ! D8    D(8,1,10,11)           71.4317         -DE/DX =    0.0                 !
 --------------------------------------------------------------------------------
 GradGradGradGradGradGradGradGradGradGradGradGradGradGradGradGradGradGrad

                          Input orientation:                          
 ---------------------------------------------------------------------
 Center     Atomic      Atomic             Coordinates (Angstroms)
 Number     Number       Type             X           Y           Z
 ---------------------------------------------------------------------
      1         42           0        1.581674   -0.375786   -0.880747
      2          6           0        3.178415   -0.652608   -2.147160
      3          6           0        1.227001   -2.172298   -0.167485
      4          6           0        0.640274   -1.202084   -2.517117
      5          8           0        0.143892   -1.720143   -3.415460
      6          8           0        4.052234   -0.728927   -2.889253
      7          8           0        0.975824   -3.202484    0.289867
      8         16           0       -0.449344    0.826197   -0.646456
      9          1           0        0.157824    1.986371   -0.289353
     10         16           0        3.280016   -0.059895    0.773967
     11          1           0        2.778454   -0.685192    1.863328
 ---------------------------------------------------------------------
                    Distance matrix (angstroms):
                    1          2          3          4          5
     1  Mo   0.000000
     2  C    2.056699   0.000000
     3  C    1.965195   3.168058   0.000000
     4  C    2.060754   2.623157   2.608895   0.000000
     5  O    3.209249   3.457824   3.453536   1.149696   0.000000
     6  O    3.203509   1.148950   4.180106   3.464655   4.066269
     7  O    3.118912   4.158410   1.154792   3.463142   4.076628
     8  S    2.371643   4.195189   3.468504   2.966575   3.808301
     9  H    2.820794   4.420364   4.295639   3.919431   4.848812
    10  S    2.392119   2.982384   3.092482   4.370820   5.490264
    11  H    3.009645   4.030514   2.956805   4.901764   5.989795
                    6          7          8          9         10
     6  O    0.000000
     7  O    5.068490   0.000000
     8  S    5.264291   4.374709   0.000000
     9  H    5.412832   5.284774   1.357269   0.000000
    10  S    3.803039   3.926769   4.087896   3.881486   0.000000
    11  H    4.920514   3.473041   4.359128   4.317289   1.352504
                   11
    11  H    0.000000
 Symmetry turned off by external request.
 Stoichiometry    C3H2MoO3S2
 Framework group  C1[X(C3H2MoO3S2)]
 Deg. of freedom    27
 Full point group                 C1      NOp   1
 Rotational constants (GHZ):           0.8787969           0.7720711           0.6586579

 **********************************************************************

            Population analysis using the SCF Density.

 **********************************************************************

 Alpha  occ. eigenvalues --  -88.87390 -88.87293 -19.26413 -19.25595 -19.24722
 Alpha  occ. eigenvalues --  -10.33761 -10.33392 -10.32766  -7.95150  -7.95012
 Alpha  occ. eigenvalues --   -5.91435  -5.91286  -5.91055  -5.90956  -5.90807
 Alpha  occ. eigenvalues --   -5.90657  -2.51871  -1.54934  -1.54297  -1.53795
 Alpha  occ. eigenvalues --   -1.16666  -1.15959  -1.14938  -0.72933  -0.72239
 Alpha  occ. eigenvalues --   -0.60167  -0.58783  -0.57938  -0.50007  -0.49245
 Alpha  occ. eigenvalues --   -0.48757  -0.48327  -0.47918  -0.47270  -0.46912
 Alpha  occ. eigenvalues --   -0.46229  -0.45444  -0.41613  -0.41228  -0.33027
 Alpha  occ. eigenvalues --   -0.31519  -0.29878  -0.27196  -0.25715  -0.25137
 Alpha virt. eigenvalues --   -0.13522  -0.10562  -0.05265  -0.03868  -0.03049
 Alpha virt. eigenvalues --   -0.02133  -0.01551  -0.00916   0.00612   0.00805
 Alpha virt. eigenvalues --    0.02325   0.03263   0.03671   0.06615   0.07861
 Alpha virt. eigenvalues --    0.15654   0.20959   0.23894   0.24944   0.26734
 Alpha virt. eigenvalues --    0.28315   0.33431   0.34714   0.35649   0.36371
 Alpha virt. eigenvalues --    0.37582   0.38432   0.39989   0.44926   0.45857
 Alpha virt. eigenvalues --    0.48435   0.49900   0.50634   0.52251   0.54811
 Alpha virt. eigenvalues --    0.62065   0.62900   0.65426   0.67579   0.68683
 Alpha virt. eigenvalues --    0.70469   0.71343   0.72239   0.74408   0.75127
 Alpha virt. eigenvalues --    0.75877   0.78133   0.79884   0.83370   0.84258
 Alpha virt. eigenvalues --    0.85704   0.86371   0.90454   0.91687   0.93556
 Alpha virt. eigenvalues --    0.96400   0.98702   1.00595   1.01431   1.02422
 Alpha virt. eigenvalues --    1.03742   1.05000   1.07813   1.10215   1.15613
 Alpha virt. eigenvalues --    1.16753   1.28639   1.46340   1.46974   1.47639
 Alpha virt. eigenvalues --    1.47863   1.48425   1.48588   1.50357   1.52266
 Alpha virt. eigenvalues --    1.54819   1.55711   1.56697   1.59294   1.66622
 Alpha virt. eigenvalues --    1.72843   1.74217   1.92205   1.92684   1.93351
 Alpha virt. eigenvalues --    1.94439   1.95331   1.95800   2.06895   2.07796
 Alpha virt. eigenvalues --    2.08774   2.12225   2.36181   2.37276   2.38576
 Alpha virt. eigenvalues --    2.55755   2.56700   2.56817   2.57087   2.57592
 Alpha virt. eigenvalues --    2.57973   2.71003   2.72384   2.95387   2.98782
 Alpha virt. eigenvalues --    2.99316  10.74380
          Condensed to atoms (all electrons):
               1          2          3          4          5          6
     1  Mo  12.937008   0.147036   0.212946   0.149435  -0.014261  -0.013166
     2  C    0.147036   5.056878  -0.014216  -0.019987  -0.001935   0.639369
     3  C    0.212946  -0.014216   4.942685  -0.006995  -0.002529  -0.000074
     4  C    0.149435  -0.019987  -0.006995   5.035162   0.641237  -0.002126
     5  O   -0.014261  -0.001935  -0.002529   0.641237   7.599323   0.000035
     6  O   -0.013166   0.639369  -0.000074  -0.002126   0.000035   7.585375
     7  O   -0.013053  -0.000107   0.618340  -0.002670   0.000066   0.000001
     8  S    0.279592  -0.003434   0.007598  -0.004631  -0.000220  -0.000001
     9  H   -0.023285   0.000290  -0.000039   0.000701  -0.000004  -0.000001
    10  S    0.290046  -0.004283   0.001070  -0.007256   0.000020  -0.000178
    11  H   -0.030916   0.000731  -0.005063   0.000087  -0.000000  -0.000005
               7          8          9         10         11
     1  Mo  -0.013053   0.279592  -0.023285   0.290046  -0.030916
     2  C   -0.000107  -0.003434   0.000290  -0.004283   0.000731
     3  C    0.618340   0.007598  -0.000039   0.001070  -0.005063
     4  C   -0.002670  -0.004631   0.000701  -0.007256   0.000087
     5  O    0.000066  -0.000220  -0.000004   0.000020  -0.000000
     6  O    0.000001  -0.000001  -0.000001  -0.000178  -0.000005
     7  O    7.632284  -0.000411  -0.000002  -0.000975   0.000723
     8  S   -0.000411  15.589918   0.251646   0.010618  -0.001066
     9  H   -0.000002   0.251646   0.691793  -0.003518   0.000104
    10  S   -0.000975   0.010618  -0.003518  15.563316   0.261961
    11  H    0.000723  -0.001066   0.000104   0.261961   0.691766
 Mulliken charges:
               1
     1  Mo   0.078618
     2  C    0.199658
     3  C    0.246277
     4  C    0.217043
     5  O   -0.221733
     6  O   -0.209229
     7  O   -0.234197
     8  S   -0.129611
     9  H    0.082315
    10  S   -0.110820
    11  H    0.081679
 Sum of Mulliken charges =  -0.00000
 Mulliken charges with hydrogens summed into heavy atoms:
               1
     1  Mo   0.078618
     2  C    0.199658
     3  C    0.246277
     4  C    0.217043
     5  O   -0.221733
     6  O   -0.209229
     7  O   -0.234197
     8  S   -0.047296
    10  S   -0.029141
 Electronic spatial extent (au):  <R**2>=           3235.2877
 Charge=             -0.0000 electrons
 Dipole moment (field-independent basis, Debye):
    X=              0.4233    Y=              0.6334    Z=             -0.1323  Tot=              0.7732
 Quadrupole moment (field-independent basis, Debye-Ang):
   XX=            -88.6121   YY=            -81.5829   ZZ=            -81.4658
   XY=              0.4782   XZ=             -1.9711   YZ=             -1.0429
 Traceless Quadrupole moment (field-independent basis, Debye-Ang):
   XX=             -4.7252   YY=              2.3040   ZZ=              2.4211
   XY=              0.4782   XZ=             -1.9711   YZ=             -1.0429
 Octapole moment (field-independent basis, Debye-Ang**2):
  XXX=           -423.5900  YYY=            161.1076  ZZZ=            237.0834  XYY=           -126.4322
  XXY=             46.0998  XXZ=             74.4301  XZZ=           -122.6999  YZZ=             50.2897
  YYZ=             71.3963  XYZ=             -4.4985
 Hexadecapole moment (field-independent basis, Debye-Ang**3):
 XXXX=          -2450.9155 YYYY=           -859.3171 ZZZZ=          -1302.7551 XXXY=            260.3227
 XXXZ=            307.3108 YYYX=            257.4137 YYYZ=           -171.0041 ZZZX=            314.5135
 ZZZY=           -210.3291 XXYY=           -506.6855 XXZZ=           -600.6017 YYZZ=           -356.0321
 XXYZ=            -75.4778 YYXZ=             87.2319 ZZXY=             80.8767
 N-N= 6.204387325382D+02 E-N=-4.071288747784D+03  KE= 1.155871110642D+03
 Unable to Open any file for archive entry.
 1\1\GINC-NODE10-IB\FOpt\RB3LYP\Gen\C3H2Mo1O3S2\CHESAGAR\10-Mar-2022\0\
 \# opt freq b3lyp/gen nosymm pseudo=read\\Title Card Required\\0,1\Mo,
 1.5816740024,-0.3757861678,-0.8807472633\C,3.1784149948,-0.6526079374,
 -2.1471596818\C,1.2270005274,-2.1722976063,-0.1674846524\C,0.640274245
 8,-1.2020843709,-2.5171169305\O,0.1438916407,-1.7201425965,-3.41546019
 75\O,4.0522338654,-0.7289267816,-2.8892532057\O,0.9758238922,-3.202483
 6633,0.2898670716\S,-0.4493444259,0.8261970811,-0.6464563371\H,0.15782
 44687,1.986370924,-0.2893532717\S,3.2800161176,-0.059895354,0.77396705
 52\H,2.7784536708,-0.6851915273,1.8633284131\\Version=ES64L-G16RevC.01
 \HF=-1205.1778075\RMSD=9.426e-09\RMSF=3.203e-05\Dipole=0.1665241,0.249
 1956,-0.0520471\Quadrupole=-3.5130443,1.7129942,1.8000501,0.355558,-1.
 4654583,-0.7753532\PG=C01 [X(C3H2Mo1O3S2)]\\@
 The archive entry for this job was punched.


 IT IS BY LOGIC THAT WE PROVE, BUT BY INTUITION THAT WE DISCOVER.
     -- J.H.POINCARE (1854-1912)
 Job cpu time:       0 days  0 hours  8 minutes 39.1 seconds.
 Elapsed time:       0 days  0 hours  0 minutes 15.6 seconds.
 File lengths (MBytes):  RWF=     27 Int=      0 D2E=      0 Chk=      4 Scr=      2
 Normal termination of Gaussian 16 at Thu Mar 10 18:32:06 2022.
 Link1:  Proceeding to internal job step number  2.
 ------------------------------------------------------------------
 #N Geom=AllCheck Guess=TCheck SCRF=Check GenChk RB3LYP/ChkBas Freq
 ------------------------------------------------------------------
 1/10=4,29=7,30=1,38=1,40=1/1,3;
 2/12=2,15=1,40=1/2;
 3/5=7,6=2,11=2,14=-4,16=1,17=8,25=1,30=1,67=1,70=2,71=2,74=-5,82=7,116=1,140=1/1,2,3;
 4/5=101/1;
 5/5=2,38=6,98=1/2;
 8/6=4,10=90,11=11/1;
 11/6=1,8=1,9=11,15=111,16=1,31=1/1,2,10;
 10/6=1,31=1/2;
 6/7=2,8=2,9=2,10=2,28=1/1;
 7/8=1,10=1,25=1,30=1/1,2,3,16;
 1/10=4,30=1/3;
 99//99;
 Structure from the checkpoint file:  "/home/chesagar/scratch/Gau-51040.chk"
 -------------------
 Title Card Required
 -------------------
 Charge =  0 Multiplicity = 1
 Redundant internal coordinates found in file.  (old form).
 Mo,0,1.5816740024,-0.3757861678,-0.8807472633
 C,0,3.1784149948,-0.6526079374,-2.1471596818
 C,0,1.2270005274,-2.1722976063,-0.1674846524
 C,0,0.6402742458,-1.2020843709,-2.5171169305
 O,0,0.1438916407,-1.7201425965,-3.4154601975
 O,0,4.0522338654,-0.7289267816,-2.8892532057
 O,0,0.9758238922,-3.2024836633,0.2898670716
 S,0,-0.4493444259,0.8261970811,-0.6464563371
 H,0,0.1578244687,1.986370924,-0.2893532717
 S,0,3.2800161176,-0.059895354,0.7739670552
 H,0,2.7784536708,-0.6851915273,1.8633284131
[...]
 ITU=  0
     Eigenvalues ---    0.00461   0.00757   0.01915   0.02230   0.03643
     Eigenvalues ---    0.04245   0.05737   0.06979   0.07659   0.08323
     Eigenvalues ---    0.08399   0.08948   0.09620   0.10053   0.11825
     Eigenvalues ---    0.12128   0.13191   0.14087   0.14671   0.14986
     Eigenvalues ---    0.16039   0.19294   0.25350   0.25908   1.12083
     Eigenvalues ---    1.14971   1.17839
 Angle between quadratic step and forces=  55.05 degrees.
 Linear search not attempted -- first point.
 Iteration  1 RMS(Cart)=  0.00139305 RMS(Int)=  0.00000085
 Iteration  2 RMS(Cart)=  0.00000094 RMS(Int)=  0.00000017
 Variable       Old X    -DE/DX   Delta X   Delta X   Delta X     New X
                                 (Linear)    (Quad)   (Total)
    R1        3.88660  -0.00000   0.00000  -0.00049  -0.00049   3.88611
    R2        3.71368   0.00001   0.00000   0.00024   0.00024   3.71392
    R3        3.89426  -0.00000   0.00000   0.00019   0.00019   3.89446
    R4        4.48176  -0.00001   0.00000   0.00017   0.00017   4.48192
    R5        4.52045  -0.00001   0.00000  -0.00040  -0.00040   4.52005
    R6        2.17120  -0.00000   0.00000   0.00003   0.00003   2.17123
    R7        2.18224  -0.00001   0.00000  -0.00002  -0.00002   2.18222
    R8        2.17261  -0.00002   0.00000  -0.00003  -0.00003   2.17259
    R9        2.56487  -0.00001   0.00000  -0.00004  -0.00004   2.56483
   R10        2.55586   0.00000   0.00000   0.00001   0.00001   2.55588
    A1        1.81374  -0.00003   0.00000  -0.00022  -0.00022   1.81352
    A2        1.38141   0.00001   0.00000   0.00008   0.00008   1.38149
    A3        2.48799  -0.00001   0.00000  -0.00130  -0.00130   2.48670
    A4        1.46310   0.00002   0.00000   0.00088   0.00088   1.46399
    A5        1.40930  -0.00002   0.00000  -0.00014  -0.00014   1.40916
    A6        1.84720   0.00002   0.00000   0.00131   0.00131   1.84851
    A7        1.56859   0.00002   0.00000   0.00021   0.00021   1.56879
    A8        1.46102  -0.00002   0.00000  -0.00049  -0.00049   1.46053
    A9        2.75597   0.00004   0.00000   0.00099   0.00099   2.75696
   A10        2.06320  -0.00002   0.00000  -0.00047  -0.00047   2.06273
   A11        1.64698  -0.00002   0.00000  -0.00060  -0.00060   1.64639
   A12        1.80577  -0.00000   0.00000  -0.00002  -0.00002   1.80574
   A13        3.13732   0.00000   0.00000  -0.00010  -0.00010   3.13722
   A14        3.12650  -0.00008   0.00000  -0.00064  -0.00064   3.12586
   A15        3.12344  -0.00008   0.00000  -0.00065  -0.00065   3.12279
   A16        3.05808  -0.00005   0.00000  -0.00070  -0.00070   3.05738
   A17        3.08689   0.00002   0.00000   0.00026   0.00026   3.08715
   A18        3.08227   0.00004   0.00000   0.00044   0.00044   3.08271
    D1       -1.35356  -0.00001   0.00000  -0.00097  -0.00097  -1.35454
    D2        2.46159   0.00002   0.00000  -0.00087  -0.00087   2.46072
    D3       -2.45156  -0.00001   0.00000  -0.00140  -0.00140  -2.45296
    D4        0.74066  -0.00001   0.00000  -0.00171  -0.00171   0.73894
    D5       -2.45313   0.00001   0.00000   0.00022   0.00022  -2.45290
    D6       -0.63770  -0.00002   0.00000  -0.00005  -0.00005  -0.63775
    D7       -1.76075   0.00003   0.00000   0.00097   0.00097  -1.75979
    D8        1.24672   0.00002   0.00000   0.00149   0.00149   1.24821
         Item               Value     Threshold  Converged?
 Maximum Force            0.000080     0.000450     YES
 RMS     Force            0.000027     0.000300     YES
 Maximum Displacement     0.003612     0.001800     NO 
 RMS     Displacement     0.001393     0.001200     NO 
 Predicted change in Energy=-1.952758D-07
                           ----------------------------
                           ! Non-Optimized Parameters !
                           ! (Angstroms and Degrees)  !
 --------------------------                            --------------------------
 ! Name  Definition              Value          Derivative Info.                !
 --------------------------------------------------------------------------------
 ! R1    R(1,2)                  2.0564         -DE/DX =    0.0                 !
 ! R2    R(1,3)                  1.9653         -DE/DX =    0.0                 !
 ! R3    R(1,4)                  2.0609         -DE/DX =    0.0                 !
 ! R4    R(1,8)                  2.3717         -DE/DX =    0.0                 !
 ! R5    R(1,10)                 2.3919         -DE/DX =    0.0                 !
 ! R6    R(2,6)                  1.149          -DE/DX =    0.0                 !
 ! R7    R(3,7)                  1.1548         -DE/DX =    0.0                 !
 ! R8    R(4,5)                  1.1497         -DE/DX =    0.0                 !
 ! R9    R(8,9)                  1.3572         -DE/DX =    0.0                 !
 ! R10   R(10,11)                1.3525         -DE/DX =    0.0                 !
 ! A1    A(2,1,3)              103.9068         -DE/DX =    0.0                 !
 ! A2    A(2,1,4)               79.1537         -DE/DX =    0.0                 !
 ! A3    A(2,1,8)              142.4772         -DE/DX =    0.0                 !
 ! A4    A(2,1,10)              83.8802         -DE/DX =    0.0                 !
 ! A5    A(3,1,4)               80.7391         -DE/DX =    0.0                 !
 ! A6    A(3,1,8)              105.9118         -DE/DX =    0.0                 !
 ! A7    A(3,1,10)              89.8853         -DE/DX =    0.0                 !
 ! A8    A(4,1,8)               83.6823         -DE/DX =    0.0                 !
 ! A9    A(4,1,10)             157.9623         -DE/DX =    0.0                 !
 ! A10   A(8,1,10)             118.1855         -DE/DX =    0.0                 !
 ! A11   A(1,8,9)               94.331          -DE/DX =    0.0                 !
 ! A12   A(1,10,11)            103.4614         -DE/DX =    0.0                 !
 ! A13   L(1,2,6,5,-1)         179.7494         -DE/DX =    0.0                 !
 ! A14   L(1,3,7,11,-1)        179.0987         -DE/DX =   -0.0001              !
 ! A15   L(1,4,5,6,-1)         178.9227         -DE/DX =   -0.0001              !
 ! A16   L(1,2,6,5,-2)         175.175          -DE/DX =   -0.0001              !
 ! A17   L(1,3,7,11,-2)        176.8806         -DE/DX =    0.0                 !
 ! A18   L(1,4,5,6,-2)         176.626          -DE/DX =    0.0                 !
 ! D1    D(2,1,8,9)            -77.6093         -DE/DX =    0.0                 !
 ! D2    D(3,1,8,9)            140.9887         -DE/DX =    0.0                 !
 ! D3    D(4,1,8,9)           -140.544          -DE/DX =    0.0                 !
 ! D4    D(10,1,8,9)            42.3383         -DE/DX =    0.0                 !
 ! D5    D(2,1,10,11)         -140.5411         -DE/DX =    0.0                 !
 ! D6    D(3,1,10,11)          -36.5402         -DE/DX =    0.0                 !
 ! D7    D(4,1,10,11)         -100.8283         -DE/DX =    0.0                 !
 ! D8    D(8,1,10,11)           71.517          -DE/DX =    0.0                 !
 --------------------------------------------------------------------------------
 GradGradGradGradGradGradGradGradGradGradGradGradGradGradGradGradGradGrad


 ----------------------------------------------------------------------

 Electric dipole moment (input orientation):
 (Debye = 10**-18 statcoulomb cm , SI units = C m)
                  (au)            (Debye)         (10**-30 SI)
   Tot        0.304199D+00      0.773198D+00      0.257911D+01
   x          0.166521D+00      0.423253D+00      0.141182D+01
   y          0.249197D+00      0.633394D+00      0.211278D+01
   z         -0.520497D-01     -0.132297D+00     -0.441295D+00

 Dipole polarizability, Alpha (input orientation).
 (esu units = cm**3 , SI units = C**2 m**2 J**-1)
 Alpha(0;0):
               (au)            (10**-24 esu)      (10**-40 SI)
   iso        0.125217D+03      0.185552D+02      0.206455D+02
   aniso      0.372700D+02      0.552285D+01      0.614500D+01
   xx         0.140864D+03      0.208738D+02      0.232253D+02
   yx        -0.555839D+01     -0.823668D+00     -0.916454D+00
   yy         0.106989D+03      0.158541D+02      0.176401D+02
   zx         0.107013D+02      0.158576D+01      0.176440D+01
   zy         0.507244D+01      0.751657D+00      0.836332D+00
   zz         0.127799D+03      0.189378D+02      0.210711D+02

 ----------------------------------------------------------------------

 Dipole orientation:
    42          1.58497454          2.81113956          1.33920749
     6          2.72057515          6.15035600          2.97190272
     6          3.12401897          2.89988803         -2.03938441
     6         -0.83365054          5.32982792         -0.38466340
     8         -2.08608579          6.77932468         -1.40965164
     8          3.23690272          7.99302044          3.99762639
     8          3.98936235          2.84136300         -4.04186446
    16         -1.89842644          0.00896383          1.02318873
     1         -1.51472236         -1.04060909          3.33180565
    16          5.45631535          1.22360668          3.05003262
     1          6.33037103         -0.32116743          1.21097430

 Electric dipole moment (dipole orientation):
 (Debye = 10**-18 statcoulomb cm , SI units = C m)
                  (au)            (Debye)         (10**-30 SI)
   Tot        0.304199D+00      0.773198D+00      0.257911D+01
   x          0.000000D+00      0.000000D+00      0.000000D+00
   y          0.000000D+00      0.000000D+00      0.000000D+00
   z          0.304199D+00      0.773198D+00      0.257911D+01

 Dipole polarizability, Alpha (dipole orientation).
 (esu units = cm**3 , SI units = C**2 m**2 J**-1)
 Alpha(0;0):
               (au)            (10**-24 esu)      (10**-40 SI)
   iso        0.125217D+03      0.185552D+02      0.206455D+02
   aniso      0.372700D+02      0.552285D+01      0.614500D+01
   xx         0.141741D+03      0.210039D+02      0.233699D+02
   yx        -0.973212D+00     -0.144215D+00     -0.160461D+00
   yy         0.124573D+03      0.184598D+02      0.205393D+02
   zx         0.140774D+02      0.208606D+01      0.232106D+01
   zy         0.103967D+01      0.154064D+00      0.171419D+00
   zz         0.109337D+03      0.162021D+02      0.180272D+02

 ----------------------------------------------------------------------
 Unable to Open any file for archive entry.
 1\1\GINC-NODE10-IB\Freq\RB3LYP\Gen\C3H2Mo1O3S2\CHESAGAR\10-Mar-2022\0\
 \#N Geom=AllCheck Guess=TCheck SCRF=Check GenChk RB3LYP/ChkBas Freq\\T
 itle Card Required\\0,1\Mo,1.5816740024,-0.3757861678,-0.8807472633\C,
 3.1784149948,-0.6526079374,-2.1471596818\C,1.2270005274,-2.1722976063,
 -0.1674846524\C,0.6402742458,-1.2020843709,-2.5171169305\O,0.143891640
 7,-1.7201425965,-3.4154601975\O,4.0522338654,-0.7289267816,-2.88925320
 57\O,0.9758238922,-3.2024836633,0.2898670716\S,-0.4493444259,0.8261970
 811,-0.6464563371\H,0.1578244687,1.986370924,-0.2893532717\S,3.2800161
 176,-0.059895354,0.7739670552\H,2.7784536708,-0.6851915273,1.863328413
 1\\Version=ES64L-G16RevC.01\HF=-1205.1778075\RMSD=6.239e-09\RMSF=3.203
 e-05\ZeroPoint=0.0433902\Thermal=0.0555782\ETot=-1205.1222293\HTot=-12
 05.1212851\GTot=-1205.1744813\Dipole=0.1665207,0.2491966,-0.0520497\Di
 poleDeriv=0.056313,-0.6005295,0.4068764,-0.6455768,-0.7066557,0.116828
 9,0.4799016,0.0874491,-0.7505653,1.5468892,0.2046411,-1.1853122,-0.176
 3388,0.2326637,0.1754421,-1.0458485,0.0071051,1.354451,0.3609529,0.394
 1455,-0.0505623,0.5652457,2.1678812,-1.1000639,-0.2704156,-0.6569903,0
 .6306892,0.6974895,0.2842967,0.6909282,0.3796718,0.7061848,0.8434817,0
 .6489678,0.5391667,1.6496701,-0.4734192,-0.2578848,-0.5845521,-0.36047
 81,-0.4407178,-0.6736371,-0.5752231,-0.4638958,-1.2497607,-1.1527142,-
 0.0018806,0.8902326,0.0865341,-0.1320722,-0.0805284,0.9026669,-0.03652
 24,-0.913609,-0.2307568,-0.3288566,0.122061,-0.3657266,-1.525954,0.678
 9239,0.1722966,0.5668911,-0.4143049,-0.3421184,0.3185763,0.0823383,0.5
 235525,-0.2684706,0.1650255,0.1239272,0.083131,-0.1827527,-0.1324014,-
 0.0635231,-0.065336,0.0058337,-0.0088821,-0.047296,0.0224338,-0.086086
 5,0.1727692,-0.337161,0.135866,-0.3616759,0.1014887,-0.0629593,-0.1699
 178,-0.4042376,-0.034591,-0.3086033,0.0069264,-0.084851,0.055002,-0.11
 42063,0.038982,0.091741,-0.054469,-0.0056571,0.0120166\Polar=140.86370
 51,-5.5583885,106.9887327,10.7012534,5.072435,127.7985089\Quadrupole=-
 3.5130649,1.7130006,1.8000643,0.3555627,-1.4654745,-0.7753551\PG=C01 [
 X(C3H2Mo1O3S2)]\NImag=0\\0.26615184,0.01358444,0.35813822,-0.01819166,
 0.02686906,0.26888260,-0.04239342,0.01464268,0.02173185,0.72397152,0.0
 1945489,-0.06860379,-0.01412103,-0.06013282,0.08706270,0.01511454,-0.0
 2453448,-0.06101243,-0.54435500,0.06174753,0.54919880,-0.05498364,-0.0
 1206602,-0.00180232,0.00215148,-0.01455945,0.00024445,0.13776296,0.001
 07047,-0.14264440,0.00277035,-0.03251121,0.01779718,0.01921011,0.21611
 393,0.97338366,0.00734349,0.00074514,-0.03719473,0.00973206,0.00943896
 ,-0.00975259,-0.08704110,-0.37956239,0.26227720,-0.03488520,-0.0208106
 7,0.00362953,-0.02609857,-0.00665331,-0.00444658,0.00561568,0.00990015
 ,-0.00572386,0.29596466,-0.01094102,-0.06869802,-0.02038156,-0.0091996
 9,0.00212479,0.00973272,0.01099978,0.01619074,0.01678124,0.22067230,0.
 31481971,0.01114952,-0.01525000,-0.05817790,-0.00941504,-0.00332720,0.
 01495633,0.00121455,0.02198898,-0.02783529,0.36990735,0.38831539,0.767
 02571,0.00073811,-0.00555230,-0.02372264,0.00934616,-0.00032314,-0.004
 68547,-0.00319092,-0.00637285,0.00254371,-0.23847040,-0.21042906,-0.36
 142405,0.23418142,-0.01199684,0.01185722,-0.01905294,0.00702381,-0.001
 16723,-0.00706282,-0.00375132,-0.00779068,-0.00105854,-0.20961012,-0.2
 5653103,-0.37538378,0.22114339,0.24967842,-0.02857913,-0.01655185,-0.0
 2141173,0.00844815,-0.00006080,-0.01021208,-0.00349090,-0.01526151,0.0
 0908305,-0.36065223,-0.37619646,-0.69250005,0.38499005,0.39797123,0.71
 504899,-0.02781894,-0.00449681,0.02891163,-0.65878473,0.05556263,0.528
 47965,0.00046400,0.01397463,-0.00632139,0.00833684,0.00652324,0.011913
 73,-0.00432264,-0.00451051,-0.00709380,0.68219289,0.00088193,0.0226001
 7,-0.00075435,0.05632371,-0.04088396,-0.05045061,0.00326138,-0.0039376
 4,-0.00203693,0.00152753,-0.00038236,0.00119621,0.00012479,0.00033358,
 0.00005459,-0.05974485,0.02423787,0.03304506,0.00806749,-0.00932162,0.
 52709485,-0.04926570,-0.48446732,-0.00037592,-0.01114700,0.00650128,-0
 .00232586,-0.00613134,-0.00995316,0.00318245,0.00413681,0.00643054,-0.
 55990722,0.05120011,0.49341715,0.01446844,-0.01588977,0.00958169,0.002
 26060,0.00315561,-0.00130593,-0.08884465,-0.19776633,0.08674492,-0.002
 76401,-0.00318490,-0.00298448,0.00162826,0.00163464,0.00245351,-0.0015
 3113,-0.00072694,0.00105558,0.07447149,-0.02035296,-0.03979048,0.04056
 645,0.01576151,-0.00379114,-0.00941497,-0.20028138,-0.85286944,0.35889
 007,-0.00768649,-0.00921676,-0.01355854,0.00463264,0.00534078,0.009180
 51,-0.00777547,0.00079481,0.00615903,0.21252703,0.89789000,0.00568326,
 0.03302897,-0.00276875,-0.00560174,-0.00179126,0.00461456,0.08668514,0
 .35812321,-0.20144412,0.00477401,0.00018077,0.01086921,-0.00224070,-0.
 00175179,-0.00475014,0.00347794,0.00041296,-0.00324778,-0.09375713,-0.
 38801237,0.19530826,-0.08554616,0.02669604,0.00438060,-0.00839033,0.00
 637954,0.00936192,0.00816412,0.00044139,-0.00250473,-0.00157854,-0.001
 32782,-0.00237783,0.00063721,0.00155699,0.00249612,-0.00058674,-0.0025
 6182,0.00019470,-0.00107528,0.00205580,-0.00040103,0.15650063,0.018341
 35,-0.04278631,-0.00580685,0.01052290,0.00361883,-0.00388760,0.0047507
 2,0.00284900,0.00003611,0.00931966,-0.00291610,-0.00198957,-0.00250571
 ,-0.00027150,-0.00068806,-0.00069195,-0.00138859,-0.00092222,-0.000829
 95,-0.00065769,-0.00000359,0.05674040,0.21827527,0.00956410,-0.0113776
 5,-0.01978866,-0.00162841,0.00644321,0.00657785,0.00012231,-0.00328315
 ,0.00392378,0.00600806,-0.00299519,0.00026144,-0.00079038,0.00056171,-
 0.00028628,-0.00088878,-0.00202421,-0.00135208,-0.00049159,0.00037323,
 -0.00103286,0.02030660,0.06722440,0.03018783,0.01061643,0.01182091,0.0
 0306217,-0.00022215,-0.00234196,-0.00128282,-0.00389342,-0.00078261,0.
 00034730,-0.00178905,0.00043754,-0.00015933,0.00067781,0.00003555,0.00
 014588,0.00011219,0.00087581,0.00033139,0.00094294,0.00023637,-0.00007
 209,-0.06648637,-0.09890830,-0.02977642,0.06126996,0.00208636,-0.01242
 429,-0.00286289,-0.00092848,0.00326256,0.00143069,0.00118420,0.0004293
 0,-0.00034369,0.00065689,-0.00085763,0.00011983,-0.00010555,0.00024124
 ,0.00023560,0.00035472,-0.00104958,-0.00057968,-0.00037798,0.00001085,
 -0.00007422,-0.09182612,-0.17943716,-0.05529038,0.08949120,0.18912905,
 -0.00131590,0.00050766,0.00044554,0.00006432,-0.00604586,-0.00003662,0
 .00144992,0.00320260,-0.00184945,-0.00009117,-0.00179596,-0.00107122,0
 .00006612,0.00077779,0.00075307,0.00005921,0.00188183,0.00033021,-0.00
 010219,-0.00098608,0.00062446,-0.02928483,-0.05618034,-0.02110105,0.02
 804602,0.05748534,0.02221911,-0.05033345,-0.01356824,-0.01578537,-0.00
 016887,-0.00006022,0.00246686,-0.00334934,-0.00439011,-0.00331292,-0.0
 0175444,-0.00051568,-0.02157795,-0.00207886,-0.00245305,0.00290255,0.0
 0119302,-0.00010854,-0.00196517,0.00057560,0.00138621,0.00086048,-0.00
 216625,0.00302472,-0.00306864,-0.00089806,-0.00074742,0.00148441,0.107
 91527,-0.01108703,-0.01873962,-0.00760714,-0.00202237,0.00021739,0.005
 12688,-0.00869659,-0.00640736,-0.00107782,0.00169412,0.00372050,0.0002
 1271,-0.00029594,-0.00127522,0.00044620,0.00103494,-0.00025959,-0.0021
 9571,0.00207075,0.00340257,-0.00085940,0.00481035,0.00380162,0.0000201
 5,-0.00203689,0.00113420,0.00128639,0.06519718,0.07977651,-0.03168119,
 -0.00308843,-0.05044799,-0.00620673,-0.00305988,-0.00761551,0.00182024
 ,0.00015486,-0.00180714,-0.01079855,-0.00717095,-0.00547687,0.00201322
 ,0.00077448,-0.00147033,0.00174085,0.00044327,0.00070356,-0.00045777,-
 0.00078826,0.00098230,-0.00097223,0.00313075,0.00175963,-0.00117966,-0
 .00010836,0.00020183,-0.03601943,-0.08575194,0.22510537,0.00398598,0.0
 0563974,-0.01179549,-0.00167168,-0.00048176,0.00040838,0.00010372,0.00
 032254,-0.00180749,-0.00257697,-0.00303470,0.00375353,0.00085386,0.000
 92745,-0.00162020,0.00074524,0.00014699,-0.00032987,-0.00013226,-0.000
 50325,0.00059185,0.00052772,0.00023616,0.00064315,-0.00033028,0.000212
 18,-0.00037592,-0.04893462,-0.05066852,0.08174126,0.04742930,-0.001041
 59,0.00109130,0.00038091,0.00051996,0.00036266,-0.00189744,0.00304475,
 0.00299963,-0.00181215,0.00098992,0.00174617,-0.00232403,-0.00031627,-
 0.00041558,0.00087055,-0.00023058,-0.00006471,0.00067820,-0.00061216,-
 0.00111349,0.00074672,-0.00296477,-0.00108735,0.00034789,0.00117239,-0
 .00043854,-0.00013338,-0.04776483,-0.06537100,0.09546445,0.04720318,0.
 06229091,-0.00213209,0.00158408,-0.00920434,0.00013569,0.00004203,-0.0
 0225099,0.00117364,0.00380393,-0.00190199,-0.00028070,-0.00033865,0.00
 190181,0.00006768,0.00008785,-0.00068505,-0.00037182,0.00007714,0.0009
 5921,-0.00073660,-0.00240906,0.00084485,-0.00119930,-0.00091302,0.0008
 5041,0.00053754,-0.00001224,-0.00051588,0.07401517,0.09039968,-0.16193
 485,-0.07120920,-0.09232174,0.17193683\\-0.00007199,-0.00005995,0.0000
 0230,-0.00000063,0.00004935,-0.00000887,0.00003801,0.00003111,0.000060
 52,0.00007615,0.00004364,-0.00005160,-0.00003505,-0.00002520,0.0000119
 0,0.00000678,-0.00002232,0.00000636,-0.00002583,-0.00001028,-0.0000243
 3,-0.00000564,-0.00000971,0.00001348,-0.00000425,0.00001079,-0.0000037
 3,0.00002894,-0.00002228,-0.00000998,-0.00000649,0.00001484,0.00000395
 \\\@
 The archive entry for this job was punched.


 In the race for quality, there is no finish line.
                               -- David T. Kearns
 Job cpu time:       0 days  0 hours 10 minutes 12.7 seconds.
 Elapsed time:       0 days  0 hours  0 minutes 13.7 seconds.
 File lengths (MBytes):  RWF=    103 Int=      0 D2E=      0 Chk=      4 Scr=      2
 Normal termination of Gaussian 16 at Thu Mar 10 18:32:21 2022.
