 Entering Gaussian System, Link 0=g16
 Initial command:
 /home/chesagar/softwares/G16_AVX2//g16/l1.exe "/home/chesagar/scratch/Gau-40677.inp" -scrdir="/home/chesagar/scratch/"
 Entering Link 1 = /home/chesagar/softwares/G16_AVX2//g16/l1.exe PID=     40678.
  
 Copyright (c) 1988-2019, Gaussian, Inc.  All Rights Reserved.
  
 This is part of the Gaussian(R) 16 program.  It is based on
 the Gaussian(R) 09 system (copyright 2009, Gaussian, Inc.),
 the Gaussian(R) 03 system (copyright 2003, Gaussian, Inc.),
 the Gaussian(R) 98 system (copyright 1998, Gaussian, Inc.),
 the Gaussian(R) 94 system (copyright 1995, Gaussian, Inc.),
 the Gaussian 92(TM) system (copyright 1992, Gaussian, Inc.),
 the Gaussian 90(TM) system (copyright 1990, Gaussian, Inc.),
 the Gaussian 88(TM) system (copyright 1988, Gaussian, Inc.),
 the Gaussian 86(TM) system (copyright 1986, Carnegie Mellon
 University), and the Gaussian 82(TM) system (copyright 1983,
 Carnegie Mellon University). Gaussian is a federally registered
 trademark of Gaussian, Inc.
  
 This software contains proprietary and confidential information,
 including trade secrets, belonging to Gaussian, Inc.
  
 This software is provided under written license and may be
 used, copied, transmitted, or stored only in accord with that
 written license.
  
 The following legend is applicable only to US Government
 contracts under FAR:
  
                    RESTRICTED RIGHTS LEGEND
  
 Use, reproduction and disclosure by the US Government is
 subject to restrictions as set forth in subparagraphs (a)
 and (c) of the Commercial Computer Software - Restricted
 Rights clause in FAR 52.227-19.
  
 Gaussian, Inc.
 340 Quinnipiac St., Bldg. 40, Wallingford CT 06492
  
  
 ---------------------------------------------------------------
 Warning -- This program may not be used in any manner that
 competes with the business of Gaussian, Inc. or will provide
 assistance to any competitor of Gaussian, Inc.  The licensee
 of this program is prohibited from giving any competitor of
 Gaussian, Inc. access to this program.  By using this program,
 the user acknowledges that Gaussian, Inc. is engaged in the
 business of creating and licensing software in the field of
 computational chemistry and represents and warrants to the
 licensee that it is not a competitor of Gaussian, Inc. and that
 it will not use this program in any manner prohibited above.
 ---------------------------------------------------------------
  

 Cite this work as:
 Gaussian 16, Revision C.01,
 M. J. Frisch, G. W. Trucks, H. B. Schlegel, G. E. Scuseria, 
 M. A. Robb, J. R. Cheeseman, G. Scalmani, V. Barone, 
 G. A. Petersson, H. Nakatsuji, X. Li, M. Caricato, A. V. Marenich, 
 J. Bloino, B. G. Janesko, R. Gomperts, B. Mennucci, H. P. Hratchian, 
 J. V. Ortiz, A. F. Izmaylov, J. L. Sonnenberg, D. Williams-Young, 
 F. Ding, F. Lipparini, F. Egidi, J. Goings, B. Peng, A. Petrone, 
 T. Henderson, D. Ranasinghe, V. G. Zakrzewski, J. Gao, N. Rega, 
 G. Zheng, W. Liang, M. Hada, M. Ehara, K. Toyota, R. Fukuda, 
 J. Hasegawa, M. Ishida, T. Nakajima, Y. Honda, O. Kitao, H. Nakai, 
 T. Vreven, K. Throssell, J. A. Montgomery, Jr., J. E. Peralta, 
 F. Ogliaro, M. J. Bearpark, J. J. Heyd, E. N. Brothers, K. N. Kudin, 
 V. N. Staroverov, T. A. Keith, R. Kobayashi, J. Normand, 
 K. Raghavachari, A. P. Rendell, J. C. Burant, S. S. Iyengar, 
 J. Tomasi, M. Cossi, J. M. Millam, M. Klene, C. Adamo, R. Cammi, 
 J. W. Ochterski, R. L. Martin, K. Morokuma, O. Farkas, 
 J. B. Foresman, and D. J. Fox, Gaussian, Inc., Wallingford CT, 2019.
 
 ******************************************
 Gaussian 16:  ES64L-G16RevC.01  3-Jul-2019
                11-Mar-2022 
 ******************************************
 %nprocshared=48
 Will use up to   48 processors via shared memory.
 %mem=32GB
 ---------------------------------------
 # opt freq b3lyp/gen nosymm pseudo=read
 ---------------------------------------
 1/18=20,19=15,26=3,38=1/1,3;
 2/9=110,12=2,15=1,17=6,18=5,40=1/2;
 3/5=7,11=2,16=1,17=8,25=1,30=1,71=1,74=-5/1,2,3;
 4//1;
 5/5=2,38=5/2;
 6/7=2,8=2,9=2,10=2,28=1/1;
 7/30=1/1,2,3,16;
 1/18=20,19=15,26=3/3(2);
 2/9=110,15=1/2;
 99//99;
 2/9=110,15=1/2;
 3/5=7,6=1,11=2,16=1,17=8,25=1,30=1,71=1,74=-5,82=7/1,2,3;
 4/5=5,16=3,69=1/1;
 5/5=2,38=5/2;
 7/30=1/1,2,3,16;
 1/18=20,19=15,26=3/3(-5);
 2/9=110,15=1/2;
 6/7=2,8=2,9=2,10=2,19=2,28=1/1;
 99/9=1/99;
 -------------------
 Title Card Required
 -------------------
 Symbolic Z-matrix:
 Charge =  0 Multiplicity = 1
 42                    1.98769  -0.23982  -0.32911 
 6                     3.12676  -0.65994  -1.99865 
 6                     1.50709  -2.05422   0.07665 
 8                     3.78304  -0.82569  -2.92596 
 8                     1.18845  -3.13211   0.37798 
 16                   -0.13386   0.67822  -0.42524 
 1                     0.16856   1.98859  -0.63242 
 16                    3.3319    0.19756   1.49145 
 1                     3.01221  -0.72066   2.43484 
 

 GradGradGradGradGradGradGradGradGradGradGradGradGradGradGradGradGradGrad
 Berny optimization.
 Initialization pass.
                           ----------------------------
                           !    Initial Parameters    !
                           ! (Angstroms and Degrees)  !
 --------------------------                            --------------------------
 ! Name  Definition              Value          Derivative Info.                !
 --------------------------------------------------------------------------------
 ! R1    R(1,2)                  2.0643         estimate D2E/DX2                !
 ! R2    R(1,3)                  1.9203         estimate D2E/DX2                !
 ! R3    R(1,6)                  2.3137         estimate D2E/DX2                !
 ! R4    R(1,8)                  2.3049         estimate D2E/DX2                !
 ! R5    R(2,4)                  1.1481         estimate D2E/DX2                !
 ! R6    R(3,5)                  1.1637         estimate D2E/DX2                !
 ! R7    R(6,7)                  1.3607         estimate D2E/DX2                !
 ! R8    R(8,9)                  1.3547         estimate D2E/DX2                !
 ! A1    A(2,1,3)               96.7016         estimate D2E/DX2                !
 ! A2    A(2,1,6)              123.582          estimate D2E/DX2                !
 ! A3    A(2,1,8)              110.8319         estimate D2E/DX2                !
 ! A4    A(3,1,6)               98.8701         estimate D2E/DX2                !
 ! A5    A(3,1,8)               99.1111         estimate D2E/DX2                !
 ! A6    A(6,1,8)              119.4912         estimate D2E/DX2                !
 ! A7    A(1,6,7)              100.6404         estimate D2E/DX2                !
 ! A8    A(1,8,9)              106.4867         estimate D2E/DX2                !
 ! A9    L(1,2,4,5,-1)         183.5075         estimate D2E/DX2                !
 ! A10   L(1,3,5,9,-1)         177.9929         estimate D2E/DX2                !
 ! A11   L(1,2,4,5,-2)         180.9184         estimate D2E/DX2                !
 ! A12   L(1,3,5,9,-2)         177.3028         estimate D2E/DX2                !
 ! D1    D(2,1,6,7)            -79.3068         estimate D2E/DX2                !
 ! D2    D(3,1,6,7)            176.4883         estimate D2E/DX2                !
 ! D3    D(8,1,6,7)             70.6821         estimate D2E/DX2                !
 ! D4    D(2,1,8,9)           -120.4765         estimate D2E/DX2                !
 ! D5    D(3,1,8,9)            -19.6708         estimate D2E/DX2                !
 ! D6    D(6,1,8,9)             86.0001         estimate D2E/DX2                !
 --------------------------------------------------------------------------------
 Trust Radius=3.00D-01 FncErr=1.00D-07 GrdErr=1.00D-06 EigMax=2.50D+02 EigMin=1.00D-04
 Number of steps in this run=     36 maximum allowed number of steps=    100.
 GradGradGradGradGradGradGradGradGradGradGradGradGradGradGradGradGradGrad

                          Input orientation:                          
 ---------------------------------------------------------------------
 Center     Atomic      Atomic             Coordinates (Angstroms)
 Number     Number       Type             X           Y           Z
 ---------------------------------------------------------------------
      1         42           0        1.987687   -0.239819   -0.329113
      2          6           0        3.126759   -0.659939   -1.998652
      3          6           0        1.507089   -2.054220    0.076653
      4          8           0        3.783043   -0.825691   -2.925963
      5          8           0        1.188445   -3.132108    0.377978
      6         16           0       -0.133860    0.678219   -0.425238
      7          1           0        0.168559    1.988587   -0.632415
      8         16           0        3.331897    0.197560    1.491445
      9          1           0        3.012211   -0.720663    2.434835
 ---------------------------------------------------------------------
                    Distance matrix (angstroms):
                    1          2          3          4          5
     1  Mo   0.000000
     2  C    2.064303   0.000000
     3  C    1.920331   2.978966   0.000000
     4  O    3.210947   1.148080   3.962948   0.000000
     5  O    3.082872   3.939169   1.163690   4.792445   0.000000
     6  S    2.313654   3.859784   3.226582   4.884414   4.112449
     7  H    2.892579   4.199076   4.317259   5.122989   5.318137
     8  S    2.304915   3.599745   3.225225   4.556761   4.113500
     9  H    2.986682   4.435382   3.099159   5.416952   3.656754
                    6          7          8          9
     6  S    0.000000
     7  H    1.360678   0.000000
     8  S    3.989509   4.210139   0.000000
     9  H    4.476008   4.983414   1.354739   0.000000
 Symmetry turned off by external request.
 Stoichiometry    C2H2MoO2S2
 Framework group  C1[X(C2H2MoO2S2)]
 Deg. of freedom    21
 Full point group                 C1      NOp   1
 Rotational constants (GHZ):           1.1054227           0.9881635           0.9044206
 General basis read from cards:  (5D, 7F)
 ======================================================================================================
                                       Pseudopotential Parameters
 ======================================================================================================
  Center     Atomic      Valence      Angular      Power
  Number     Number     Electrons     Momentum     of R      Exponent        Coefficient   SO-Coeffient
 ======================================================================================================
    1         42           14
                                      F and up 
                                                     0      537.9667807       -0.04694920    0.00000000
                                                     1      147.8982938      -20.20800840    0.00000000
                                                     2       45.7358898     -106.21163020    0.00000000
                                                     2       13.2911467      -41.81073680    0.00000000
                                                     2        4.7059961       -4.20541030    0.00000000
                                      S - F
                                                     0      110.2991760        2.80637170    0.00000000
                                                     1       23.2014645       44.51620120    0.00000000
                                                     2        5.3530131       82.77852270    0.00000000
                                      P - F
                                                     0       63.2901397        4.94208760    0.00000000
                                                     1       23.3315302       25.86049760    0.00000000
                                                     2       24.6759423      132.47087420    0.00000000
                                                     2        4.6493040       57.31497940    0.00000000
                                      D - F
                                                     0      104.4839977        3.00545910    0.00000000
                                                     1       66.2307245       26.36378510    0.00000000
                                                     2       39.1283176      183.38491990    0.00000000
                                                     2       13.1164437       98.44530680    0.00000000
                                                     2        3.6280263       22.49013770    0.00000000
    2          6
                                   No pseudopotential on this center.
    3          6
                                   No pseudopotential on this center.
    4          8
                                   No pseudopotential on this center.
    5          8
                                   No pseudopotential on this center.
    6         16
                                   No pseudopotential on this center.
    7          1
                                   No pseudopotential on this center.
    8         16
                                   No pseudopotential on this center.
    9          1
                                   No pseudopotential on this center.
 ======================================================================================================
   124 basis functions,   279 primitive gaussians,   132 cartesian basis functions
    38 alpha electrons       38 beta electrons
       nuclear repulsion energy       438.0071355548 Hartrees.
 NAtoms=    9 NActive=    9 NUniq=    9 SFac= 1.00D+00 NAtFMM=   60 NAOKFM=F Big=F
 Integral buffers will be    131072 words long.
 Raffenetti 2 integral format.
 Two-electron integral symmetry is turned off.
 One-electron integrals computed using PRISM.
   1 Symmetry operations used in ECPInt.
 ECPInt:  NShTT=     820 NPrTT=    5722 LenC2=     785 LenP2D=    3933.
 LDataN:  DoStor=T MaxTD1= 5 Len=  102
 NBasis=   124 RedAO= T EigKep=  5.21D-03  NBF=   124
 NBsUse=   124 1.00D-06 EigRej= -1.00D+00 NBFU=   124
 Defaulting to unpruned grid for atomic number  42.
 ExpMin= 2.47D-02 ExpMax= 2.19D+04 ExpMxC= 3.30D+03 IAcc=3 IRadAn=         5 AccDes= 0.00D+00
 Harris functional with IExCor=  402 and IRadAn=       5 diagonalized for initial guess.
 HarFok:  IExCor=  402 AccDes= 0.00D+00 IRadAn=         5 IDoV= 1 UseB2=F ITyADJ=14
 ICtDFT=  3500011 ScaDFX=  1.000000  1.000000  1.000000  1.000000
 Defaulting to unpruned grid for atomic number  42.
 FoFCou: FMM=F IPFlag=           0 FMFlag=      100000 FMFlg1=           0
         NFxFlg=           0 DoJE=T BraDBF=F KetDBF=T FulRan=T
         wScrn=  0.000000 ICntrl=       500 IOpCl=  0 I1Cent=   200000004 NGrid=           0
         NMat0=    1 NMatS0=      1 NMatT0=    0 NMatD0=    1 NMtDS0=    0 NMtDT0=    0
 Symmetry not used in FoFCou.
 Keep R1 ints in memory in canonical form, NReq=76097989.
 Requested convergence on RMS density matrix=1.00D-08 within 128 cycles.
 Requested convergence on MAX density matrix=1.00D-06.
 Requested convergence on             energy=1.00D-06.
 No special actions if energy rises.
 Defaulting to unpruned grid for atomic number  42.
 Defaulting to unpruned grid for atomic number  42.
 Defaulting to unpruned grid for atomic number  42.
 Defaulting to unpruned grid for atomic number  42.
 Defaulting to unpruned grid for atomic number  42.
 Defaulting to unpruned grid for atomic number  42.
 Defaulting to unpruned grid for atomic number  42.
 Defaulting to unpruned grid for atomic number  42.
 Defaulting to unpruned grid for atomic number  42.
 Defaulting to unpruned grid for atomic number  42.
 Defaulting to unpruned grid for atomic number  42.
 Defaulting to unpruned grid for atomic number  42.
 Defaulting to unpruned grid for atomic number  42.
 Defaulting to unpruned grid for atomic number  42.
 Defaulting to unpruned grid for atomic number  42.
 Defaulting to unpruned grid for atomic number  42.
 Defaulting to unpruned grid for atomic number  42.
 Defaulting to unpruned grid for atomic number  42.
 Defaulting to unpruned grid for atomic number  42.
 Defaulting to unpruned grid for atomic number  42.
 Defaulting to unpruned grid for atomic number  42.
 Defaulting to unpruned grid for atomic number  42.
 Defaulting to unpruned grid for atomic number  42.
 Defaulting to unpruned grid for atomic number  42.
 Defaulting to unpruned grid for atomic number  42.
 Defaulting to unpruned grid for atomic number  42.
 Defaulting to unpruned grid for atomic number  42.
 Defaulting to unpruned grid for atomic number  42.
 Defaulting to unpruned grid for atomic number  42.
 Defaulting to unpruned grid for atomic number  42.
 Defaulting to unpruned grid for atomic number  42.
 Defaulting to unpruned grid for atomic number  42.
 Defaulting to unpruned grid for atomic number  42.
 Defaulting to unpruned grid for atomic number  42.
 Defaulting to unpruned grid for atomic number  42.
 Defaulting to unpruned grid for atomic number  42.
 Defaulting to unpruned grid for atomic number  42.
 Defaulting to unpruned grid for atomic number  42.
 Defaulting to unpruned grid for atomic number  42.
 Defaulting to unpruned grid for atomic number  42.
 Defaulting to unpruned grid for atomic number  42.
 Defaulting to unpruned grid for atomic number  42.
 Defaulting to unpruned grid for atomic number  42.
 Defaulting to unpruned grid for atomic number  42.
 Defaulting to unpruned grid for atomic number  42.
 Defaulting to unpruned grid for atomic number  42.
 Defaulting to unpruned grid for atomic number  42.
 Defaulting to unpruned grid for atomic number  42.
 EnCoef did   100 forward-backward iterations
 EnCoef did   100 forward-backward iterations
 EnCoef did     2 forward-backward iterations
 SCF Done:  E(RB3LYP) =  -1091.82878222     A.U. after   19 cycles
            NFock= 19  Conv=0.53D-08     -V/T= 2.0463

 **********************************************************************

            Population analysis using the SCF Density.

 **********************************************************************

 Alpha  occ. eigenvalues --  -88.87679 -88.87248 -19.27593 -19.21778 -10.34158
 Alpha  occ. eigenvalues --  -10.29691  -7.95535  -7.95090  -5.91784  -5.91409
 Alpha  occ. eigenvalues --   -5.91366  -5.91247  -5.90947  -5.90787  -2.50056
 Alpha  occ. eigenvalues --   -1.53585  -1.52728  -1.51536  -1.17616  -1.11738
 Alpha  occ. eigenvalues --   -0.73041  -0.72416  -0.60093  -0.55835  -0.49225
 Alpha  occ. eigenvalues --   -0.49223  -0.48346  -0.44750  -0.44669  -0.44394
 Alpha  occ. eigenvalues --   -0.42743  -0.41832  -0.33044  -0.32689  -0.30322
 Alpha  occ. eigenvalues --   -0.27688  -0.24682  -0.23013
 Alpha virt. eigenvalues --   -0.14544  -0.09419  -0.08383  -0.02935  -0.01409
 Alpha virt. eigenvalues --   -0.00674   0.00077   0.01612   0.02618   0.03244
 Alpha virt. eigenvalues --    0.03676   0.06122   0.08257   0.17211   0.21416
 Alpha virt. eigenvalues --    0.23361   0.24677   0.26208   0.31341   0.33340
 Alpha virt. eigenvalues --    0.34688   0.35262   0.36179   0.36585   0.38810
 Alpha virt. eigenvalues --    0.39719   0.44825   0.47555   0.50015   0.52657
 Alpha virt. eigenvalues --    0.52883   0.60164   0.61729   0.67290   0.68602
 Alpha virt. eigenvalues --    0.69862   0.72452   0.73273   0.74260   0.74925
 Alpha virt. eigenvalues --    0.76551   0.80211   0.82091   0.83342   0.85928
 Alpha virt. eigenvalues --    0.86354   0.87891   0.92786   0.95550   0.98786
 Alpha virt. eigenvalues --    1.01110   1.01930   1.06729   1.06805   1.12186
 Alpha virt. eigenvalues --    1.13895   1.18143   1.46143   1.46819   1.48870
 Alpha virt. eigenvalues --    1.49178   1.51705   1.54224   1.54475   1.58040
 Alpha virt. eigenvalues --    1.66521   1.70848   1.91355   1.92132   1.96094
 Alpha virt. eigenvalues --    1.96449   2.06804   2.07232   2.07915   2.10254
 Alpha virt. eigenvalues --    2.35253   2.38576   2.55196   2.55214   2.57915
 Alpha virt. eigenvalues --    2.58066   2.70458   2.71607   2.95012   2.99262
 Alpha virt. eigenvalues --    9.64551
          Condensed to atoms (all electrons):
               1          2          3          4          5          6
     1  Mo  12.883674   0.162328   0.276023  -0.011100  -0.024304   0.264863
     2  C    0.162328   5.060451  -0.005965   0.632712  -0.000689  -0.003449
     3  C    0.276023  -0.005965   4.904819  -0.000497   0.601660  -0.000683
     4  O   -0.011100   0.632712  -0.000497   7.570063   0.000006  -0.000053
     5  O   -0.024304  -0.000689   0.601660   0.000006   7.684109   0.000004
     6  S    0.264863  -0.003449  -0.000683  -0.000053   0.000004  15.654919
     7  H   -0.022854   0.000228   0.000123  -0.000001  -0.000003   0.229490
     8  S    0.271256  -0.004452  -0.007186  -0.000188  -0.000385   0.022941
     9  H   -0.034621   0.000098  -0.003307  -0.000001   0.000730  -0.000589
               7          8          9
     1  Mo  -0.022854   0.271256  -0.034621
     2  C    0.000228  -0.004452   0.000098
     3  C    0.000123  -0.007186  -0.003307
     4  O   -0.000001  -0.000188  -0.000001
     5  O   -0.000003  -0.000385   0.000730
     6  S    0.229490   0.022941  -0.000589
     7  H    0.727193  -0.000161   0.000027
     8  S   -0.000161  15.625058   0.259975
     9  H    0.000027   0.259975   0.685758
 Mulliken charges:
               1
     1  Mo   0.234733
     2  C    0.158738
     3  C    0.235012
     4  O   -0.190941
     5  O   -0.261126
     6  S   -0.167443
     7  H    0.065957
     8  S   -0.166859
     9  H    0.091930
 Sum of Mulliken charges =  -0.00000
 Mulliken charges with hydrogens summed into heavy atoms:
               1
     1  Mo   0.234733
     2  C    0.158738
     3  C    0.235012
     4  O   -0.190941
     5  O   -0.261126
     6  S   -0.101487
     8  S   -0.074929
 Electronic spatial extent (au):  <R**2>=           2678.1469
 Charge=             -0.0000 electrons
 Dipole moment (field-independent basis, Debye):
    X=              1.0992    Y=              1.3397    Z=             -0.9241  Tot=              1.9639
 Quadrupole moment (field-independent basis, Debye-Ang):
   XX=            -71.9102   YY=            -72.6896   ZZ=            -68.9459
   XY=             -0.1293   XZ=             -1.9622   YZ=             -2.2865
 Traceless Quadrupole moment (field-independent basis, Debye-Ang):
   XX=             -0.7283   YY=             -1.5077   ZZ=              2.2360
   XY=             -0.1293   XZ=             -1.9622   YZ=             -2.2865
 Octapole moment (field-independent basis, Debye-Ang**2):
  XXX=           -428.2154  YYY=            109.2877  ZZZ=             55.9016  XYY=           -140.6229
  XXY=             22.2101  XXZ=             11.2310  XZZ=           -135.3725  YZZ=             22.3178
  YYZ=              8.5729  XYZ=             -7.7030
 Hexadecapole moment (field-independent basis, Debye-Ang**3):
 XXXX=          -2477.0782 YYYY=           -688.1787 ZZZZ=           -702.2096 XXXY=            181.2377
 XXXZ=             76.8077 YYYX=            220.7839 YYYZ=            -29.4227 ZZZX=            130.9078
 ZZZY=            -54.1713 XXYY=           -499.5280 XXZZ=           -527.6550 YYZZ=           -220.8037
 XXYZ=            -41.2954 YYXZ=             22.5346 ZZXY=             54.7154
 N-N= 4.380071355548D+02 E-N=-3.441343878025D+03  KE= 1.043482325889D+03
   1 Symmetry operations used in ECPInt.
 ECPInt:  NShTT=     820 NPrTT=    5722 LenC2=     785 LenP2D=    3933.
 LDataN:  DoStor=T MaxTD1= 6 Len=  172
 Calling FoFJK, ICntrl=      2127 FMM=F ISym2X=0 I1Cent= 0 IOpClX= 0 NMat=1 NMatS=1 NMatT=0.
 Defaulting to unpruned grid for atomic number  42.
 Defaulting to unpruned grid for atomic number  42.
 Defaulting to unpruned grid for atomic number  42.
 Defaulting to unpruned grid for atomic number  42.
 Defaulting to unpruned grid for atomic number  42.
 Defaulting to unpruned grid for atomic number  42.
 Defaulting to unpruned grid for atomic number  42.
 Defaulting to unpruned grid for atomic number  42.
 Defaulting to unpruned grid for atomic number  42.
 Defaulting to unpruned grid for atomic number  42.
 Defaulting to unpruned grid for atomic number  42.
 Defaulting to unpruned grid for atomic number  42.
 Defaulting to unpruned grid for atomic number  42.
 Defaulting to unpruned grid for atomic number  42.
 Defaulting to unpruned grid for atomic number  42.
 Defaulting to unpruned grid for atomic number  42.
 Defaulting to unpruned grid for atomic number  42.
 Defaulting to unpruned grid for atomic number  42.
 Defaulting to unpruned grid for atomic number  42.
 Defaulting to unpruned grid for atomic number  42.
 Defaulting to unpruned grid for atomic number  42.
 Defaulting to unpruned grid for atomic number  42.
 Defaulting to unpruned grid for atomic number  42.
 Defaulting to unpruned grid for atomic number  42.
 Defaulting to unpruned grid for atomic number  42.
 Defaulting to unpruned grid for atomic number  42.
 Defaulting to unpruned grid for atomic number  42.
 Defaulting to unpruned grid for atomic number  42.
 Defaulting to unpruned grid for atomic number  42.
 Defaulting to unpruned grid for atomic number  42.
 Defaulting to unpruned grid for atomic number  42.
 Defaulting to unpruned grid for atomic number  42.
 Defaulting to unpruned grid for atomic number  42.
 Defaulting to unpruned grid for atomic number  42.
 Defaulting to unpruned grid for atomic number  42.
 Defaulting to unpruned grid for atomic number  42.
 Defaulting to unpruned grid for atomic number  42.
 Defaulting to unpruned grid for atomic number  42.
 Defaulting to unpruned grid for atomic number  42.
 Defaulting to unpruned grid for atomic number  42.
 Defaulting to unpruned grid for atomic number  42.
 Defaulting to unpruned grid for atomic number  42.
 Defaulting to unpruned grid for atomic number  42.
 Defaulting to unpruned grid for atomic number  42.
 Defaulting to unpruned grid for atomic number  42.
 Defaulting to unpruned grid for atomic number  42.
 Defaulting to unpruned grid for atomic number  42.
 Defaulting to unpruned grid for atomic number  42.
 -------------------------------------------------------------------
 Center     Atomic                   Forces (Hartrees/Bohr)
 Number     Number              X              Y              Z
 -------------------------------------------------------------------
      1       42           0.000434518    0.000496712    0.000453814
      2        6          -0.001187585    0.000858905    0.001345744
      3        6          -0.000656345   -0.001095654    0.000140216
      4        8           0.000394402   -0.000326017   -0.001170397
      5        8           0.000266384    0.000642146   -0.000092430
      6       16           0.000738899   -0.000499053   -0.000570270
      7        1          -0.000000763   -0.000005978   -0.000107174
      8       16           0.000012844   -0.000103697   -0.000005835
      9        1          -0.000002355    0.000032636    0.000006332
 -------------------------------------------------------------------
 Cartesian Forces:  Max     0.001345744 RMS     0.000593759

 GradGradGradGradGradGradGradGradGradGradGradGradGradGradGradGradGradGrad
 Berny optimization.
 FormGI is forming the generalized inverse of G from B-inverse, IUseBI=4.
 Internal  Forces:  Max     0.002077426 RMS     0.000653172
 Search for a local minimum.
 Step number   1 out of a maximum of   36
 All quantities printed in internal units (Hartrees-Bohrs-Radians)
 Mixed Optimization -- En-DIIS/RFO-DIIS
 Second derivative matrix not updated -- first step.
 ITU=  0
     Eigenvalues ---    0.00230   0.00230   0.04818   0.04818   0.05024
     Eigenvalues ---    0.05024   0.06519   0.14219   0.15106   0.15303
     Eigenvalues ---    0.15443   0.16000   0.16000   0.20493   0.22543
     Eigenvalues ---    0.24118   0.24835   0.25000   0.25277   1.25409
     Eigenvalues ---    1.35923
 RFO step:  Lambda=-6.18453565D-05 EMin= 2.30000000D-03
 Linear search not attempted -- first point.
 Iteration  1 RMS(Cart)=  0.01992104 RMS(Int)=  0.00028869
 Iteration  2 RMS(Cart)=  0.00024868 RMS(Int)=  0.00000279
 Iteration  3 RMS(Cart)=  0.00000001 RMS(Int)=  0.00000279
 Variable       Old X    -DE/DX   Delta X   Delta X   Delta X     New X
                                 (Linear)    (Quad)   (Total)
    R1        3.90097  -0.00069   0.00000  -0.00449  -0.00449   3.89648
    R2        3.62890   0.00054   0.00000   0.00238   0.00238   3.63128
    R3        4.37217  -0.00085   0.00000  -0.00562  -0.00562   4.36656
    R4        4.35566  -0.00001   0.00000  -0.00004  -0.00004   4.35562
    R5        2.16956   0.00122   0.00000   0.00090   0.00090   2.17045
    R6        2.19905  -0.00069   0.00000  -0.00055  -0.00055   2.19850
    R7        2.57131   0.00001   0.00000   0.00004   0.00004   2.57135
    R8        2.56009  -0.00002   0.00000  -0.00007  -0.00007   2.56001
    A1        1.68776   0.00035   0.00000   0.00184   0.00183   1.68959
    A2        2.15691  -0.00208   0.00000  -0.00899  -0.00899   2.14792
    A3        1.93438   0.00091   0.00000   0.00367   0.00367   1.93806
    A4        1.72561  -0.00035   0.00000  -0.00129  -0.00130   1.72431
    A5        1.72981   0.00007   0.00000   0.00134   0.00134   1.73115
    A6        2.08552   0.00115   0.00000   0.00451   0.00451   2.09003
    A7        1.75651   0.00000   0.00000   0.00002   0.00002   1.75652
    A8        1.85854   0.00004   0.00000   0.00026   0.00026   1.85880
    A9        3.20281  -0.00038   0.00000  -0.00762  -0.00762   3.19519
   A10        3.10656  -0.00026   0.00000  -0.00533  -0.00533   3.10124
   A11        3.15762  -0.00055   0.00000  -0.01089  -0.01089   3.14673
   A12        3.09452   0.00008   0.00000   0.00167   0.00167   3.09619
    D1       -1.38416  -0.00016   0.00000   0.03739   0.03739  -1.34677
    D2        3.08030   0.00033   0.00000   0.03899   0.03899   3.11929
    D3        1.23363   0.00009   0.00000   0.03676   0.03675   1.27039
    D4       -2.10271  -0.00044   0.00000  -0.00969  -0.00969  -2.11240
    D5       -0.34332   0.00019   0.00000  -0.00625  -0.00625  -0.34957
    D6        1.50099   0.00020   0.00000  -0.00547  -0.00547   1.49551
         Item               Value     Threshold  Converged?
 Maximum Force            0.002077     0.000450     NO 
 RMS     Force            0.000653     0.000300     NO 
 Maximum Displacement     0.072198     0.001800     NO 
 RMS     Displacement     0.019938     0.001200     NO 
 Predicted change in Energy=-3.107222D-05
 GradGradGradGradGradGradGradGradGradGradGradGradGradGradGradGradGradGrad

                          Input orientation:                          
 ---------------------------------------------------------------------
 Center     Atomic      Atomic             Coordinates (Angstroms)
 Number     Number       Type             X           Y           Z
 ---------------------------------------------------------------------
      1         42           0        1.991522   -0.238539   -0.318725
      2          6           0        3.120624   -0.647267   -1.994916
      3          6           0        1.507002   -2.055220    0.078029
      4          8           0        3.763601   -0.814921   -2.931745
      5          8           0        1.190399   -3.133598    0.378624
      6         16           0       -0.127074    0.678433   -0.418550
      7          1           0        0.174579    1.981111   -0.670621
      8         16           0        3.338282    0.189230    1.502203
      9          1           0        3.012895   -0.727304    2.445231
 ---------------------------------------------------------------------
                    Distance matrix (angstroms):
                    1          2          3          4          5
     1  Mo   0.000000
     2  C    2.061927   0.000000
     3  C    1.921588   2.980471   0.000000
     4  O    3.209416   1.148554   3.960975   0.000000
     5  O    3.083741   3.942246   1.163397   4.791261   0.000000
     6  S    2.310682   3.845770   3.223299   4.866581   4.111302
     7  H    2.889975   4.164289   4.315993   5.080508   5.319121
     8  S    2.304893   3.602353   3.227912   4.566083   4.113031
     9  H    2.986896   4.442175   3.103985   5.429835   3.658224
                    6          7          8          9
     6  S    0.000000
     7  H    1.360699   0.000000
     8  S    3.992155   4.235683   0.000000
     9  H    4.476242   5.009998   1.354701   0.000000
 Symmetry turned off by external request.
 Stoichiometry    C2H2MoO2S2
 Framework group  C1[X(C2H2MoO2S2)]
 Deg. of freedom    21
 Full point group                 C1      NOp   1
 Rotational constants (GHZ):           1.1011672           0.9926436           0.9053625
 Basis read from rwf:  (5D, 7F)
 Pseudo-potential data read from rwf file.
   124 basis functions,   279 primitive gaussians,   132 cartesian basis functions
    38 alpha electrons       38 beta electrons
       nuclear repulsion energy       438.1224090282 Hartrees.
 NAtoms=    9 NActive=    9 NUniq=    9 SFac= 1.00D+00 NAtFMM=   60 NAOKFM=F Big=F
 Integral buffers will be    131072 words long.
 Raffenetti 2 integral format.
 Two-electron integral symmetry is turned off.
 One-electron integrals computed using PRISM.
   1 Symmetry operations used in ECPInt.
 ECPInt:  NShTT=     820 NPrTT=    5722 LenC2=     785 LenP2D=    3934.
 LDataN:  DoStor=T MaxTD1= 5 Len=  102
 NBasis=   124 RedAO= T EigKep=  5.19D-03  NBF=   124
 NBsUse=   124 1.00D-06 EigRej= -1.00D+00 NBFU=   124
 Defaulting to unpruned grid for atomic number  42.
 Initial guess from the checkpoint file:  "/home/chesagar/scratch/Gau-40678.chk"
 B after Tr=     0.005234    0.002243    0.022244
         Rot=    0.999998   -0.001609   -0.000997    0.000382 Ang=  -0.22 deg.
 ExpMin= 2.47D-02 ExpMax= 2.19D+04 ExpMxC= 3.30D+03 IAcc=3 IRadAn=         5 AccDes= 0.00D+00
 Harris functional with IExCor=  402 and IRadAn=       5 diagonalized for initial guess.
 HarFok:  IExCor=  402 AccDes= 0.00D+00 IRadAn=         5 IDoV= 1 UseB2=F ITyADJ=14
 ICtDFT=  3500011 ScaDFX=  1.000000  1.000000  1.000000  1.000000
 Defaulting to unpruned grid for atomic number  42.
 FoFCou: FMM=F IPFlag=           0 FMFlag=      100000 FMFlg1=           0
         NFxFlg=           0 DoJE=T BraDBF=F KetDBF=T FulRan=T
         wScrn=  0.000000 ICntrl=       500 IOpCl=  0 I1Cent=   200000004 NGrid=           0
         NMat0=    1 NMatS0=      1 NMatT0=    0 NMatD0=    1 NMtDS0=    0 NMtDT0=    0
 Symmetry not used in FoFCou.
 Keep R1 ints in memory in canonical form, NReq=76097989.
 Requested convergence on RMS density matrix=1.00D-08 within 128 cycles.
 Requested convergence on MAX density matrix=1.00D-06.
 Requested convergence on             energy=1.00D-06.
 No special actions if energy rises.
 Defaulting to unpruned grid for atomic number  42.
 Defaulting to unpruned grid for atomic number  42.
 Defaulting to unpruned grid for atomic number  42.
 Defaulting to unpruned grid for atomic number  42.
 Defaulting to unpruned grid for atomic number  42.
 Defaulting to unpruned grid for atomic number  42.
 Defaulting to unpruned grid for atomic number  42.
 Defaulting to unpruned grid for atomic number  42.
 Defaulting to unpruned grid for atomic number  42.
 Defaulting to unpruned grid for atomic number  42.
 Defaulting to unpruned grid for atomic number  42.
 Defaulting to unpruned grid for atomic number  42.
 Defaulting to unpruned grid for atomic number  42.
 Defaulting to unpruned grid for atomic number  42.
 Defaulting to unpruned grid for atomic number  42.
 Defaulting to unpruned grid for atomic number  42.
 Defaulting to unpruned grid for atomic number  42.
 Defaulting to unpruned grid for atomic number  42.
 Defaulting to unpruned grid for atomic number  42.
 Defaulting to unpruned grid for atomic number  42.
 Defaulting to unpruned grid for atomic number  42.
 Defaulting to unpruned grid for atomic number  42.
 Defaulting to unpruned grid for atomic number  42.
 Defaulting to unpruned grid for atomic number  42.
 Defaulting to unpruned grid for atomic number  42.
 Defaulting to unpruned grid for atomic number  42.
 Defaulting to unpruned grid for atomic number  42.
 Defaulting to unpruned grid for atomic number  42.
 Defaulting to unpruned grid for atomic number  42.
 Defaulting to unpruned grid for atomic number  42.
 Defaulting to unpruned grid for atomic number  42.
 Defaulting to unpruned grid for atomic number  42.
 Defaulting to unpruned grid for atomic number  42.
 Defaulting to unpruned grid for atomic number  42.
 Defaulting to unpruned grid for atomic number  42.
 Defaulting to unpruned grid for atomic number  42.
 Defaulting to unpruned grid for atomic number  42.
 Defaulting to unpruned grid for atomic number  42.
 Defaulting to unpruned grid for atomic number  42.
 Defaulting to unpruned grid for atomic number  42.
 Defaulting to unpruned grid for atomic number  42.
 Defaulting to unpruned grid for atomic number  42.
 Defaulting to unpruned grid for atomic number  42.
 Defaulting to unpruned grid for atomic number  42.
 Defaulting to unpruned grid for atomic number  42.
 Defaulting to unpruned grid for atomic number  42.
 Defaulting to unpruned grid for atomic number  42.
 Defaulting to unpruned grid for atomic number  42.
 SCF Done:  E(RB3LYP) =  -1091.82880798     A.U. after   14 cycles
            NFock= 14  Conv=0.61D-08     -V/T= 2.0463
   1 Symmetry operations used in ECPInt.
 ECPInt:  NShTT=     820 NPrTT=    5722 LenC2=     785 LenP2D=    3934.
 LDataN:  DoStor=T MaxTD1= 6 Len=  172
 Calling FoFJK, ICntrl=      2127 FMM=F ISym2X=0 I1Cent= 0 IOpClX= 0 NMat=1 NMatS=1 NMatT=0.
 Defaulting to unpruned grid for atomic number  42.
 Defaulting to unpruned grid for atomic number  42.
 Defaulting to unpruned grid for atomic number  42.
 Defaulting to unpruned grid for atomic number  42.
 Defaulting to unpruned grid for atomic number  42.
 Defaulting to unpruned grid for atomic number  42.
 Defaulting to unpruned grid for atomic number  42.
 Defaulting to unpruned grid for atomic number  42.
 Defaulting to unpruned grid for atomic number  42.
 Defaulting to unpruned grid for atomic number  42.
 Defaulting to unpruned grid for atomic number  42.
 Defaulting to unpruned grid for atomic number  42.
 Defaulting to unpruned grid for atomic number  42.
 Defaulting to unpruned grid for atomic number  42.
 Defaulting to unpruned grid for atomic number  42.
 Defaulting to unpruned grid for atomic number  42.
 Defaulting to unpruned grid for atomic number  42.
 Defaulting to unpruned grid for atomic number  42.
 Defaulting to unpruned grid for atomic number  42.
 Defaulting to unpruned grid for atomic number  42.
 Defaulting to unpruned grid for atomic number  42.
 Defaulting to unpruned grid for atomic number  42.
 Defaulting to unpruned grid for atomic number  42.
 Defaulting to unpruned grid for atomic number  42.
 Defaulting to unpruned grid for atomic number  42.
 Defaulting to unpruned grid for atomic number  42.
 Defaulting to unpruned grid for atomic number  42.
 Defaulting to unpruned grid for atomic number  42.
 Defaulting to unpruned grid for atomic number  42.
 Defaulting to unpruned grid for atomic number  42.
 Defaulting to unpruned grid for atomic number  42.
 Defaulting to unpruned grid for atomic number  42.
 Defaulting to unpruned grid for atomic number  42.
 Defaulting to unpruned grid for atomic number  42.
 Defaulting to unpruned grid for atomic number  42.
 Defaulting to unpruned grid for atomic number  42.
 Defaulting to unpruned grid for atomic number  42.
 Defaulting to unpruned grid for atomic number  42.
 Defaulting to unpruned grid for atomic number  42.
 Defaulting to unpruned grid for atomic number  42.
 Defaulting to unpruned grid for atomic number  42.
 Defaulting to unpruned grid for atomic number  42.
 Defaulting to unpruned grid for atomic number  42.
 Defaulting to unpruned grid for atomic number  42.
 Defaulting to unpruned grid for atomic number  42.
 Defaulting to unpruned grid for atomic number  42.
 Defaulting to unpruned grid for atomic number  42.
 Defaulting to unpruned grid for atomic number  42.
 -------------------------------------------------------------------
 Center     Atomic                   Forces (Hartrees/Bohr)
 Number     Number              X              Y              Z
 -------------------------------------------------------------------
      1       42           0.000508186   -0.000117147    0.000622790
      2        6          -0.001142924   -0.000070444    0.000563430
      3        6          -0.000078960   -0.000725946    0.000283560
      4        8           0.000242670    0.000206901   -0.000515662
      5        8           0.000004091    0.000403493   -0.000167480
      6       16           0.000288164   -0.000122615   -0.001244389
      7        1          -0.000127978    0.000160079    0.000402478
      8       16           0.000415133    0.000346909    0.000177654
      9        1          -0.000108380   -0.000081230   -0.000122381
 -------------------------------------------------------------------
 Cartesian Forces:  Max     0.001244389 RMS     0.000458208

 GradGradGradGradGradGradGradGradGradGradGradGradGradGradGradGradGradGrad
 Berny optimization.
 Using GEDIIS/GDIIS optimizer.
 FormGI is forming the generalized inverse of G from B-inverse, IUseBI=4.
 Internal  Forces:  Max     0.002064201 RMS     0.000586430
 Search for a local minimum.
 Step number   2 out of a maximum of   36
 All quantities printed in internal units (Hartrees-Bohrs-Radians)
 Mixed Optimization -- En-DIIS/RFO-DIIS
 Swapping is turned off.
 Update second derivatives using D2CorX and points    1    2
 DE= -2.58D-05 DEPred=-3.11D-05 R= 8.29D-01
 TightC=F SS=  1.41D+00  RLast= 6.94D-02 DXNew= 5.0454D-01 2.0827D-01
 Trust test= 8.29D-01 RLast= 6.94D-02 DXMaxT set to 3.00D-01
 ITU=  1  0
     Eigenvalues ---    0.00228   0.00740   0.03002   0.04820   0.04856
     Eigenvalues ---    0.05546   0.07182   0.09421   0.14366   0.15312
     Eigenvalues ---    0.15530   0.15999   0.16652   0.17841   0.21413
     Eigenvalues ---    0.22762   0.24830   0.24847   0.25278   1.24729
     Eigenvalues ---    1.34519
 En-DIIS/RFO-DIIS/Sim-DIIS IScMMF=       -3 using points:     2    1
 RFO step:  Lambda=-1.54117275D-04.
 DidBck=T Rises=F RFO-DIIS coefs:    0.39919    0.60081
 Iteration  1 RMS(Cart)=  0.02692938 RMS(Int)=  0.00046051
 Iteration  2 RMS(Cart)=  0.00045433 RMS(Int)=  0.00002622
 Iteration  3 RMS(Cart)=  0.00000028 RMS(Int)=  0.00002621
 Variable       Old X    -DE/DX   Delta X   Delta X   Delta X     New X
                                 (Linear)    (Quad)   (Total)
    R1        3.89648  -0.00056   0.00270  -0.01696  -0.01427   3.88221
    R2        3.63128   0.00035  -0.00143   0.00865   0.00722   3.63849
    R3        4.36656  -0.00010   0.00337  -0.01786  -0.01449   4.35207
    R4        4.35562   0.00027   0.00002   0.00138   0.00140   4.35702
    R5        2.17045   0.00053  -0.00054   0.00310   0.00256   2.17301
    R6        2.19850  -0.00042   0.00033  -0.00199  -0.00166   2.19685
    R7        2.57135   0.00005  -0.00002   0.00030   0.00027   2.57162
    R8        2.56001  -0.00000   0.00004  -0.00023  -0.00019   2.55982
    A1        1.68959   0.00017  -0.00110   0.00691   0.00573   1.69532
    A2        2.14792  -0.00206   0.00540  -0.03592  -0.03052   2.11740
    A3        1.93806   0.00084  -0.00221   0.01359   0.01138   1.94944
    A4        1.72431   0.00001   0.00078  -0.00252  -0.00181   1.72250
    A5        1.73115   0.00016  -0.00080   0.00665   0.00579   1.73695
    A6        2.09003   0.00106  -0.00271   0.01727   0.01455   2.10458
    A7        1.75652   0.00040  -0.00001   0.00221   0.00220   1.75872
    A8        1.85880  -0.00047  -0.00016  -0.00169  -0.00184   1.85696
    A9        3.19519   0.00060   0.00458  -0.01318  -0.00860   3.18659
   A10        3.10124   0.00021   0.00320  -0.01269  -0.00949   3.09175
   A11        3.14673  -0.00019   0.00654  -0.03671  -0.03016   3.11657
   A12        3.09619  -0.00016  -0.00100   0.00228   0.00128   3.09747
    D1       -1.34677  -0.00047  -0.02247  -0.01383  -0.03628  -1.38305
    D2        3.11929  -0.00003  -0.02342  -0.00897  -0.03241   3.08688
    D3        1.27039  -0.00056  -0.02208  -0.02091  -0.04300   1.22739
    D4       -2.11240  -0.00044   0.00582  -0.02673  -0.02095  -2.13335
    D5       -0.34957   0.00001   0.00375  -0.01308  -0.00933  -0.35889
    D6        1.49551   0.00048   0.00329  -0.00617  -0.00283   1.49268
         Item               Value     Threshold  Converged?
 Maximum Force            0.002064     0.000450     NO 
 RMS     Force            0.000586     0.000300     NO 
 Maximum Displacement     0.073159     0.001800     NO 
 RMS     Displacement     0.026938     0.001200     NO 
 Predicted change in Energy=-7.774134D-05
 GradGradGradGradGradGradGradGradGradGradGradGradGradGradGradGradGradGrad

                          Input orientation:                          
 ---------------------------------------------------------------------
 Center     Atomic      Atomic             Coordinates (Angstroms)
 Number     Number       Type             X           Y           Z
 ---------------------------------------------------------------------
      1         42           0        2.001891   -0.242961   -0.310668
      2          6           0        3.114563   -0.635773   -1.992372
      3          6           0        1.507988   -2.062539    0.079709
      4          8           0        3.728670   -0.802671   -2.950132
      5          8           0        1.191843   -3.138794    0.384963
      6         16           0       -0.108744    0.666772   -0.457264
      7          1           0        0.193158    1.977707   -0.662696
      8         16           0        3.341172    0.188852    1.515753
      9          1           0        3.001288   -0.718667    2.462236
 ---------------------------------------------------------------------
                    Distance matrix (angstroms):
                    1          2          3          4          5
     1  Mo   0.000000
     2  C    2.054378   0.000000
     3  C    1.925408   2.985007   0.000000
     4  O    3.203407   1.149908   3.962150   0.000000
     5  O    3.086411   3.951417   1.162521   4.797481   0.000000
     6  S    2.303016   3.800380   3.217343   4.806184   4.108918
     7  H    2.885621   4.139194   4.313181   5.046060   5.317288
     8  S    2.305635   3.610858   3.239066   4.591014   4.119652
     9  H    2.985647   4.456819   3.116469   5.461673   3.666903
                    6          7          8          9
     6  S    0.000000
     7  H    1.360845   0.000000
     8  S    4.002890   4.225593   0.000000
     9  H    4.484999   4.992117   1.354600   0.000000
 Symmetry turned off by external request.
 Stoichiometry    C2H2MoO2S2
 Framework group  C1[X(C2H2MoO2S2)]
 Deg. of freedom    21
 Full point group                 C1      NOp   1
 Rotational constants (GHZ):           1.0874063           1.0053909           0.9086785
 Basis read from rwf:  (5D, 7F)
 Pseudo-potential data read from rwf file.
   124 basis functions,   279 primitive gaussians,   132 cartesian basis functions
    38 alpha electrons       38 beta electrons
       nuclear repulsion energy       438.3721287211 Hartrees.
 NAtoms=    9 NActive=    9 NUniq=    9 SFac= 1.00D+00 NAtFMM=   60 NAOKFM=F Big=F
 Integral buffers will be    131072 words long.
 Raffenetti 2 integral format.
 Two-electron integral symmetry is turned off.
 One-electron integrals computed using PRISM.
   1 Symmetry operations used in ECPInt.
 ECPInt:  NShTT=     820 NPrTT=    5722 LenC2=     784 LenP2D=    3935.
 LDataN:  DoStor=T MaxTD1= 5 Len=  102
 NBasis=   124 RedAO= T EigKep=  5.13D-03  NBF=   124
 NBsUse=   124 1.00D-06 EigRej= -1.00D+00 NBFU=   124
 Defaulting to unpruned grid for atomic number  42.
 Initial guess from the checkpoint file:  "/home/chesagar/scratch/Gau-40678.chk"
 B after Tr=     0.007460   -0.007150   -0.009476
         Rot=    0.999999    0.000376    0.000922   -0.000295 Ang=   0.12 deg.
 ExpMin= 2.47D-02 ExpMax= 2.19D+04 ExpMxC= 3.30D+03 IAcc=3 IRadAn=         5 AccDes= 0.00D+00
 Harris functional with IExCor=  402 and IRadAn=       5 diagonalized for initial guess.
 HarFok:  IExCor=  402 AccDes= 0.00D+00 IRadAn=         5 IDoV= 1 UseB2=F ITyADJ=14
 ICtDFT=  3500011 ScaDFX=  1.000000  1.000000  1.000000  1.000000
 Defaulting to unpruned grid for atomic number  42.
 FoFCou: FMM=F IPFlag=           0 FMFlag=      100000 FMFlg1=           0
         NFxFlg=           0 DoJE=T BraDBF=F KetDBF=T FulRan=T
         wScrn=  0.000000 ICntrl=       500 IOpCl=  0 I1Cent=   200000004 NGrid=           0
         NMat0=    1 NMatS0=      1 NMatT0=    0 NMatD0=    1 NMtDS0=    0 NMtDT0=    0
 Symmetry not used in FoFCou.
 Keep R1 ints in memory in canonical form, NReq=76097989.
 Requested convergence on RMS density matrix=1.00D-08 within 128 cycles.
 Requested convergence on MAX density matrix=1.00D-06.
 Requested convergence on             energy=1.00D-06.
 No special actions if energy rises.
 Defaulting to unpruned grid for atomic number  42.
 Defaulting to unpruned grid for atomic number  42.
 Defaulting to unpruned grid for atomic number  42.
 Defaulting to unpruned grid for atomic number  42.
 Defaulting to unpruned grid for atomic number  42.
 Defaulting to unpruned grid for atomic number  42.
 Defaulting to unpruned grid for atomic number  42.
 Defaulting to unpruned grid for atomic number  42.
 Defaulting to unpruned grid for atomic number  42.
 Defaulting to unpruned grid for atomic number  42.
 Defaulting to unpruned grid for atomic number  42.
 Defaulting to unpruned grid for atomic number  42.
 Defaulting to unpruned grid for atomic number  42.
 Defaulting to unpruned grid for atomic number  42.
 Defaulting to unpruned grid for atomic number  42.
 Defaulting to unpruned grid for atomic number  42.
 Defaulting to unpruned grid for atomic number  42.
 Defaulting to unpruned grid for atomic number  42.
 Defaulting to unpruned grid for atomic number  42.
 Defaulting to unpruned grid for atomic number  42.
 Defaulting to unpruned grid for atomic number  42.
 Defaulting to unpruned grid for atomic number  42.
 Defaulting to unpruned grid for atomic number  42.
 Defaulting to unpruned grid for atomic number  42.
 Defaulting to unpruned grid for atomic number  42.
 Defaulting to unpruned grid for atomic number  42.
 Defaulting to unpruned grid for atomic number  42.
 Defaulting to unpruned grid for atomic number  42.
 Defaulting to unpruned grid for atomic number  42.
 Defaulting to unpruned grid for atomic number  42.
 Defaulting to unpruned grid for atomic number  42.
 Defaulting to unpruned grid for atomic number  42.
 Defaulting to unpruned grid for atomic number  42.
 Defaulting to unpruned grid for atomic number  42.
 Defaulting to unpruned grid for atomic number  42.
 Defaulting to unpruned grid for atomic number  42.
 Defaulting to unpruned grid for atomic number  42.
 Defaulting to unpruned grid for atomic number  42.
 Defaulting to unpruned grid for atomic number  42.
 Defaulting to unpruned grid for atomic number  42.
 Defaulting to unpruned grid for atomic number  42.
 Defaulting to unpruned grid for atomic number  42.
 Defaulting to unpruned grid for atomic number  42.
 Defaulting to unpruned grid for atomic number  42.
 Defaulting to unpruned grid for atomic number  42.
 Defaulting to unpruned grid for atomic number  42.
 Defaulting to unpruned grid for atomic number  42.
 Defaulting to unpruned grid for atomic number  42.
 SCF Done:  E(RB3LYP) =  -1091.82885469     A.U. after   14 cycles
            NFock= 14  Conv=0.58D-08     -V/T= 2.0463
   1 Symmetry operations used in ECPInt.
 ECPInt:  NShTT=     820 NPrTT=    5722 LenC2=     784 LenP2D=    3935.
 LDataN:  DoStor=T MaxTD1= 6 Len=  172
 Calling FoFJK, ICntrl=      2127 FMM=F ISym2X=0 I1Cent= 0 IOpClX= 0 NMat=1 NMatS=1 NMatT=0.
 Defaulting to unpruned grid for atomic number  42.
 Defaulting to unpruned grid for atomic number  42.
 Defaulting to unpruned grid for atomic number  42.
 Defaulting to unpruned grid for atomic number  42.
 Defaulting to unpruned grid for atomic number  42.
 Defaulting to unpruned grid for atomic number  42.
 Defaulting to unpruned grid for atomic number  42.
 Defaulting to unpruned grid for atomic number  42.
 Defaulting to unpruned grid for atomic number  42.
 Defaulting to unpruned grid for atomic number  42.
 Defaulting to unpruned grid for atomic number  42.
 Defaulting to unpruned grid for atomic number  42.
 Defaulting to unpruned grid for atomic number  42.
 Defaulting to unpruned grid for atomic number  42.
 Defaulting to unpruned grid for atomic number  42.
 Defaulting to unpruned grid for atomic number  42.
 Defaulting to unpruned grid for atomic number  42.
 Defaulting to unpruned grid for atomic number  42.
 Defaulting to unpruned grid for atomic number  42.
 Defaulting to unpruned grid for atomic number  42.
 Defaulting to unpruned grid for atomic number  42.
 Defaulting to unpruned grid for atomic number  42.
 Defaulting to unpruned grid for atomic number  42.
 Defaulting to unpruned grid for atomic number  42.
 Defaulting to unpruned grid for atomic number  42.
 Defaulting to unpruned grid for atomic number  42.
 Defaulting to unpruned grid for atomic number  42.
 Defaulting to unpruned grid for atomic number  42.
 Defaulting to unpruned grid for atomic number  42.
 Defaulting to unpruned grid for atomic number  42.
 Defaulting to unpruned grid for atomic number  42.
 Defaulting to unpruned grid for atomic number  42.
 Defaulting to unpruned grid for atomic number  42.
 Defaulting to unpruned grid for atomic number  42.
 Defaulting to unpruned grid for atomic number  42.
 Defaulting to unpruned grid for atomic number  42.
 Defaulting to unpruned grid for atomic number  42.
 Defaulting to unpruned grid for atomic number  42.
 Defaulting to unpruned grid for atomic number  42.
 Defaulting to unpruned grid for atomic number  42.
 Defaulting to unpruned grid for atomic number  42.
 Defaulting to unpruned grid for atomic number  42.
 Defaulting to unpruned grid for atomic number  42.
 Defaulting to unpruned grid for atomic number  42.
 Defaulting to unpruned grid for atomic number  42.
 Defaulting to unpruned grid for atomic number  42.
 Defaulting to unpruned grid for atomic number  42.
 Defaulting to unpruned grid for atomic number  42.
 -------------------------------------------------------------------
 Center     Atomic                   Forces (Hartrees/Bohr)
 Number     Number              X              Y              Z
 -------------------------------------------------------------------
      1       42           0.000435898   -0.001038042    0.000908998
      2        6           0.000287413   -0.001341868   -0.002437711
      3        6           0.001577972    0.001072293    0.000158032
      4        8          -0.000508053    0.000875181    0.001511505
      5        8          -0.000701522   -0.000647094   -0.000211656
      6       16          -0.000997924    0.000894828   -0.000171949
      7        1          -0.000331545    0.000178642   -0.000324866
      8       16           0.000244793   -0.000030355    0.000520126
      9        1          -0.000007030    0.000036414    0.000047522
 -------------------------------------------------------------------
 Cartesian Forces:  Max     0.002437711 RMS     0.000866178

 GradGradGradGradGradGradGradGradGradGradGradGradGradGradGradGradGradGrad
 Berny optimization.
 Using GEDIIS/GDIIS optimizer.
 FormGI is forming the generalized inverse of G from B-inverse, IUseBI=4.
 Internal  Forces:  Max     0.001674141 RMS     0.000790100
 Search for a local minimum.
 Step number   3 out of a maximum of   36
 All quantities printed in internal units (Hartrees-Bohrs-Radians)
 Mixed Optimization -- En-DIIS/RFO-DIIS
 Swapping is turned off.
 Update second derivatives using D2CorX and points    1    2    3
 DE= -4.67D-05 DEPred=-7.77D-05 R= 6.01D-01
 TightC=F SS=  1.41D+00  RLast= 8.75D-02 DXNew= 5.0454D-01 2.6244D-01
 Trust test= 6.01D-01 RLast= 8.75D-02 DXMaxT set to 3.00D-01
 ITU=  1  1  0
     Eigenvalues ---    0.00222   0.00770   0.02849   0.04820   0.04987
     Eigenvalues ---    0.06065   0.07804   0.08340   0.14377   0.15316
     Eigenvalues ---    0.15585   0.16236   0.16553   0.19264   0.21787
     Eigenvalues ---    0.24048   0.24833   0.25277   0.26390   1.25477
     Eigenvalues ---    1.37483
 En-DIIS/RFO-DIIS/Sim-DIIS IScMMF=       -3 using points:     3    2    1
 RFO step:  Lambda=-1.13336721D-04.
 DidBck=F Rises=F RFO-DIIS coefs:    1.01121    0.84535   -0.85656
 Iteration  1 RMS(Cart)=  0.02135102 RMS(Int)=  0.00025547
 Iteration  2 RMS(Cart)=  0.00024313 RMS(Int)=  0.00002015
 Iteration  3 RMS(Cart)=  0.00000001 RMS(Int)=  0.00002015
 Variable       Old X    -DE/DX   Delta X   Delta X   Delta X     New X
                                 (Linear)    (Quad)   (Total)
    R1        3.88221   0.00073  -0.00401   0.00182  -0.00218   3.88003
    R2        3.63849  -0.00064   0.00212  -0.00126   0.00086   3.63935
    R3        4.35207   0.00167  -0.00497   0.00622   0.00125   4.35332
    R4        4.35702   0.00059  -0.00002   0.00254   0.00252   4.35954
    R5        2.17301  -0.00166   0.00080  -0.00062   0.00018   2.17319
    R6        2.19685   0.00073  -0.00049   0.00026  -0.00023   2.19662
    R7        2.57162   0.00015   0.00004   0.00037   0.00041   2.57203
    R8        2.55982   0.00002  -0.00006   0.00004  -0.00003   2.55980
    A1        1.69532  -0.00039   0.00163  -0.00093   0.00064   1.69597
    A2        2.11740  -0.00113  -0.00804  -0.00468  -0.01272   2.10468
    A3        1.94944   0.00082   0.00327   0.00185   0.00512   1.95456
    A4        1.72250   0.00078  -0.00113   0.00313   0.00194   1.72444
    A5        1.73695  -0.00032   0.00121   0.00071   0.00189   1.73884
    A6        2.10458   0.00024   0.00403   0.00128   0.00530   2.10988
    A7        1.75872   0.00096   0.00004   0.00393   0.00397   1.76269
    A8        1.85696   0.00009   0.00020  -0.00071  -0.00051   1.85645
    A9        3.18659   0.00148  -0.00662   0.02012   0.01350   3.20009
   A10        3.09175   0.00126  -0.00467   0.01559   0.01092   3.10267
   A11        3.11657   0.00050  -0.00967   0.00531  -0.00435   3.11221
   A12        3.09747  -0.00065   0.00145  -0.00829  -0.00684   3.09062
    D1       -1.38305   0.00011   0.03162  -0.00052   0.03113  -1.35192
    D2        3.08688   0.00041   0.03303  -0.00004   0.03297   3.11985
    D3        1.22739   0.00021   0.03100  -0.00340   0.02759   1.25498
    D4       -2.13335  -0.00008  -0.00853  -0.00869  -0.01725  -2.15061
    D5       -0.35889  -0.00044  -0.00545  -0.00894  -0.01439  -0.37329
    D6        1.49268   0.00037  -0.00472  -0.00423  -0.00892   1.48376
         Item               Value     Threshold  Converged?
 Maximum Force            0.001674     0.000450     NO 
 RMS     Force            0.000790     0.000300     NO 
 Maximum Displacement     0.069107     0.001800     NO 
 RMS     Displacement     0.021348     0.001200     NO 
 Predicted change in Energy=-5.350850D-05
 GradGradGradGradGradGradGradGradGradGradGradGradGradGradGradGradGradGrad

                          Input orientation:                          
 ---------------------------------------------------------------------
 Center     Atomic      Atomic             Coordinates (Angstroms)
 Number     Number       Type             X           Y           Z
 ---------------------------------------------------------------------
      1         42           0        2.007368   -0.247112   -0.299070
      2          6           0        3.105439   -0.632840   -1.990571
      3          6           0        1.512100   -2.067832    0.086465
      4          8           0        3.711666   -0.780003   -2.956666
      5          8           0        1.183372   -3.143516    0.379746
      6         16           0       -0.101629    0.666773   -0.453580
      7          1           0        0.198187    1.971469   -0.699266
      8         16           0        3.352945    0.181278    1.525216
      9          1           0        3.002380   -0.716290    2.477255
 ---------------------------------------------------------------------
                    Distance matrix (angstroms):
                    1          2          3          4          5
     1  Mo   0.000000
     2  C    2.053222   0.000000
     3  C    1.925862   2.985298   0.000000
     4  O    3.201784   1.150003   3.969538   0.000000
     5  O    3.086894   3.951738   1.162399   4.807297   0.000000
     6  S    2.303677   3.786373   3.220843   4.785375   4.106575
     7  H    2.890570   4.111205   4.319686   5.001098   5.319579
     8  S    2.306971   3.617292   3.243025   4.597826   4.131998
     9  H    2.986328   4.469793   3.124656   5.480387   3.687785
                    6          7          8          9
     6  S    0.000000
     7  H    1.361059   0.000000
     8  S    4.010663   4.255067   0.000000
     9  H    4.487486   5.017751   1.354586   0.000000
 Symmetry turned off by external request.
 Stoichiometry    C2H2MoO2S2
 Framework group  C1[X(C2H2MoO2S2)]
 Deg. of freedom    21
 Full point group                 C1      NOp   1
 Rotational constants (GHZ):           1.0808470           1.0089592           0.9090107
 Basis read from rwf:  (5D, 7F)
 Pseudo-potential data read from rwf file.
   124 basis functions,   279 primitive gaussians,   132 cartesian basis functions
    38 alpha electrons       38 beta electrons
       nuclear repulsion energy       438.2119347643 Hartrees.
 NAtoms=    9 NActive=    9 NUniq=    9 SFac= 1.00D+00 NAtFMM=   60 NAOKFM=F Big=F
 Integral buffers will be    131072 words long.
 Raffenetti 2 integral format.
 Two-electron integral symmetry is turned off.
 One-electron integrals computed using PRISM.
   1 Symmetry operations used in ECPInt.
 ECPInt:  NShTT=     820 NPrTT=    5722 LenC2=     784 LenP2D=    3935.
 LDataN:  DoStor=T MaxTD1= 5 Len=  102
 NBasis=   124 RedAO= T EigKep=  5.15D-03  NBF=   124
 NBsUse=   124 1.00D-06 EigRej= -1.00D+00 NBFU=   124
 Defaulting to unpruned grid for atomic number  42.
 Initial guess from the checkpoint file:  "/home/chesagar/scratch/Gau-40678.chk"
 B after Tr=     0.007381   -0.000735    0.022013
         Rot=    0.999998   -0.001900   -0.001006    0.000560 Ang=  -0.25 deg.
 ExpMin= 2.47D-02 ExpMax= 2.19D+04 ExpMxC= 3.30D+03 IAcc=3 IRadAn=         5 AccDes= 0.00D+00
 Harris functional with IExCor=  402 and IRadAn=       5 diagonalized for initial guess.
 HarFok:  IExCor=  402 AccDes= 0.00D+00 IRadAn=         5 IDoV= 1 UseB2=F ITyADJ=14
 ICtDFT=  3500011 ScaDFX=  1.000000  1.000000  1.000000  1.000000
 Defaulting to unpruned grid for atomic number  42.
 FoFCou: FMM=F IPFlag=           0 FMFlag=      100000 FMFlg1=           0
         NFxFlg=           0 DoJE=T BraDBF=F KetDBF=T FulRan=T
         wScrn=  0.000000 ICntrl=       500 IOpCl=  0 I1Cent=   200000004 NGrid=           0
         NMat0=    1 NMatS0=      1 NMatT0=    0 NMatD0=    1 NMtDS0=    0 NMtDT0=    0
 Symmetry not used in FoFCou.
 Keep R1 ints in memory in canonical form, NReq=76097989.
 Requested convergence on RMS density matrix=1.00D-08 within 128 cycles.
 Requested convergence on MAX density matrix=1.00D-06.
 Requested convergence on             energy=1.00D-06.
 No special actions if energy rises.
 Defaulting to unpruned grid for atomic number  42.
 Defaulting to unpruned grid for atomic number  42.
 Defaulting to unpruned grid for atomic number  42.
 Defaulting to unpruned grid for atomic number  42.
 Defaulting to unpruned grid for atomic number  42.
 Defaulting to unpruned grid for atomic number  42.
 Defaulting to unpruned grid for atomic number  42.
 Defaulting to unpruned grid for atomic number  42.
 Defaulting to unpruned grid for atomic number  42.
 Defaulting to unpruned grid for atomic number  42.
 Defaulting to unpruned grid for atomic number  42.
 Defaulting to unpruned grid for atomic number  42.
 Defaulting to unpruned grid for atomic number  42.
 Defaulting to unpruned grid for atomic number  42.
 Defaulting to unpruned grid for atomic number  42.
 Defaulting to unpruned grid for atomic number  42.
 Defaulting to unpruned grid for atomic number  42.
 Defaulting to unpruned grid for atomic number  42.
 Defaulting to unpruned grid for atomic number  42.
 Defaulting to unpruned grid for atomic number  42.
 Defaulting to unpruned grid for atomic number  42.
 Defaulting to unpruned grid for atomic number  42.
 Defaulting to unpruned grid for atomic number  42.
 Defaulting to unpruned grid for atomic number  42.
 Defaulting to unpruned grid for atomic number  42.
 Defaulting to unpruned grid for atomic number  42.
 Defaulting to unpruned grid for atomic number  42.
 Defaulting to unpruned grid for atomic number  42.
 Defaulting to unpruned grid for atomic number  42.
 Defaulting to unpruned grid for atomic number  42.
 Defaulting to unpruned grid for atomic number  42.
 Defaulting to unpruned grid for atomic number  42.
 Defaulting to unpruned grid for atomic number  42.
 Defaulting to unpruned grid for atomic number  42.
 Defaulting to unpruned grid for atomic number  42.
 Defaulting to unpruned grid for atomic number  42.
 Defaulting to unpruned grid for atomic number  42.
 Defaulting to unpruned grid for atomic number  42.
 Defaulting to unpruned grid for atomic number  42.
 Defaulting to unpruned grid for atomic number  42.
 Defaulting to unpruned grid for atomic number  42.
 Defaulting to unpruned grid for atomic number  42.
 Defaulting to unpruned grid for atomic number  42.
 Defaulting to unpruned grid for atomic number  42.
 Defaulting to unpruned grid for atomic number  42.
 Defaulting to unpruned grid for atomic number  42.
 Defaulting to unpruned grid for atomic number  42.
 Defaulting to unpruned grid for atomic number  42.
 SCF Done:  E(RB3LYP) =  -1091.82890896     A.U. after   14 cycles
            NFock= 14  Conv=0.53D-08     -V/T= 2.0463
   1 Symmetry operations used in ECPInt.
 ECPInt:  NShTT=     820 NPrTT=    5722 LenC2=     784 LenP2D=    3935.
 LDataN:  DoStor=T MaxTD1= 6 Len=  172
 Calling FoFJK, ICntrl=      2127 FMM=F ISym2X=0 I1Cent= 0 IOpClX= 0 NMat=1 NMatS=1 NMatT=0.
 Defaulting to unpruned grid for atomic number  42.
 Defaulting to unpruned grid for atomic number  42.
 Defaulting to unpruned grid for atomic number  42.
 Defaulting to unpruned grid for atomic number  42.
 Defaulting to unpruned grid for atomic number  42.
 Defaulting to unpruned grid for atomic number  42.
 Defaulting to unpruned grid for atomic number  42.
 Defaulting to unpruned grid for atomic number  42.
 Defaulting to unpruned grid for atomic number  42.
 Defaulting to unpruned grid for atomic number  42.
 Defaulting to unpruned grid for atomic number  42.
 Defaulting to unpruned grid for atomic number  42.
 Defaulting to unpruned grid for atomic number  42.
 Defaulting to unpruned grid for atomic number  42.
 Defaulting to unpruned grid for atomic number  42.
 Defaulting to unpruned grid for atomic number  42.
 Defaulting to unpruned grid for atomic number  42.
 Defaulting to unpruned grid for atomic number  42.
 Defaulting to unpruned grid for atomic number  42.
 Defaulting to unpruned grid for atomic number  42.
 Defaulting to unpruned grid for atomic number  42.
 Defaulting to unpruned grid for atomic number  42.
 Defaulting to unpruned grid for atomic number  42.
 Defaulting to unpruned grid for atomic number  42.
 Defaulting to unpruned grid for atomic number  42.
 Defaulting to unpruned grid for atomic number  42.
 Defaulting to unpruned grid for atomic number  42.
 Defaulting to unpruned grid for atomic number  42.
 Defaulting to unpruned grid for atomic number  42.
 Defaulting to unpruned grid for atomic number  42.
 Defaulting to unpruned grid for atomic number  42.
 Defaulting to unpruned grid for atomic number  42.
 Defaulting to unpruned grid for atomic number  42.
 Defaulting to unpruned grid for atomic number  42.
 Defaulting to unpruned grid for atomic number  42.
 Defaulting to unpruned grid for atomic number  42.
 Defaulting to unpruned grid for atomic number  42.
 Defaulting to unpruned grid for atomic number  42.
 Defaulting to unpruned grid for atomic number  42.
 Defaulting to unpruned grid for atomic number  42.
 Defaulting to unpruned grid for atomic number  42.
 Defaulting to unpruned grid for atomic number  42.
 Defaulting to unpruned grid for atomic number  42.
 Defaulting to unpruned grid for atomic number  42.
 Defaulting to unpruned grid for atomic number  42.
 Defaulting to unpruned grid for atomic number  42.
 Defaulting to unpruned grid for atomic number  42.
 Defaulting to unpruned grid for atomic number  42.
 -------------------------------------------------------------------
 Center     Atomic                   Forces (Hartrees/Bohr)
 Number     Number              X              Y              Z
 -------------------------------------------------------------------
      1       42           0.000761756   -0.001746328    0.000999939
      2        6           0.000327069   -0.000296677   -0.002115773
      3        6           0.000248304    0.001171586   -0.000201950
      4        8          -0.000505176    0.000355153    0.001452475
      5        8          -0.000118369   -0.000704145    0.000116015
      6       16          -0.000775345    0.000782366   -0.000532749
      7        1          -0.000237842    0.000084970    0.000060084
      8       16           0.000364141    0.000455138    0.000336852
      9        1          -0.000064537   -0.000102063   -0.000114894
 -------------------------------------------------------------------
 Cartesian Forces:  Max     0.002115773 RMS     0.000765848

 GradGradGradGradGradGradGradGradGradGradGradGradGradGradGradGradGradGrad
 Berny optimization.
 Using GEDIIS/GDIIS optimizer.
 FormGI is forming the generalized inverse of G from B-inverse, IUseBI=4.
 Internal  Forces:  Max     0.001531958 RMS     0.000554699
 Search for a local minimum.
 Step number   4 out of a maximum of   36
 All quantities printed in internal units (Hartrees-Bohrs-Radians)
 Mixed Optimization -- En-DIIS/RFO-DIIS
 Swapping is turned off.
 Update second derivatives using D2CorX and points    1    2    3    4
 DE= -5.43D-05 DEPred=-5.35D-05 R= 1.01D+00
 TightC=F SS=  1.41D+00  RLast= 6.34D-02 DXNew= 5.0454D-01 1.9028D-01
 Trust test= 1.01D+00 RLast= 6.34D-02 DXMaxT set to 3.00D-01
 ITU=  1  1  1  0
     Eigenvalues ---    0.00243   0.00729   0.02659   0.04833   0.05071
     Eigenvalues ---    0.06508   0.08108   0.09513   0.14551   0.15321
     Eigenvalues ---    0.15585   0.16349   0.16541   0.18477   0.22012
     Eigenvalues ---    0.23065   0.24839   0.25134   0.25279   1.25699
     Eigenvalues ---    1.38060
 En-DIIS/RFO-DIIS/Sim-DIIS IScMMF=       -3 using points:     4    3    2    1
 RFO step:  Lambda=-6.24650694D-05.
 DidBck=F Rises=F RFO-DIIS coefs:    0.87249    0.28159    0.61094   -0.76502
 Iteration  1 RMS(Cart)=  0.02234373 RMS(Int)=  0.00014317
 Iteration  2 RMS(Cart)=  0.00020067 RMS(Int)=  0.00004017
 Iteration  3 RMS(Cart)=  0.00000001 RMS(Int)=  0.00004017
 Variable       Old X    -DE/DX   Delta X   Delta X   Delta X     New X
                                 (Linear)    (Quad)   (Total)
    R1        3.88003   0.00044  -0.00535   0.00148  -0.00387   3.87616
    R2        3.63935  -0.00049   0.00282  -0.00153   0.00129   3.64065
    R3        4.35332   0.00130  -0.00669   0.00852   0.00183   4.35515
    R4        4.35954   0.00042  -0.00014   0.00383   0.00369   4.36323
    R5        2.17319  -0.00153   0.00106  -0.00092   0.00014   2.17333
    R6        2.19662   0.00071  -0.00065   0.00039  -0.00026   2.19636
    R7        2.57203   0.00002   0.00002   0.00030   0.00033   2.57236
    R8        2.55980   0.00000  -0.00008  -0.00000  -0.00008   2.55971
    A1        1.69597   0.00012   0.00220   0.00224   0.00435   1.70032
    A2        2.10468  -0.00091  -0.00996  -0.01156  -0.02152   2.08316
    A3        1.95456   0.00042   0.00391   0.00317   0.00705   1.96161
    A4        1.72444   0.00030  -0.00152   0.00457   0.00295   1.72739
    A5        1.73884   0.00018   0.00168   0.00392   0.00550   1.74434
    A6        2.10988   0.00018   0.00502   0.00292   0.00790   2.11777
    A7        1.76269   0.00064  -0.00015   0.00581   0.00566   1.76835
    A8        1.85645  -0.00040  -0.00002  -0.00238  -0.00240   1.85405
    A9        3.20009   0.00044  -0.00887   0.01589   0.00702   3.20711
   A10        3.10267   0.00008  -0.00693   0.00826   0.00133   3.10400
   A11        3.11221   0.00051  -0.01243   0.00676  -0.00566   3.10655
   A12        3.09062   0.00021   0.00235  -0.00035   0.00200   3.09262
    D1       -1.35192   0.00014   0.01905   0.00257   0.02161  -1.33031
    D2        3.11985   0.00008   0.02063   0.00044   0.02107   3.14091
    D3        1.25498  -0.00040   0.01797  -0.00840   0.00958   1.26456
    D4       -2.15061  -0.00035  -0.00844   0.00450  -0.00402  -2.15463
    D5       -0.37329  -0.00002  -0.00438   0.00956   0.00518  -0.36811
    D6        1.48376   0.00053  -0.00349   0.01879   0.01539   1.49915
         Item               Value     Threshold  Converged?
 Maximum Force            0.001532     0.000450     NO 
 RMS     Force            0.000555     0.000300     NO 
 Maximum Displacement     0.066933     0.001800     NO 
 RMS     Displacement     0.022393     0.001200     NO 
 Predicted change in Energy=-2.793343D-05
 GradGradGradGradGradGradGradGradGradGradGradGradGradGradGradGradGradGrad

                          Input orientation:                          
 ---------------------------------------------------------------------
 Center     Atomic      Atomic             Coordinates (Angstroms)
 Number     Number       Type             X           Y           Z
 ---------------------------------------------------------------------
      1         42           0        2.011306   -0.253047   -0.285324
      2          6           0        3.094556   -0.625249   -1.986896
      3          6           0        1.510737   -2.074274    0.094344
      4          8           0        3.690624   -0.756289   -2.961681
      5          8           0        1.180420   -3.150866    0.381906
      6         16           0       -0.093533    0.668258   -0.464875
      7          1           0        0.206040    1.968417   -0.734685
      8         16           0        3.359446    0.178433    1.538812
      9          1           0        3.012234   -0.723458    2.487929
 ---------------------------------------------------------------------
                    Distance matrix (angstroms):
                    1          2          3          4          5
     1  Mo   0.000000
     2  C    2.051174   0.000000
     3  C    1.926547   2.989935   0.000000
     4  O    3.199414   1.150076   3.978477   0.000000
     5  O    3.087543   3.956499   1.162262   4.818164   0.000000
     6  S    2.304645   3.762130   3.226126   4.752181   4.114086
     7  H    2.897552   4.079051   4.328148   4.952359   5.329469
     8  S    2.308923   3.625837   3.252522   4.608452   4.143768
     9  H    2.985644   4.476659   3.131843   5.491770   3.699079
                    6          7          8          9
     6  S    0.000000
     7  H    1.361232   0.000000
     8  S    4.022158   4.279813   0.000000
     9  H    4.505742   5.050361   1.354542   0.000000
 Symmetry turned off by external request.
 Stoichiometry    C2H2MoO2S2
 Framework group  C1[X(C2H2MoO2S2)]
 Deg. of freedom    21
 Full point group                 C1      NOp   1
 Rotational constants (GHZ):           1.0705564           1.0145484           0.9098265
 Basis read from rwf:  (5D, 7F)
 Pseudo-potential data read from rwf file.
   124 basis functions,   279 primitive gaussians,   132 cartesian basis functions
    38 alpha electrons       38 beta electrons
       nuclear repulsion energy       437.9736822097 Hartrees.
 NAtoms=    9 NActive=    9 NUniq=    9 SFac= 1.00D+00 NAtFMM=   60 NAOKFM=F Big=F
 Integral buffers will be    131072 words long.
 Raffenetti 2 integral format.
 Two-electron integral symmetry is turned off.
 One-electron integrals computed using PRISM.
   1 Symmetry operations used in ECPInt.
 ECPInt:  NShTT=     820 NPrTT=    5722 LenC2=     784 LenP2D=    3934.
 LDataN:  DoStor=T MaxTD1= 5 Len=  102
 NBasis=   124 RedAO= T EigKep=  5.18D-03  NBF=   124
 NBsUse=   124 1.00D-06 EigRej= -1.00D+00 NBFU=   124
 Defaulting to unpruned grid for atomic number  42.
 Initial guess from the checkpoint file:  "/home/chesagar/scratch/Gau-40678.chk"
 B after Tr=     0.003038   -0.002405    0.013545
         Rot=    0.999999   -0.001131   -0.000029    0.000168 Ang=  -0.13 deg.
 ExpMin= 2.47D-02 ExpMax= 2.19D+04 ExpMxC= 3.30D+03 IAcc=3 IRadAn=         5 AccDes= 0.00D+00
 Harris functional with IExCor=  402 and IRadAn=       5 diagonalized for initial guess.
 HarFok:  IExCor=  402 AccDes= 0.00D+00 IRadAn=         5 IDoV= 1 UseB2=F ITyADJ=14
 ICtDFT=  3500011 ScaDFX=  1.000000  1.000000  1.000000  1.000000
 Defaulting to unpruned grid for atomic number  42.
 FoFCou: FMM=F IPFlag=           0 FMFlag=      100000 FMFlg1=           0
         NFxFlg=           0 DoJE=T BraDBF=F KetDBF=T FulRan=T
         wScrn=  0.000000 ICntrl=       500 IOpCl=  0 I1Cent=   200000004 NGrid=           0
         NMat0=    1 NMatS0=      1 NMatT0=    0 NMatD0=    1 NMtDS0=    0 NMtDT0=    0
 Symmetry not used in FoFCou.
 Keep R1 ints in memory in canonical form, NReq=76097989.
 Requested convergence on RMS density matrix=1.00D-08 within 128 cycles.
 Requested convergence on MAX density matrix=1.00D-06.
 Requested convergence on             energy=1.00D-06.
 No special actions if energy rises.
 Defaulting to unpruned grid for atomic number  42.
 Defaulting to unpruned grid for atomic number  42.
 Defaulting to unpruned grid for atomic number  42.
 Defaulting to unpruned grid for atomic number  42.
 Defaulting to unpruned grid for atomic number  42.
 Defaulting to unpruned grid for atomic number  42.
 Defaulting to unpruned grid for atomic number  42.
 Defaulting to unpruned grid for atomic number  42.
 Defaulting to unpruned grid for atomic number  42.
 Defaulting to unpruned grid for atomic number  42.
 Defaulting to unpruned grid for atomic number  42.
 Defaulting to unpruned grid for atomic number  42.
 Defaulting to unpruned grid for atomic number  42.
 Defaulting to unpruned grid for atomic number  42.
 Defaulting to unpruned grid for atomic number  42.
 Defaulting to unpruned grid for atomic number  42.
 Defaulting to unpruned grid for atomic number  42.
 Defaulting to unpruned grid for atomic number  42.
 Defaulting to unpruned grid for atomic number  42.
 Defaulting to unpruned grid for atomic number  42.
 Defaulting to unpruned grid for atomic number  42.
 Defaulting to unpruned grid for atomic number  42.
 Defaulting to unpruned grid for atomic number  42.
 Defaulting to unpruned grid for atomic number  42.
 Defaulting to unpruned grid for atomic number  42.
 Defaulting to unpruned grid for atomic number  42.
 Defaulting to unpruned grid for atomic number  42.
 Defaulting to unpruned grid for atomic number  42.
 Defaulting to unpruned grid for atomic number  42.
 Defaulting to unpruned grid for atomic number  42.
 Defaulting to unpruned grid for atomic number  42.
 Defaulting to unpruned grid for atomic number  42.
 Defaulting to unpruned grid for atomic number  42.
 Defaulting to unpruned grid for atomic number  42.
 Defaulting to unpruned grid for atomic number  42.
 Defaulting to unpruned grid for atomic number  42.
 Defaulting to unpruned grid for atomic number  42.
 Defaulting to unpruned grid for atomic number  42.
 Defaulting to unpruned grid for atomic number  42.
[...]
 Vibration    12          0.801              1.381              0.824
 Vibration    13          0.825              1.322              0.745
 Vibration    14          0.843              1.279              0.692
 Vibration    15          0.952              1.044              0.459
                       Q            Log10(Q)             Ln(Q)
 Total Bot       0.528937D+02          1.723404          3.968284
 Total V=0       0.391382D+18         17.592601         40.508461
 Vib (Bot)       0.470751D-12        -12.327209        -28.384447
 Vib (Bot)    1  0.634791D+01          0.802631          1.848126
 Vib (Bot)    2  0.344945D+01          0.537750          1.238214
 Vib (Bot)    3  0.250694D+01          0.399143          0.919061
 Vib (Bot)    4  0.228153D+01          0.358226          0.824846
 Vib (Bot)    5  0.218732D+01          0.339912          0.782676
 Vib (Bot)    6  0.630080D+00         -0.200604         -0.461908
 Vib (Bot)    7  0.589936D+00         -0.229195         -0.527741
 Vib (Bot)    8  0.520423D+00         -0.283644         -0.653114
 Vib (Bot)    9  0.487849D+00         -0.311714         -0.717749
 Vib (Bot)   10  0.463875D+00         -0.333599         -0.768140
 Vib (Bot)   11  0.419278D+00         -0.377498         -0.869221
 Vib (Bot)   12  0.391750D+00         -0.406991         -0.937131
 Vib (Bot)   13  0.361547D+00         -0.441835         -1.017363
 Vib (Bot)   14  0.341568D+00         -0.466523         -1.074208
 Vib (Bot)   15  0.252614D+00         -0.597542         -1.375891
 Vib (V=0)       0.348328D+04          3.541989          8.155730
 Vib (V=0)    1  0.686757D+01          0.836803          1.926811
 Vib (V=0)    2  0.398550D+01          0.600483          1.382662
 Vib (V=0)    3  0.305631D+01          0.485198          1.117209
 Vib (V=0)    4  0.283567D+01          0.452656          1.042280
 Vib (V=0)    5  0.274374D+01          0.438343          1.009321
 Vib (V=0)    6  0.130436D+01          0.115399          0.265715
 Vib (V=0)    7  0.127332D+01          0.104938          0.241628
 Vib (V=0)    8  0.122169D+01          0.086962          0.200237
 Vib (V=0)    9  0.119857D+01          0.078663          0.181127
 Vib (V=0)   10  0.118204D+01          0.072633          0.167243
 Vib (V=0)   11  0.115253D+01          0.061652          0.141959
 Vib (V=0)   12  0.113519D+01          0.055069          0.126801
 Vib (V=0)   13  0.111702D+01          0.048062          0.110666
 Vib (V=0)   14  0.110553D+01          0.043571          0.100326
 Vib (V=0)   15  0.106019D+01          0.025384          0.058449
 Electronic      0.100000D+01          0.000000          0.000000
 Translational   0.128132D+09          8.107659         18.668574
 Rotational      0.876907D+06          5.942954         13.684156
 -------------------------------------------------------------------
 Center     Atomic                   Forces (Hartrees/Bohr)
 Number     Number              X              Y              Z
 -------------------------------------------------------------------
      1       42          -0.000028937    0.000019889   -0.000045116
      2        6          -0.000014100    0.000020542    0.000057190
      3        6           0.000000350   -0.000017911    0.000037585
      4        8           0.000017739   -0.000008879   -0.000042701
      5        8           0.000003450    0.000015670   -0.000012072
      6       16           0.000005350   -0.000015830    0.000004773
      7        1           0.000009578    0.000000018   -0.000004539
      8       16           0.000012242   -0.000010027    0.000010094
      9        1          -0.000005671   -0.000003472   -0.000005213
 -------------------------------------------------------------------
 Cartesian Forces:  Max     0.000057190 RMS     0.000021388
 FormGI is forming the generalized inverse of G from B-inverse, IUseBI=4.

 GradGradGradGradGradGradGradGradGradGradGradGradGradGradGradGradGradGrad
 Berny optimization.
 Internal  Forces:  Max     0.000046074 RMS     0.000018238
 Search for a local minimum.
 Step number   1 out of a maximum of    2
 All quantities printed in internal units (Hartrees-Bohrs-Radians)
 Second derivative matrix not updated -- analytic derivatives used.
 ITU=  0
     Eigenvalues ---    0.00111   0.00922   0.02550   0.02860   0.04133
     Eigenvalues ---    0.04430   0.05942   0.06419   0.08166   0.08768
     Eigenvalues ---    0.09382   0.12922   0.13393   0.14673   0.15323
     Eigenvalues ---    0.16502   0.20149   0.24834   0.25466   1.08057
     Eigenvalues ---    1.15021
 Angle between quadratic step and forces=  67.12 degrees.
 Linear search not attempted -- first point.
 Iteration  1 RMS(Cart)=  0.00096930 RMS(Int)=  0.00000042
 Iteration  2 RMS(Cart)=  0.00000042 RMS(Int)=  0.00000006
 Variable       Old X    -DE/DX   Delta X   Delta X   Delta X     New X
                                 (Linear)    (Quad)   (Total)
    R1        3.84373  -0.00001   0.00000   0.00012   0.00012   3.84385
    R2        3.65798   0.00001   0.00000  -0.00012  -0.00012   3.65786
    R3        4.36486  -0.00002   0.00000  -0.00008  -0.00008   4.36478
    R4        4.36693   0.00001   0.00000   0.00010   0.00010   4.36703
    R5        2.17517   0.00005   0.00000   0.00002   0.00002   2.17519
    R6        2.19468  -0.00002   0.00000  -0.00000  -0.00000   2.19467
    R7        2.56971   0.00000   0.00000   0.00003   0.00003   2.56974
    R8        2.56015  -0.00000   0.00000  -0.00001  -0.00001   2.56014
    A1        1.73172   0.00002   0.00000   0.00000   0.00000   1.73172
    A2        2.05685  -0.00000   0.00000   0.00020   0.00020   2.05704
    A3        1.91835  -0.00001   0.00000  -0.00003  -0.00003   1.91832
    A4        1.75902   0.00001   0.00000  -0.00006  -0.00006   1.75896
    A5        1.77590  -0.00004   0.00000  -0.00083  -0.00083   1.77507
    A6        2.13310   0.00002   0.00000   0.00037   0.00037   2.13347
    A7        1.77729  -0.00002   0.00000  -0.00030  -0.00030   1.77699
    A8        1.83822  -0.00002   0.00000  -0.00023  -0.00023   1.83799
    A9        3.22707  -0.00002   0.00000  -0.00018  -0.00018   3.22689
   A10        3.09821   0.00002   0.00000   0.00007   0.00007   3.09828
   A11        3.11285  -0.00001   0.00000  -0.00019  -0.00019   3.11265
   A12        3.08658   0.00000   0.00000   0.00006   0.00006   3.08664
    D1       -1.23047   0.00001   0.00000  -0.00036  -0.00036  -1.23083
    D2       -3.09038  -0.00002   0.00000  -0.00039  -0.00039  -3.09077
    D3        1.24827   0.00002   0.00000   0.00054   0.00054   1.24882
    D4       -2.32626   0.00000   0.00000   0.00150   0.00150  -2.32476
    D5       -0.50338   0.00000   0.00000   0.00114   0.00114  -0.50224
    D6        1.43246  -0.00001   0.00000   0.00060   0.00060   1.43306
         Item               Value     Threshold  Converged?
 Maximum Force            0.000046     0.000450     YES
 RMS     Force            0.000018     0.000300     YES
 Maximum Displacement     0.003168     0.001800     NO 
 RMS     Displacement     0.000969     0.001200     YES
 Predicted change in Energy=-4.285922D-08
                           ----------------------------
                           ! Non-Optimized Parameters !
                           ! (Angstroms and Degrees)  !
 --------------------------                            --------------------------
 ! Name  Definition              Value          Derivative Info.                !
 --------------------------------------------------------------------------------
 ! R1    R(1,2)                  2.0341         -DE/DX =    0.0                 !
 ! R2    R(1,3)                  1.9357         -DE/DX =    0.0                 !
 ! R3    R(1,6)                  2.3097         -DE/DX =    0.0                 !
 ! R4    R(1,8)                  2.3109         -DE/DX =    0.0                 !
 ! R5    R(2,4)                  1.1511         -DE/DX =    0.0                 !
 ! R6    R(3,5)                  1.1614         -DE/DX =    0.0                 !
 ! R7    R(6,7)                  1.3598         -DE/DX =    0.0                 !
 ! R8    R(8,9)                  1.3548         -DE/DX =    0.0                 !
 ! A1    A(2,1,3)               99.2201         -DE/DX =    0.0                 !
 ! A2    A(2,1,6)              117.86           -DE/DX =    0.0                 !
 ! A3    A(2,1,8)              109.9117         -DE/DX =    0.0                 !
 ! A4    A(3,1,6)              100.7808         -DE/DX =    0.0                 !
 ! A5    A(3,1,8)              101.7038         -DE/DX =    0.0                 !
 ! A6    A(6,1,8)              122.2386         -DE/DX =    0.0                 !
 ! A7    A(1,6,7)              101.8141         -DE/DX =    0.0                 !
 ! A8    A(1,8,9)              105.3093         -DE/DX =    0.0                 !
 ! A9    L(1,2,4,5,-1)         184.8875         -DE/DX =    0.0                 !
 ! A10   L(1,3,5,9,-1)         177.5182         -DE/DX =    0.0                 !
 ! A11   L(1,2,4,5,-2)         178.3418         -DE/DX =    0.0                 !
 ! A12   L(1,3,5,9,-2)         176.8514         -DE/DX =    0.0                 !
 ! D1    D(2,1,6,7)            -70.5211         -DE/DX =    0.0                 !
 ! D2    D(3,1,6,7)           -177.0883         -DE/DX =    0.0                 !
 ! D3    D(8,1,6,7)             71.5519         -DE/DX =    0.0                 !
 ! D4    D(2,1,8,9)           -133.199          -DE/DX =    0.0                 !
 ! D5    D(3,1,8,9)            -28.7764         -DE/DX =    0.0                 !
 ! D6    D(6,1,8,9)             82.1085         -DE/DX =    0.0                 !
 --------------------------------------------------------------------------------
 GradGradGradGradGradGradGradGradGradGradGradGradGradGradGradGradGradGrad


 ----------------------------------------------------------------------

 Electric dipole moment (input orientation):
 (Debye = 10**-18 statcoulomb cm , SI units = C m)
                  (au)            (Debye)         (10**-30 SI)
   Tot        0.563099D+00      0.143126D+01      0.477415D+01
   x          0.277797D+00      0.706090D+00      0.235526D+01
   y          0.442382D+00      0.112442D+01      0.375067D+01
   z         -0.210256D+00     -0.534418D+00     -0.178263D+01

 Dipole polarizability, Alpha (input orientation).
 (esu units = cm**3 , SI units = C**2 m**2 J**-1)
 Alpha(0;0):
               (au)            (10**-24 esu)      (10**-40 SI)
   iso        0.113511D+03      0.168206D+02      0.187154D+02
   aniso      0.199643D+02      0.295841D+01      0.329167D+01
   xx         0.121389D+03      0.179880D+02      0.200143D+02
   yx        -0.241791D+01     -0.358297D+00     -0.398659D+00
   yy         0.103260D+03      0.153016D+02      0.170253D+02
   zx         0.385608D+01      0.571412D+00      0.635782D+00
   zy        -0.507497D+01     -0.752032D+00     -0.836749D+00
   zz         0.115884D+03      0.171723D+02      0.191068D+02

 ----------------------------------------------------------------------

 Dipole orientation:
    42          3.01976348          1.78011283          1.59288045
     6          3.26149338          5.18448001          3.36097193
     6          3.54998278          2.87275397         -1.85760373
     8          3.32493938          7.02616699          4.51662262
     8          3.86699335          3.38792646         -3.96727435
    16         -0.91872524         -0.07297226          1.26671705
     1         -1.38844671         -0.74433246          3.70229545
    16          6.63362960         -0.55059731          2.35302916
     1          7.33680411         -1.47230169          0.07040956

 Electric dipole moment (dipole orientation):
 (Debye = 10**-18 statcoulomb cm , SI units = C m)
                  (au)            (Debye)         (10**-30 SI)
   Tot        0.563099D+00      0.143126D+01      0.477415D+01
   x          0.000000D+00      0.000000D+00      0.000000D+00
   y          0.000000D+00      0.000000D+00      0.000000D+00
   z          0.563099D+00      0.143126D+01      0.477415D+01

 Dipole polarizability, Alpha (dipole orientation).
 (esu units = cm**3 , SI units = C**2 m**2 J**-1)
 Alpha(0;0):
               (au)            (10**-24 esu)      (10**-40 SI)
   iso        0.113511D+03      0.168206D+02      0.187154D+02
   aniso      0.199643D+02      0.295841D+01      0.329167D+01
   xx         0.124272D+03      0.184152D+02      0.204896D+02
   yx        -0.109792D+01     -0.162694D+00     -0.181022D+00
   yy         0.107147D+03      0.158775D+02      0.176661D+02
   zx         0.105898D+01      0.156924D+00      0.174602D+00
   zy         0.653595D+01      0.968527D+00      0.107763D+01
   zz         0.109115D+03      0.161692D+02      0.179906D+02

 ----------------------------------------------------------------------
 Unable to Open any file for archive entry.
 1\1\GINC-NODE13-IB\Freq\RB3LYP\Gen\C2H2Mo1O2S2\CHESAGAR\11-Mar-2022\0\
 \#N Geom=AllCheck Guess=TCheck SCRF=Check GenChk RB3LYP/ChkBas Freq\\T
 itle Card Required\\0,1\Mo,1.9964825027,-0.3074106614,-0.2664407562\C,
 3.0717061612,-0.6003750562,-1.9679960415\C,1.4897188622,-2.1394269004,
 0.0995147806\O,3.6760563263,-0.6660142773,-2.9454260759\O,1.1539234329
 ,-3.2139294252,0.3849504182\S,-0.0802190167,0.6850746676,-0.4597982924
 \H,0.2508438679,1.9633804776,-0.7845648757\S,3.4203520228,0.1480202588
 ,1.4957567741\H,2.9929658407,-0.6373930836,2.5135340687\\Version=ES64L
 -G16RevC.01\HF=-1091.8289791\RMSD=2.627e-09\RMSF=2.139e-05\ZeroPoint=0
 .0345007\Thermal=0.0445869\ETot=-1091.7843922\HTot=-1091.783448\GTot=-
 1091.8327259\Dipole=0.2777973,0.4423819,-0.2102562\DipoleDeriv=0.59186
 96,-0.3625494,0.7293736,-0.4018143,-0.4246308,0.0311148,0.8643573,0.23
 88599,-0.0284972,1.0297743,0.0343946,-1.1142546,-0.3190939,0.111988,0.
 3354924,-1.2202675,-0.1692268,2.1999433,0.3341622,0.645741,-0.2031301,
 0.9651188,2.5303931,-0.7590853,-0.2687381,-0.4920959,0.2100208,-0.6981
 268,0.0178509,0.8530983,0.0934217,-0.090357,-0.1033576,0.900418,0.0111
 833,-1.5620261,-0.2717783,-0.5082599,0.1298514,-0.5799667,-1.7929233,0
 .4106386,0.1719241,0.4205988,-0.2065278,-0.6307177,0.2858825,-0.105658
 5,0.3025255,-0.1619094,0.1248582,-0.0968816,-0.0694646,-0.1663698,0.00
 82189,-0.0484128,-0.0355594,0.0379253,-0.0863771,0.0400036,0.0464882,0
 .0925703,0.0575541,-0.4816153,-0.0737922,-0.2311411,0.0128924,-0.08454
 92,-0.1997939,-0.3357617,-0.0422575,-0.5044704,0.1182131,0.0091453,-0.
 0225796,-0.1110088,-0.0016343,0.1201292,-0.0615388,0.0098325,0.0003732
 \Polar=121.3887601,-2.4179097,103.2600467,3.8560825,-5.0749651,115.884
 4139\Quadrupole=-1.3874412,-0.4173961,1.8048373,-0.1127992,-0.7806729,
 -1.839982\PG=C01 [X(C2H2Mo1O2S2)]\NImag=0\\0.27374462,0.00512928,0.310
 35846,-0.00942552,0.00114897,0.26598772,-0.04855537,0.00373153,0.02932
 360,0.36406503,0.01476081,-0.06244478,-0.02799683,-0.03040930,0.085338
 29,0.02537969,-0.01481430,-0.07234132,-0.50458128,0.05282813,0.8573649
 7,-0.05421694,-0.01476646,0.00187876,-0.01258721,-0.01391271,0.0072294
 4,0.17384302,-0.01343521,-0.15104425,-0.00976843,-0.02182174,0.0280727
 2,0.04699078,0.27844887,0.99341220,0.00984609,-0.00515102,-0.05048375,
 0.00272960,0.02946122,-0.01115411,-0.07871328,-0.22725693,0.14904533,-
 0.00709491,0.00086605,0.02985312,-0.32042596,0.02924199,0.47493986,0.0
 0599078,0.01294897,-0.00255976,0.32685497,0.00037630,0.02178545,0.0015
 3558,0.03112421,-0.04080623,-0.05241327,0.00376076,-0.00625683,-0.0079
 5867,-0.03470405,0.02375975,0.03039822,0.00211121,-0.03734679,0.475303
 05,-0.04899103,-0.79176615,-0.00536128,-0.02447591,0.00668183,-0.50345
 271,0.05706658,0.82810977,0.00967324,-0.02508486,0.00812598,0.00580329
 ,0.00253286,-0.00484711,-0.12075603,-0.25818298,0.07083496,-0.00306746
 ,-0.00074736,0.00343191,0.10957779,-0.02721027,-0.05129683,0.03075423,
 0.01139882,-0.00821029,-0.02199394,-0.25999627,-0.86911531,0.21885826,
 -0.00731474,0.00171154,0.01290182,0.28214420,0.92700175,0.00495441,0.0
 2429936,0.01115532,-0.00208251,-0.00646303,0.00611740,0.07063063,0.217
 63421,-0.09840666,0.00173542,0.00185052,-0.00382889,-0.07540245,-0.238
 44194,0.08487693,-0.12243399,0.02896998,-0.00285110,0.00533513,0.00238
 870,-0.00027928,0.01317114,0.00351065,0.00266673,-0.00209906,-0.001167
 87,0.00196047,-0.00248203,0.00137188,-0.00146736,0.14223271,0.02834039
 ,-0.03548871,0.00700308,0.00280739,-0.00162932,-0.01065064,0.01108557,
 0.00203166,0.00053160,-0.00085908,-0.00009042,0.00202298,-0.00232495,-
 0.00094926,-0.00043791,0.02474485,0.24474385,-0.00690987,0.00588974,-0
 .01714370,0.00662683,0.00221008,0.00376800,-0.00069068,0.00228989,-0.0
 0069820,-0.00316745,-0.00096733,0.00110332,-0.00023919,-0.00102483,0.0
 0002546,-0.00844361,-0.05873321,0.03070433,0.00819446,0.01406481,-0.00
 365439,-0.00149300,0.00098909,0.00293869,-0.00685603,-0.00342757,-0.00
 022205,0.00035366,-0.00011517,-0.00056763,0.00187353,0.00128290,0.0001
 0923,-0.03050690,-0.06351374,0.01580639,0.02772450,0.00616513,-0.01204
 701,0.00202903,-0.00077374,0.00080644,0.00235784,0.00175262,0.00159775
 ,-0.00043578,0.00065172,-0.00012712,-0.00120063,-0.00046865,-0.0003593
 4,0.00017637,-0.05945303,-0.21140308,0.05269549,0.05152569,0.22023920,
 0.00030423,0.00115808,0.00111406,-0.00498817,-0.00099020,0.00222126,-0
 .00195519,-0.00284908,0.00075511,0.00153989,0.00061134,-0.00060399,0.0
 0075772,0.00117095,-0.00002207,0.01527864,0.05318254,-0.02204347,-0.01
 345103,-0.05466677,0.01970776,-0.06224191,-0.01344796,-0.04062504,0.01
 084885,-0.00820224,-0.00692522,0.00178928,0.00651056,-0.00625070,-0.00
 156524,0.00189321,0.00060938,-0.00062583,-0.00275390,0.00160481,-0.005
 35873,-0.00395513,-0.00416623,0.00243098,0.00099833,0.00384543,0.09007
 725,-0.01581698,-0.02625380,-0.00127225,0.00422071,-0.00041747,0.00087
 744,-0.01035506,-0.00144768,-0.00826467,-0.00072691,-0.00003681,-0.000
 75729,0.00303576,0.00228273,0.00127335,0.00315066,0.00431753,-0.003885
 10,-0.00220769,0.00163537,0.00296909,0.07032966,0.11704960,-0.05307447
 ,-0.01502340,-0.08621112,-0.00018910,-0.00077670,0.00590465,0.00589732
 ,-0.00653819,0.00419910,0.00054287,0.00042614,-0.00239558,-0.00179851,
 0.00039628,-0.00027599,-0.00552749,0.00749474,0.00218487,-0.00133121,-
 0.00064966,-0.00004403,-0.00661905,-0.09553054,0.21125709,0.00293080,0
 .00053765,-0.01262539,-0.00299076,0.00261079,0.00614522,-0.00037800,-0
 .00455154,0.00166843,0.00105322,-0.00042004,-0.00232141,0.00000350,0.0
 0107737,-0.00008219,0.00214173,0.00367470,0.00118381,-0.00172120,-0.00
 039808,-0.00133151,-0.03535464,-0.05163016,0.06209965,0.03431535,0.001
 69056,0.00643147,-0.00343339,-0.00027789,-0.00070937,-0.00318204,0.003
 98268,0.00274973,0.00021600,-0.00010396,0.00006067,0.00132227,-0.00090
 403,-0.00106500,0.00010907,-0.00351582,-0.00153226,0.00152528,0.001401
 66,-0.00034221,-0.00058595,-0.05137253,-0.09712947,0.11020135,0.049099
 31,0.09153646,-0.00147276,0.00038136,-0.01473043,-0.00214200,0.0007183
 6,-0.00011471,0.00108427,0.00397369,0.00006134,0.00056877,-0.00015089,
 0.00004647,-0.00086330,-0.00262083,0.00035850,-0.00133699,-0.00041317,
 0.00209938,0.00037201,-0.00030590,-0.00108463,0.05852662,0.10458997,-0
 .13461901,-0.05473661,-0.10617259,0.14798307\\0.00002894,-0.00001989,0
 .00004512,0.00001410,-0.00002054,-0.00005719,-0.00000035,0.00001791,-0
 .00003758,-0.00001774,0.00000888,0.00004270,-0.00000345,-0.00001567,0.
 00001207,-0.00000535,0.00001583,-0.00000477,-0.00000958,-0.00000002,0.
 00000454,-0.00001224,0.00001003,-0.00001009,0.00000567,0.00000347,0.00
 000521\\\@
 The archive entry for this job was punched.


    THE DOUGHNUT CREED
 AS YOU RAMBLE ON THROUGH LIFE, BROTHER
 WHATEVER BE YOUR GOAL
 KEEP YOUR EYE UPON THE DOUGHNUT
 AND NOT UPON THE HOLE.
 Job cpu time:       0 days  0 hours  6 minutes 59.7 seconds.
 Elapsed time:       0 days  0 hours  0 minutes  9.7 seconds.
 File lengths (MBytes):  RWF=     93 Int=      0 D2E=      0 Chk=      3 Scr=      2
 Normal termination of Gaussian 16 at Fri Mar 11 08:57:35 2022.
