 Entering Gaussian System, Link 0=g16
 Initial command:
 /home/chesagar/softwares/G16_AVX2//g16/l1.exe "/home/chesagar/scratch/4451.raman-ib/Gau-168454.inp" -scrdir="/home/chesagar/scratch/4451.raman-ib/"
 Entering Link 1 = /home/chesagar/softwares/G16_AVX2//g16/l1.exe PID=    168455.
  
 Copyright (c) 1988-2019, Gaussian, Inc.  All Rights Reserved.
  
 This is part of the Gaussian(R) 16 program.  It is based on
 the Gaussian(R) 09 system (copyright 2009, Gaussian, Inc.),
 the Gaussian(R) 03 system (copyright 2003, Gaussian, Inc.),
 the Gaussian(R) 98 system (copyright 1998, Gaussian, Inc.),
 the Gaussian(R) 94 system (copyright 1995, Gaussian, Inc.),
 the Gaussian 92(TM) system (copyright 1992, Gaussian, Inc.),
 the Gaussian 90(TM) system (copyright 1990, Gaussian, Inc.),
 the Gaussian 88(TM) system (copyright 1988, Gaussian, Inc.),
 the Gaussian 86(TM) system (copyright 1986, Carnegie Mellon
 University), and the Gaussian 82(TM) system (copyright 1983,
 Carnegie Mellon University). Gaussian is a federally registered
 trademark of Gaussian, Inc.
  
 This software contains proprietary and confidential information,
 including trade secrets, belonging to Gaussian, Inc.
  
 This software is provided under written license and may be
 used, copied, transmitted, or stored only in accord with that
 written license.
  
 The following legend is applicable only to US Government
 contracts under FAR:
  
                    RESTRICTED RIGHTS LEGEND
  
 Use, reproduction and disclosure by the US Government is
 subject to restrictions as set forth in subparagraphs (a)
 and (c) of the Commercial Computer Software - Restricted
 Rights clause in FAR 52.227-19.
  
 Gaussian, Inc.
 340 Quinnipiac St., Bldg. 40, Wallingford CT 06492
  
  
 ---------------------------------------------------------------
 Warning -- This program may not be used in any manner that
 competes with the business of Gaussian, Inc. or will provide
 assistance to any competitor of Gaussian, Inc.  The licensee
 of this program is prohibited from giving any competitor of
 Gaussian, Inc. access to this program.  By using this program,
 the user acknowledges that Gaussian, Inc. is engaged in the
 business of creating and licensing software in the field of
 computational chemistry and represents and warrants to the
 licensee that it is not a competitor of Gaussian, Inc. and that
 it will not use this program in any manner prohibited above.
 ---------------------------------------------------------------
  

 Cite this work as:
 Gaussian 16, Revision C.01,
 M. J. Frisch, G. W. Trucks, H. B. Schlegel, G. E. Scuseria, 
 M. A. Robb, J. R. Cheeseman, G. Scalmani, V. Barone, 
 G. A. Petersson, H. Nakatsuji, X. Li, M. Caricato, A. V. Marenich, 
 J. Bloino, B. G. Janesko, R. Gomperts, B. Mennucci, H. P. Hratchian, 
 J. V. Ortiz, A. F. Izmaylov, J. L. Sonnenberg, D. Williams-Young, 
 F. Ding, F. Lipparini, F. Egidi, J. Goings, B. Peng, A. Petrone, 
 T. Henderson, D. Ranasinghe, V. G. Zakrzewski, J. Gao, N. Rega, 
 G. Zheng, W. Liang, M. Hada, M. Ehara, K. Toyota, R. Fukuda, 
 J. Hasegawa, M. Ishida, T. Nakajima, Y. Honda, O. Kitao, H. Nakai, 
 T. Vreven, K. Throssell, J. A. Montgomery, Jr., J. E. Peralta, 
 F. Ogliaro, M. J. Bearpark, J. J. Heyd, E. N. Brothers, K. N. Kudin, 
 V. N. Staroverov, T. A. Keith, R. Kobayashi, J. Normand, 
 K. Raghavachari, A. P. Rendell, J. C. Burant, S. S. Iyengar, 
 J. Tomasi, M. Cossi, J. M. Millam, M. Klene, C. Adamo, R. Cammi, 
 J. W. Ochterski, R. L. Martin, K. Morokuma, O. Farkas, 
 J. B. Foresman, and D. J. Fox, Gaussian, Inc., Wallingford CT, 2019.
 
 ******************************************
 Gaussian 16:  ES64L-G16RevC.01  3-Jul-2019
                 4-Nov-2021 
 ******************************************
 %nprocshared=16
 Will use up to   16 processors via shared memory.
 %chk=MoCO5_SP.chk
 %mem=8GB
 ---------------------------------------
 # opt freq b3lyp/gen nosymm pseudo=read
 ---------------------------------------
 1/18=20,19=15,26=3,38=1/1,3;
 2/9=110,12=2,15=1,17=6,18=5,40=1/2;
 3/5=7,11=2,16=1,17=8,25=1,30=1,71=1,74=-5/1,2,3;
 4//1;
 5/5=2,38=5/2;
 6/7=2,8=2,9=2,10=2,28=1/1;
 7/30=1/1,2,3,16;
 1/18=20,19=15,26=3/3(2);
 2/9=110,15=1/2;
 99//99;
 2/9=110,15=1/2;
 3/5=7,6=1,11=2,16=1,17=8,25=1,30=1,71=1,74=-5,82=7/1,2,3;
 4/5=5,16=3,69=1/1;
 5/5=2,38=5/2;
 7/30=1/1,2,3,16;
 1/18=20,19=15,26=3/3(-5);
 2/9=110,15=1/2;
 6/7=2,8=2,9=2,10=2,19=2,28=1/1;
 99/9=1/99;
 -------------------
 Title Card Required
 -------------------
 Symbolic Z-matrix:
 Charge =  0 Multiplicity = 1
 42                    0.32263  0.        0. 
 6                     0.31502  -0.00002   2.07477 
 6                     0.31501   2.07477  -0.00005 
 6                     2.28252  0.        -0.00001 
 6                     0.31501  -2.07477  -0.00005 
 6                     0.31501  -0.00002  -2.07477 
 8                     0.33551   3.22549   0.00009 
 8                     0.33548   0.00003  -3.2255 
 8                     3.44168  -0.00001  -0.00001 
 8                     0.33551  -3.2255    0.00009 
 8                     0.33552   0.00003   3.22549 
 

 GradGradGradGradGradGradGradGradGradGradGradGradGradGradGradGradGradGrad
 Berny optimization.
 Initialization pass.
                           ----------------------------
                           !    Initial Parameters    !
                           ! (Angstroms and Degrees)  !
 --------------------------                            --------------------------
 ! Name  Definition              Value          Derivative Info.                !
 --------------------------------------------------------------------------------
 ! R1    R(1,2)                  2.0748         estimate D2E/DX2                !
 ! R2    R(1,3)                  2.0748         estimate D2E/DX2                !
 ! R3    R(1,4)                  1.9599         estimate D2E/DX2                !
 ! R4    R(1,5)                  2.0748         estimate D2E/DX2                !
 ! R5    R(1,6)                  2.0748         estimate D2E/DX2                !
 ! R6    R(2,11)                 1.1509         estimate D2E/DX2                !
 ! R7    R(3,7)                  1.1509         estimate D2E/DX2                !
 ! R8    R(4,9)                  1.1592         estimate D2E/DX2                !
 ! R9    R(5,10)                 1.1509         estimate D2E/DX2                !
 ! R10   R(6,8)                  1.1509         estimate D2E/DX2                !
 ! A1    A(2,1,3)               90.0009         estimate D2E/DX2                !
 ! A2    A(2,1,4)               90.2105         estimate D2E/DX2                !
 ! A3    A(2,1,5)               90.0            estimate D2E/DX2                !
 ! A4    A(3,1,4)               90.2103         estimate D2E/DX2                !
 ! A5    A(3,1,6)               89.9985         estimate D2E/DX2                !
 ! A6    A(4,1,5)               90.2103         estimate D2E/DX2                !
 ! A7    A(4,1,6)               90.2101         estimate D2E/DX2                !
 ! A8    A(5,1,6)               89.9976         estimate D2E/DX2                !
 ! A9    L(2,1,6,3,-1)         179.9993         estimate D2E/DX2                !
 ! A10   L(3,1,5,2,-1)         180.0008         estimate D2E/DX2                !
 ! A11   L(1,2,11,10,-1)       179.9896         estimate D2E/DX2                !
 ! A12   L(1,3,7,8,-1)         179.9944         estimate D2E/DX2                !
 ! A13   L(1,4,9,10,-1)        179.9997         estimate D2E/DX2                !
 ! A14   L(1,5,10,8,-1)        179.9944         estimate D2E/DX2                !
 ! A15   L(1,6,8,10,-1)        179.9896         estimate D2E/DX2                !
 ! A16   L(2,1,6,3,-2)         180.4206         estimate D2E/DX2                !
 ! A17   L(3,1,5,2,-2)         179.5794         estimate D2E/DX2                !
 ! A18   L(1,2,11,10,-2)       178.5367         estimate D2E/DX2                !
 ! A19   L(1,3,7,8,-2)         181.4636         estimate D2E/DX2                !
 ! A20   L(1,4,9,10,-2)        180.0008         estimate D2E/DX2                !
 ! A21   L(1,5,10,8,-2)        178.5364         estimate D2E/DX2                !
 ! A22   L(1,6,8,10,-2)        181.4623         estimate D2E/DX2                !
 ! D1    D(2,1,4,3)            -90.0016         estimate D2E/DX2                !
 ! D2    D(2,1,5,4)            -90.2105         estimate D2E/DX2                !
 ! D3    D(3,1,6,4)             90.2103         estimate D2E/DX2                !
 ! D4    D(4,1,6,5)             90.2103         estimate D2E/DX2                !
 --------------------------------------------------------------------------------
 Trust Radius=3.00D-01 FncErr=1.00D-07 GrdErr=1.00D-06 EigMax=2.50D+02 EigMin=1.00D-04
 Number of steps in this run=     46 maximum allowed number of steps=    100.
 GradGradGradGradGradGradGradGradGradGradGradGradGradGradGradGradGradGrad

                          Input orientation:                          
 ---------------------------------------------------------------------
 Center     Atomic      Atomic             Coordinates (Angstroms)
 Number     Number       Type             X           Y           Z
 ---------------------------------------------------------------------
      1         42           0        0.322628   -0.000002   -0.000002
      2          6           0        0.315019   -0.000018    2.074769
      3          6           0        0.315012    2.074769   -0.000045
      4          6           0        2.282515   -0.000002   -0.000014
      5          6           0        0.315013   -2.074773   -0.000045
      6          6           0        0.315006   -0.000018   -2.074772
      7          8           0        0.335513    3.225491    0.000088
      8          8           0        0.335483    0.000033   -3.225495
      9          8           0        3.441680   -0.000009   -0.000008
     10          8           0        0.335514   -3.225495    0.000088
     11          8           0        0.335521    0.000033    3.225492
 ---------------------------------------------------------------------
                    Distance matrix (angstroms):
                    1          2          3          4          5
     1  Mo   0.000000
     2  C    2.074785   0.000000
     3  C    2.074785   2.934211   0.000000
     4  C    1.959887   2.859329   2.859326   0.000000
     5  C    2.074785   2.934188   4.149542   2.859325   0.000000
     6  C    2.074784   4.149541   2.934149   2.859320   2.934127
     7  O    3.225519   3.835183   1.150905   3.767575   5.300304
     8  O    3.225519   5.300304   3.835163   3.767580   3.835201
     9  O    3.119052   3.752427   3.752433   1.159165   3.752425
    10  O    3.225519   3.835156   5.300304   3.767575   1.150905
    11  O    3.225520   1.150906   3.835237   3.767582   3.835274
                    6          7          8          9         10
     6  C    0.000000
     7  O    3.835280   0.000000
     8  O    1.150905   4.561575   0.000000
     9  O    3.752431   4.477960   4.477971   0.000000
    10  O    3.835253   6.450986   4.561624   4.477949   0.000000
    11  O    5.300304   4.561448   6.450987   4.477954   4.561498
                   11
    11  O    0.000000
 Symmetry turned off by external request.
 This structure is nearly, but not quite of a higher symmetry.
 Consider Symm=Loose if the higher symmetry is desired.
 Stoichiometry    C5MoO5
 Framework group  C1[X(C5MoO5)]
 Deg. of freedom    27
 Full point group                 C1      NOp   1
 Rotational constants (GHZ):           0.8218815           0.8218815           0.5793928
 General basis read from cards:  (5D, 7F)
 ======================================================================================================
                                       Pseudopotential Parameters
 ======================================================================================================
  Center     Atomic      Valence      Angular      Power
  Number     Number     Electrons     Momentum     of R      Exponent        Coefficient   SO-Coeffient
 ======================================================================================================
    1         42           14
                                      F and up 
                                                     0      537.9667807       -0.04694920    0.00000000
                                                     1      147.8982938      -20.20800840    0.00000000
                                                     2       45.7358898     -106.21163020    0.00000000
                                                     2       13.2911467      -41.81073680    0.00000000
                                                     2        4.7059961       -4.20541030    0.00000000
                                      S - F
                                                     0      110.2991760        2.80637170    0.00000000
                                                     1       23.2014645       44.51620120    0.00000000
                                                     2        5.3530131       82.77852270    0.00000000
                                      P - F
                                                     0       63.2901397        4.94208760    0.00000000
                                                     1       23.3315302       25.86049760    0.00000000
                                                     2       24.6759423      132.47087420    0.00000000
                                                     2        4.6493040       57.31497940    0.00000000
                                      D - F
                                                     0      104.4839977        3.00545910    0.00000000
                                                     1       66.2307245       26.36378510    0.00000000
                                                     2       39.1283176      183.38491990    0.00000000
                                                     2       13.1164437       98.44530680    0.00000000
                                                     2        3.6280263       22.49013770    0.00000000
    2          6
                                   No pseudopotential on this center.
    3          6
                                   No pseudopotential on this center.
    4          6
                                   No pseudopotential on this center.
    5          6
                                   No pseudopotential on this center.
    6          6
                                   No pseudopotential on this center.
    7          8
                                   No pseudopotential on this center.
    8          8
                                   No pseudopotential on this center.
    9          8
                                   No pseudopotential on this center.
   10          8
                                   No pseudopotential on this center.
   11          8
                                   No pseudopotential on this center.
 ======================================================================================================
   162 basis functions,   329 primitive gaussians,   174 cartesian basis functions
    42 alpha electrons       42 beta electrons
       nuclear repulsion energy       569.5207582816 Hartrees.
 NAtoms=   11 NActive=   11 NUniq=   11 SFac= 1.00D+00 NAtFMM=   60 NAOKFM=F Big=F
 Integral buffers will be    131072 words long.
 Raffenetti 2 integral format.
 Two-electron integral symmetry is turned off.
 One-electron integrals computed using PRISM.
   1 Symmetry operations used in ECPInt.
 ECPInt:  NShTT=    1176 NPrTT=    8321 LenC2=    1101 LenP2D=    5188.
 LDataN:  DoStor=T MaxTD1= 5 Len=  102
 NBasis=   162 RedAO= T EigKep=  3.08D-03  NBF=   162
 NBsUse=   162 1.00D-06 EigRej= -1.00D+00 NBFU=   162
 Defaulting to unpruned grid for atomic number  42.
 ExpMin= 2.47D-02 ExpMax= 5.48D+03 ExpMxC= 8.25D+02 IAcc=3 IRadAn=         5 AccDes= 0.00D+00
 Harris functional with IExCor=  402 and IRadAn=       5 diagonalized for initial guess.
 HarFok:  IExCor=  402 AccDes= 0.00D+00 IRadAn=         5 IDoV= 1 UseB2=F ITyADJ=14
 ICtDFT=  3500011 ScaDFX=  1.000000  1.000000  1.000000  1.000000
 Defaulting to unpruned grid for atomic number  42.
 FoFCou: FMM=F IPFlag=           0 FMFlag=      100000 FMFlg1=           0
         NFxFlg=           0 DoJE=T BraDBF=F KetDBF=T FulRan=T
         wScrn=  0.000000 ICntrl=       500 IOpCl=  0 I1Cent=   200000004 NGrid=           0
         NMat0=    1 NMatS0=      1 NMatT0=    0 NMatD0=    1 NMtDS0=    0 NMtDT0=    0
 Symmetry not used in FoFCou.
 Keep R1 ints in memory in canonical form, NReq=103186106.
 Requested convergence on RMS density matrix=1.00D-08 within 128 cycles.
 Requested convergence on MAX density matrix=1.00D-06.
 Requested convergence on             energy=1.00D-06.
 No special actions if energy rises.
 Defaulting to unpruned grid for atomic number  42.
 Defaulting to unpruned grid for atomic number  42.
 Defaulting to unpruned grid for atomic number  42.
 Defaulting to unpruned grid for atomic number  42.
 Defaulting to unpruned grid for atomic number  42.
 Defaulting to unpruned grid for atomic number  42.
 Defaulting to unpruned grid for atomic number  42.
 Defaulting to unpruned grid for atomic number  42.
 Defaulting to unpruned grid for atomic number  42.
 Defaulting to unpruned grid for atomic number  42.
 Defaulting to unpruned grid for atomic number  42.
 Defaulting to unpruned grid for atomic number  42.
 Defaulting to unpruned grid for atomic number  42.
 Defaulting to unpruned grid for atomic number  42.
 Defaulting to unpruned grid for atomic number  42.
 Defaulting to unpruned grid for atomic number  42.
 EnCoef did     4 forward-backward iterations
 SCF Done:  E(RB3LYP) =  -634.260869778     A.U. after   15 cycles
            NFock= 15  Conv=0.81D-08     -V/T= 2.0840

 **********************************************************************

            Population analysis using the SCF Density.

 **********************************************************************

 Alpha  occ. eigenvalues --  -19.24804 -19.24801 -19.24801 -19.24801 -19.22034
 Alpha  occ. eigenvalues --  -10.31799 -10.31793 -10.31793 -10.31788 -10.30321
 Alpha  occ. eigenvalues --   -2.47383  -1.50225  -1.50084  -1.50084  -1.15045
 Alpha  occ. eigenvalues --   -1.15011  -1.15011  -1.15007  -1.12284  -0.59529
 Alpha  occ. eigenvalues --   -0.57831  -0.57204  -0.57204  -0.55879  -0.49030
 Alpha  occ. eigenvalues --   -0.47904  -0.47287  -0.47257  -0.47257  -0.47075
 Alpha  occ. eigenvalues --   -0.46894  -0.46894  -0.46485  -0.46021  -0.44578
 Alpha  occ. eigenvalues --   -0.44578  -0.44153  -0.41095  -0.41095  -0.25015
 Alpha  occ. eigenvalues --   -0.24412  -0.24412
 Alpha virt. eigenvalues --   -0.12137  -0.05640  -0.05640  -0.04037  -0.00816
 Alpha virt. eigenvalues --   -0.00816  -0.00503   0.00120   0.02203   0.02204
 Alpha virt. eigenvalues --    0.02550   0.02826   0.02826   0.03669   0.05129
 Alpha virt. eigenvalues --    0.06147   0.15137   0.25564   0.25564   0.27991
 Alpha virt. eigenvalues --    0.29498   0.34957   0.34957   0.38351   0.44282
 Alpha virt. eigenvalues --    0.44282   0.45059   0.50683   0.55748   0.55748
 Alpha virt. eigenvalues --    0.56417   0.57694   0.61374   0.63658   0.64999
 Alpha virt. eigenvalues --    0.64999   0.68382   0.69741   0.70278   0.70278
 Alpha virt. eigenvalues --    0.75481   0.75954   0.77182   0.77182   0.82162
 Alpha virt. eigenvalues --    0.83869   0.85195   0.85195   0.86362   0.93606
 Alpha virt. eigenvalues --    0.95312   0.96082   0.96082   0.99542   1.02400
 Alpha virt. eigenvalues --    1.02400   1.02931   1.09258   1.10289   1.10289
 Alpha virt. eigenvalues --    1.16384   1.16384   1.24269   1.40090   1.47216
 Alpha virt. eigenvalues --    1.47301   1.47330   1.48265   1.48265   1.49177
 Alpha virt. eigenvalues --    1.49177   1.49209   1.49583   1.50094   1.50175
 Alpha virt. eigenvalues --    1.50175   1.50437   1.51697   1.51697   1.53012
 Alpha virt. eigenvalues --    1.55554   1.59567   1.59567   1.68483   1.71421
 Alpha virt. eigenvalues --    1.75974   1.77901   1.77901   1.78513   1.92618
 Alpha virt. eigenvalues --    1.92725   1.93772   1.93772   1.93957   1.96882
 Alpha virt. eigenvalues --    1.97100   1.97100   2.01255   2.05182   2.35293
 Alpha virt. eigenvalues --    2.35293   2.39925   2.44341   2.48792   2.57020
 Alpha virt. eigenvalues --    2.57283   2.57283   2.57813   2.57813   2.57969
 Alpha virt. eigenvalues --    2.58046   2.58499   2.58999   2.58999   2.96426
 Alpha virt. eigenvalues --    3.00368   3.00368   3.00757   3.00771  15.36076
          Condensed to atoms (all electrons):
               1          2          3          4          5          6
     1  Mo  13.113824   0.188809   0.188811   0.237887   0.188813   0.188814
     2  C    0.188809   4.926518   0.004925  -0.003992   0.004925  -0.006915
     3  C    0.188811   0.004925   4.926514  -0.003993  -0.006914   0.004925
     4  C    0.237887  -0.003992  -0.003993   4.939988  -0.003993  -0.003994
     5  C    0.188813   0.004925  -0.006914  -0.003993   4.926511   0.004925
     6  C    0.188814  -0.006915   0.004925  -0.003994   0.004925   4.926510
     7  O   -0.019189  -0.000835   0.647964  -0.000864   0.000013  -0.000834
     8  O   -0.019189   0.000013  -0.000835  -0.000864  -0.000834   0.647962
     9  O   -0.018814  -0.000852  -0.000852   0.612912  -0.000852  -0.000852
    10  O   -0.019189  -0.000835   0.000013  -0.000864   0.647963  -0.000834
    11  O   -0.019189   0.647963  -0.000834  -0.000864  -0.000834   0.000013
               7          8          9         10         11
     1  Mo  -0.019189  -0.019189  -0.018814  -0.019189  -0.019189
     2  C   -0.000835   0.000013  -0.000852  -0.000835   0.647963
     3  C    0.647964  -0.000835  -0.000852   0.000013  -0.000834
     4  C   -0.000864  -0.000864   0.612912  -0.000864  -0.000864
     5  C    0.000013  -0.000834  -0.000852   0.647963  -0.000834
     6  C   -0.000834   0.647962  -0.000852  -0.000834   0.000013
     7  O    7.601432   0.000011   0.000020   0.000000   0.000011
     8  O    0.000011   7.601435   0.000020   0.000011   0.000000
     9  O    0.000020   0.000020   7.676670   0.000020   0.000020
    10  O    0.000000   0.000011   0.000020   7.601433   0.000011
    11  O    0.000011   0.000000   0.000020   0.000011   7.601433
 Mulliken charges:
               1
     1  Mo  -0.011388
     2  C    0.240275
     3  C    0.240277
     4  C    0.228639
     5  C    0.240278
     6  C    0.240279
     7  O   -0.227729
     8  O   -0.227730
     9  O   -0.267442
    10  O   -0.227729
    11  O   -0.227730
 Sum of Mulliken charges =  -0.00000
 Mulliken charges with hydrogens summed into heavy atoms:
               1
     1  Mo  -0.011388
     2  C    0.240275
     3  C    0.240277
     4  C    0.228639
     5  C    0.240278
     6  C    0.240279
     7  O   -0.227729
     8  O   -0.227730
     9  O   -0.267442
    10  O   -0.227729
    11  O   -0.227730
 Electronic spatial extent (au):  <R**2>=           2211.0406
 Charge=             -0.0000 electrons
 Dipole moment (field-independent basis, Debye):
    X=             -2.2572    Y=             -0.0001    Z=             -0.0003  Tot=              2.2572
 Quadrupole moment (field-independent basis, Debye-Ang):
   XX=            -78.0875   YY=            -79.7370   ZZ=            -79.7371
   XY=             -0.0000   XZ=             -0.0002   YZ=             -0.0000
 Traceless Quadrupole moment (field-independent basis, Debye-Ang):
   XX=              1.0997   YY=             -0.5498   ZZ=             -0.5499
   XY=             -0.0000   XZ=             -0.0002   YZ=             -0.0000
 Octapole moment (field-independent basis, Debye-Ang**2):
  XXX=           -178.1270  YYY=             -0.0000  ZZZ=             -0.0007  XYY=            -51.7390
  XXY=              0.0001  XXZ=             -0.0003  XZZ=            -51.7388  YZZ=             -0.0010
  YYZ=             -0.0029  XYZ=             -0.0000
 Hexadecapole moment (field-independent basis, Debye-Ang**3):
 XXXX=           -751.4889 YYYY=          -1107.0696 ZZZZ=          -1107.0707 XXXY=              0.0009
 XXXZ=             -0.0016 YYYX=              0.0006 YYYZ=              0.0000 ZZZX=             -0.0028
 ZZZY=              0.0000 XXYY=           -265.4572 XXZZ=           -265.4571 YYZZ=           -318.9725
 XXYZ=             -0.0000 YYXZ=             -0.0015 ZZXY=             -0.0002
 N-N= 5.695207582816D+02 E-N=-2.605698039107D+03  KE= 5.851067097085D+02
   1 Symmetry operations used in ECPInt.
 ECPInt:  NShTT=    1176 NPrTT=    8321 LenC2=    1101 LenP2D=    5188.
 LDataN:  DoStor=T MaxTD1= 6 Len=  172
 Calling FoFJK, ICntrl=      2127 FMM=F ISym2X=0 I1Cent= 0 IOpClX= 0 NMat=1 NMatS=1 NMatT=0.
 Defaulting to unpruned grid for atomic number  42.
 Defaulting to unpruned grid for atomic number  42.
 Defaulting to unpruned grid for atomic number  42.
 Defaulting to unpruned grid for atomic number  42.
 Defaulting to unpruned grid for atomic number  42.
 Defaulting to unpruned grid for atomic number  42.
 Defaulting to unpruned grid for atomic number  42.
 Defaulting to unpruned grid for atomic number  42.
 Defaulting to unpruned grid for atomic number  42.
 Defaulting to unpruned grid for atomic number  42.
 Defaulting to unpruned grid for atomic number  42.
 Defaulting to unpruned grid for atomic number  42.
 Defaulting to unpruned grid for atomic number  42.
 Defaulting to unpruned grid for atomic number  42.
 Defaulting to unpruned grid for atomic number  42.
 Defaulting to unpruned grid for atomic number  42.
 -------------------------------------------------------------------
 Center     Atomic                   Forces (Hartrees/Bohr)
 Number     Number              X              Y              Z
 -------------------------------------------------------------------
      1       42          -0.000034926   -0.000007344   -0.000020986
      2        6           0.000059528    0.000006909    0.000665457
      3        6           0.000059663    0.000663472    0.000018193
      4        6           0.000369520   -0.000000499    0.000001890
      5        6           0.000059676   -0.000663812    0.000018193
      6        6           0.000057851    0.000006909   -0.000665144
      7        8           0.000024830   -0.000496749   -0.000008024
      8        8           0.000025664   -0.000003049    0.000498000
      9        8          -0.000671582    0.000000343   -0.000000675
     10        8           0.000024849    0.000496868   -0.000008024
     11        8           0.000024926   -0.000003049   -0.000498879
 -------------------------------------------------------------------
 Cartesian Forces:  Max     0.000671582 RMS     0.000319248

 GradGradGradGradGradGradGradGradGradGradGradGradGradGradGradGradGradGrad
 Berny optimization.
 FormGI is forming the generalized inverse of G from B-inverse, IUseBI=4.
 Internal  Forces:  Max     0.000671582 RMS     0.000226008
 Search for a local minimum.
 Step number   1 out of a maximum of   46
 All quantities printed in internal units (Hartrees-Bohrs-Radians)
 Mixed Optimization -- En-DIIS/RFO-DIIS
 Second derivative matrix not updated -- first step.
 ITU=  0
     Eigenvalues ---    0.04878   0.04878   0.04987   0.04987   0.04987
     Eigenvalues ---    0.04987   0.04987   0.04987   0.04987   0.04987
     Eigenvalues ---    0.06423   0.07076   0.09782   0.12604   0.12626
     Eigenvalues ---    0.14905   0.14905   0.14905   0.14905   0.18154
     Eigenvalues ---    0.20164   0.21640   1.28342   1.33935   1.33935
     Eigenvalues ---    1.33935   1.33935
 RFO step:  Lambda=-5.18557632D-06 EMin= 4.87756573D-02
 Linear search not attempted -- first point.
 Iteration  1 RMS(Cart)=  0.00290343 RMS(Int)=  0.00000345
 Iteration  2 RMS(Cart)=  0.00000469 RMS(Int)=  0.00000123
 Iteration  3 RMS(Cart)=  0.00000000 RMS(Int)=  0.00000123
 Variable       Old X    -DE/DX   Delta X   Delta X   Delta X     New X
                                 (Linear)    (Quad)   (Total)
    R1        3.92078   0.00017   0.00000   0.00111   0.00111   3.92189
    R2        3.92078   0.00017   0.00000   0.00112   0.00112   3.92189
    R3        3.70365  -0.00030   0.00000  -0.00150  -0.00150   3.70215
    R4        3.92078   0.00017   0.00000   0.00112   0.00112   3.92189
    R5        3.92077   0.00017   0.00000   0.00112   0.00112   3.92189
    R6        2.17490  -0.00050   0.00000  -0.00037  -0.00037   2.17452
    R7        2.17489  -0.00050   0.00000  -0.00037  -0.00037   2.17452
    R8        2.19050  -0.00067   0.00000  -0.00052  -0.00052   2.18998
    R9        2.17489  -0.00050   0.00000  -0.00037  -0.00037   2.17452
   R10        2.17490  -0.00050   0.00000  -0.00037  -0.00037   2.17452
    A1        1.57081  -0.00000   0.00000  -0.00005  -0.00005   1.57076
    A2        1.57447  -0.00008   0.00000  -0.00158  -0.00158   1.57289
    A3        1.57080  -0.00000   0.00000  -0.00002  -0.00002   1.57078
    A4        1.57447  -0.00010   0.00000  -0.00158  -0.00158   1.57288
    A5        1.57077   0.00000   0.00000   0.00004   0.00004   1.57081
    A6        1.57447  -0.00010   0.00000  -0.00158  -0.00158   1.57288
    A7        1.57446  -0.00016   0.00000  -0.00159  -0.00159   1.57288
    A8        1.57075   0.00001   0.00000   0.00007   0.00007   1.57082
    A9        3.14158  -0.00000   0.00000  -0.00001  -0.00001   3.14157
   A10        3.14161  -0.00001   0.00000  -0.00006  -0.00007   3.14154
   A11        3.14141  -0.00001   0.00000  -0.00016  -0.00016   3.14125
   A12        3.14149  -0.00002   0.00000  -0.00037  -0.00037   3.14112
   A13        3.14159   0.00000   0.00000   0.00002   0.00002   3.14160
   A14        3.14149  -0.00002   0.00000  -0.00037  -0.00037   3.14112
   A15        3.14141  -0.00001   0.00000  -0.00016  -0.00016   3.14125
   A16        3.14893  -0.00024   0.00000  -0.00317  -0.00317   3.14576
   A17        3.13425   0.00020   0.00000   0.00317   0.00317   3.13742
   A18        3.11605  -0.00006   0.00000  -0.00124  -0.00124   3.11481
   A19        3.16714   0.00006   0.00000   0.00123   0.00123   3.16837
   A20        3.14161  -0.00000   0.00000  -0.00003  -0.00003   3.14158
   A21        3.11605  -0.00006   0.00000  -0.00123  -0.00123   3.11482
   A22        3.16712   0.00006   0.00000   0.00126   0.00126   3.16837
    D1       -1.57082   0.00001   0.00000   0.00006   0.00006  -1.57077
    D2       -1.57447   0.00008   0.00000   0.00158   0.00158  -1.57289
    D3        1.57447  -0.00010   0.00000  -0.00158  -0.00158   1.57288
    D4        1.57447  -0.00010   0.00000  -0.00158  -0.00158   1.57288
         Item               Value     Threshold  Converged?
 Maximum Force            0.000672     0.000450     NO 
 RMS     Force            0.000226     0.000300     YES
 Maximum Displacement     0.008295     0.001800     NO 
 RMS     Displacement     0.002904     0.001200     NO 
 Predicted change in Energy=-2.592840D-06
 GradGradGradGradGradGradGradGradGradGradGradGradGradGradGradGradGradGrad

                          Input orientation:                          
 ---------------------------------------------------------------------
 Center     Atomic      Atomic             Coordinates (Angstroms)
 Number     Number       Type             X           Y           Z
 ---------------------------------------------------------------------
      1         42           0        0.319308    0.000003    0.000027
      2          6           0        0.314993    0.000018    2.075397
      3          6           0        0.314980    2.075374    0.000072
      4          6           0        2.278402    0.000000    0.000007
      5          6           0        0.314973   -2.075369    0.000071
      6          6           0        0.314969    0.000017   -2.075345
      7          8           0        0.338498    3.225842   -0.000104
      8          8           0        0.338485   -0.000025   -3.225813
      9          8           0        3.437290    0.000009   -0.000017
     10          8           0        0.338486   -3.225837   -0.000105
     11          8           0        0.338519   -0.000024    3.225865
 ---------------------------------------------------------------------
                    Distance matrix (angstroms):
                    1          2          3          4          5
     1  Mo   0.000000
     2  C    2.075375   0.000000
     3  C    2.075375   2.934975   0.000000
     4  C    1.959094   2.856960   2.856957   0.000000
     5  C    2.075377   2.934997   4.150743   2.856958   0.000000
     6  C    2.075376   4.150742   2.935040   2.856949   2.935060
     7  O    3.225896   3.835910   1.150709   3.764211   5.301263
     8  O    3.225897   5.301263   3.835905   3.764199   3.835874
     9  O    3.117982   3.749144   3.749128   1.158888   3.749141
    10  O    3.225897   3.835935   5.301263   3.764213   1.150709
    11  O    3.225896   1.150709   3.835828   3.764214   3.835800
                    6          7          8          9         10
     6  C    0.000000
     7  O    3.835770   0.000000
     8  O    1.150709   4.561954   0.000000
     9  O    3.749117   4.473088   4.473070   0.000000
    10  O    3.835793   6.451679   4.561913   4.473105   0.000000
    11  O    5.301263   4.562137   6.451679   4.473109   4.562100
                   11
    11  O    0.000000
 Symmetry turned off by external request.
 Stoichiometry    C5MoO5
 Framework group  C1[X(C5MoO5)]
 Deg. of freedom    27
 Full point group                 C1      NOp   1
 Rotational constants (GHZ):           0.8223297           0.8223292           0.5792184
 Basis read from rwf:  (5D, 7F)
 Pseudo-potential data read from rwf file.
   162 basis functions,   329 primitive gaussians,   174 cartesian basis functions
    42 alpha electrons       42 beta electrons
       nuclear repulsion energy       569.5999824372 Hartrees.
 NAtoms=   11 NActive=   11 NUniq=   11 SFac= 1.00D+00 NAtFMM=   60 NAOKFM=F Big=F
 Integral buffers will be    131072 words long.
 Raffenetti 2 integral format.
 Two-electron integral symmetry is turned off.
 One-electron integrals computed using PRISM.
   1 Symmetry operations used in ECPInt.
 ECPInt:  NShTT=    1176 NPrTT=    8321 LenC2=    1101 LenP2D=    5188.
 LDataN:  DoStor=T MaxTD1= 5 Len=  102
 NBasis=   162 RedAO= T EigKep=  3.09D-03  NBF=   162
 NBsUse=   162 1.00D-06 EigRej= -1.00D+00 NBFU=   162
 Defaulting to unpruned grid for atomic number  42.
 Initial guess from the checkpoint file:  "MoCO5_SP.chk"
 B after Tr=    -0.001761    0.000000    0.000007
         Rot=    1.000000    0.000000   -0.000000   -0.000000 Ang=  -0.00 deg.
 Keep R1 ints in memory in canonical form, NReq=103186106.
 Requested convergence on RMS density matrix=1.00D-08 within 128 cycles.
 Requested convergence on MAX density matrix=1.00D-06.
 Requested convergence on             energy=1.00D-06.
 No special actions if energy rises.
 Defaulting to unpruned grid for atomic number  42.
 Defaulting to unpruned grid for atomic number  42.
 Defaulting to unpruned grid for atomic number  42.
 Defaulting to unpruned grid for atomic number  42.
 Defaulting to unpruned grid for atomic number  42.
 Defaulting to unpruned grid for atomic number  42.
 Defaulting to unpruned grid for atomic number  42.
 Defaulting to unpruned grid for atomic number  42.
 Defaulting to unpruned grid for atomic number  42.
 Defaulting to unpruned grid for atomic number  42.
 Defaulting to unpruned grid for atomic number  42.
 Defaulting to unpruned grid for atomic number  42.
 Defaulting to unpruned grid for atomic number  42.
 Defaulting to unpruned grid for atomic number  42.
 Defaulting to unpruned grid for atomic number  42.
 Defaulting to unpruned grid for atomic number  42.
 SCF Done:  E(RB3LYP) =  -634.260872337     A.U. after    9 cycles
            NFock=  9  Conv=0.91D-08     -V/T= 2.0840
   1 Symmetry operations used in ECPInt.
 ECPInt:  NShTT=    1176 NPrTT=    8321 LenC2=    1101 LenP2D=    5188.
 LDataN:  DoStor=T MaxTD1= 6 Len=  172
 Calling FoFJK, ICntrl=      2127 FMM=F ISym2X=0 I1Cent= 0 IOpClX= 0 NMat=1 NMatS=1 NMatT=0.
 Defaulting to unpruned grid for atomic number  42.
 Defaulting to unpruned grid for atomic number  42.
 Defaulting to unpruned grid for atomic number  42.
 Defaulting to unpruned grid for atomic number  42.
 Defaulting to unpruned grid for atomic number  42.
 Defaulting to unpruned grid for atomic number  42.
 Defaulting to unpruned grid for atomic number  42.
 Defaulting to unpruned grid for atomic number  42.
 Defaulting to unpruned grid for atomic number  42.
 Defaulting to unpruned grid for atomic number  42.
 Defaulting to unpruned grid for atomic number  42.
 Defaulting to unpruned grid for atomic number  42.
 Defaulting to unpruned grid for atomic number  42.
 Defaulting to unpruned grid for atomic number  42.
 Defaulting to unpruned grid for atomic number  42.
 Defaulting to unpruned grid for atomic number  42.
 -------------------------------------------------------------------
 Center     Atomic                   Forces (Hartrees/Bohr)
 Number     Number              X              Y              Z
 -------------------------------------------------------------------
      1       42           0.000305435    0.000005721    0.000024152
      2        6          -0.000151623   -0.000005815    0.000082734
      3        6          -0.000151392    0.000081936   -0.000022303
      4        6          -0.000039290    0.000000866   -0.000000913
      5        6          -0.000151597   -0.000081600   -0.000022263
      6        6          -0.000151476   -0.000005775   -0.000081528
      7        8           0.000075440   -0.000092041    0.000009917
      8        8           0.000075371    0.000002538    0.000092283
      9        8           0.000038116   -0.000000515    0.000000438
     10        8           0.000075494    0.000092143    0.000009911
     11        8           0.000075524    0.000002543   -0.000092429
 -------------------------------------------------------------------
 Cartesian Forces:  Max     0.000305435 RMS     0.000091066

 GradGradGradGradGradGradGradGradGradGradGradGradGradGradGradGradGradGrad
 Berny optimization.
 Using GEDIIS/GDIIS optimizer.
 FormGI is forming the generalized inverse of G from B-inverse, IUseBI=4.
 Internal  Forces:  Max     0.000141923 RMS     0.000061145
 Search for a local minimum.
 Step number   2 out of a maximum of   46
 All quantities printed in internal units (Hartrees-Bohrs-Radians)
 Mixed Optimization -- En-DIIS/RFO-DIIS
 Swapping is turned off.
 Update second derivatives using D2CorX and points    1    2
 DE= -2.56D-06 DEPred=-2.59D-06 R= 9.87D-01
 TightC=F SS=  1.41D+00  RLast= 7.23D-03 DXNew= 5.0454D-01 2.1676D-02
 Trust test= 9.87D-01 RLast= 7.23D-03 DXMaxT set to 3.00D-01
 ITU=  1  0
     Eigenvalues ---    0.03416   0.04878   0.04878   0.04987   0.04987
     Eigenvalues ---    0.04987   0.04987   0.04987   0.04987   0.04997
     Eigenvalues ---    0.06717   0.09501   0.09886   0.12610   0.12623
     Eigenvalues ---    0.14905   0.14905   0.14905   0.15651   0.18409
     Eigenvalues ---    0.20487   0.21646   1.26603   1.30468   1.33935
     Eigenvalues ---    1.33935   1.33935
 En-DIIS/RFO-DIIS/Sim-DIIS IScMMF=       -3 using points:     2    1
 RFO step:  Lambda=-1.87105475D-06.
 DidBck=F Rises=F RFO-DIIS coefs:    1.38940   -0.38940
 Iteration  1 RMS(Cart)=  0.00171512 RMS(Int)=  0.00000340
 Iteration  2 RMS(Cart)=  0.00000447 RMS(Int)=  0.00000048
 Iteration  3 RMS(Cart)=  0.00000000 RMS(Int)=  0.00000048
 Variable       Old X    -DE/DX   Delta X   Delta X   Delta X     New X
                                 (Linear)    (Quad)   (Total)
    R1        3.92189  -0.00001   0.00043  -0.00010   0.00034   3.92223
    R2        3.92189  -0.00001   0.00043  -0.00010   0.00033   3.92223
    R3        3.70215  -0.00000  -0.00058   0.00004  -0.00055   3.70161
    R4        3.92189  -0.00001   0.00044  -0.00010   0.00034   3.92223
    R5        3.92189  -0.00001   0.00044  -0.00010   0.00033   3.92223
    R6        2.17452  -0.00009  -0.00014  -0.00006  -0.00020   2.17432
    R7        2.17452  -0.00009  -0.00014  -0.00006  -0.00020   2.17432
    R8        2.18998   0.00004  -0.00020   0.00004  -0.00016   2.18982
    R9        2.17452  -0.00009  -0.00014  -0.00006  -0.00020   2.17432
   R10        2.17452  -0.00009  -0.00014  -0.00006  -0.00020   2.17432
    A1        1.57076   0.00001  -0.00002   0.00007   0.00005   1.57082
    A2        1.57289   0.00003  -0.00062   0.00055  -0.00007   1.57281
    A3        1.57078   0.00001  -0.00001   0.00004   0.00003   1.57081
    A4        1.57288   0.00003  -0.00062   0.00054  -0.00007   1.57281
    A5        1.57081  -0.00000   0.00001  -0.00004  -0.00003   1.57078
    A6        1.57288   0.00003  -0.00062   0.00055  -0.00007   1.57281
    A7        1.57288   0.00005  -0.00062   0.00055  -0.00007   1.57281
    A8        1.57082  -0.00001   0.00003  -0.00008  -0.00005   1.57077
    A9        3.14157   0.00000  -0.00000   0.00003   0.00003   3.14160
   A10        3.14154   0.00001  -0.00003   0.00011   0.00008   3.14162
   A11        3.14125   0.00000  -0.00006   0.00005  -0.00002   3.14124
   A12        3.14112   0.00002  -0.00015   0.00037   0.00022   3.14134
   A13        3.14160  -0.00000   0.00001  -0.00002  -0.00002   3.14158
   A14        3.14112   0.00002  -0.00015   0.00037   0.00022   3.14134
   A15        3.14125   0.00000  -0.00006   0.00005  -0.00002   3.14124
   A16        3.14576   0.00008  -0.00124   0.00109  -0.00014   3.14562
   A17        3.13742  -0.00007   0.00123  -0.00109   0.00014   3.13756
   A18        3.11481  -0.00014  -0.00048  -0.00277  -0.00325   3.11156
   A19        3.16837   0.00014   0.00048   0.00277   0.00325   3.17162
   A20        3.14158   0.00000  -0.00001   0.00002   0.00001   3.14159
   A21        3.11482  -0.00014  -0.00048  -0.00277  -0.00325   3.11157
   A22        3.16837   0.00014   0.00049   0.00277   0.00326   3.17163
    D1       -1.57077  -0.00001   0.00002  -0.00007  -0.00005  -1.57082
    D2       -1.57289  -0.00003   0.00062  -0.00055   0.00007  -1.57281
    D3        1.57288   0.00003  -0.00062   0.00054  -0.00007   1.57281
    D4        1.57288   0.00003  -0.00062   0.00054  -0.00007   1.57281
         Item               Value     Threshold  Converged?
 Maximum Force            0.000142     0.000450     YES
 RMS     Force            0.000061     0.000300     YES
 Maximum Displacement     0.004088     0.001800     NO 
 RMS     Displacement     0.001715     0.001200     NO 
 Predicted change in Energy=-9.355568D-07
 GradGradGradGradGradGradGradGradGradGradGradGradGradGradGradGradGradGrad

                          Input orientation:                          
 ---------------------------------------------------------------------
 Center     Atomic      Atomic             Coordinates (Angstroms)
 Number     Number       Type             X           Y           Z
 ---------------------------------------------------------------------
      1         42           0        0.318089    0.000002    0.000000
      2          6           0        0.313917   -0.000009    2.075549
      3          6           0        0.313907    2.075551   -0.000040
      4          6           0        2.276894    0.000002   -0.000015
      5          6           0        0.313905   -2.075547   -0.000041
      6          6           0        0.313900   -0.000011   -2.075549
      7          8           0        0.340642    3.225842    0.000092
      8          8           0        0.340649    0.000011   -3.225840
      9          8           0        3.435698   -0.000007   -0.000029
     10          8           0        0.340640   -3.225839    0.000089
     11          8           0        0.340663    0.000014    3.225841
 ---------------------------------------------------------------------
                    Distance matrix (angstroms):
                    1          2          3          4          5
     1  Mo   0.000000
     2  C    2.075553   0.000000
     3  C    2.075552   2.935306   0.000000
     4  C    1.958805   2.856790   2.856784   0.000000
     5  C    2.075554   2.935291   4.151098   2.856787   0.000000
     6  C    2.075553   4.151098   2.935250   2.856779   2.935232
     7  O    3.225919   3.835930   1.150603   3.762329   5.301457
     8  O    3.225920   5.301457   3.835931   3.762312   3.835940
     9  O    3.117609   3.748806   3.748802   1.158804   3.748794
    10  O    3.225921   3.835913   5.301457   3.762331   1.150603
    11  O    3.225919   1.150602   3.835997   3.762331   3.836012
                    6          7          8          9         10
     6  C    0.000000
     7  O    3.836030   0.000000
     8  O    1.150603   4.562085   0.000000
     9  O    3.748787   4.470512   4.470479   0.000000
    10  O    3.836008   6.451682   4.562098   4.470501   0.000000
    11  O    5.301457   4.561954   6.451681   4.470512   4.561973
                   11
    11  O    0.000000
 Symmetry turned off by external request.
 Stoichiometry    C5MoO5
 Framework group  C1[X(C5MoO5)]
 Deg. of freedom    27
 Full point group                 C1      NOp   1
 Rotational constants (GHZ):           0.8225408           0.8225399           0.5791946
 Basis read from rwf:  (5D, 7F)
 Pseudo-potential data read from rwf file.
   162 basis functions,   329 primitive gaussians,   174 cartesian basis functions
    42 alpha electrons       42 beta electrons
       nuclear repulsion energy       569.6372365840 Hartrees.
 NAtoms=   11 NActive=   11 NUniq=   11 SFac= 1.00D+00 NAtFMM=   60 NAOKFM=F Big=F
 Integral buffers will be    131072 words long.
 Raffenetti 2 integral format.
 Two-electron integral symmetry is turned off.
 One-electron integrals computed using PRISM.
   1 Symmetry operations used in ECPInt.
 ECPInt:  NShTT=    1176 NPrTT=    8321 LenC2=    1101 LenP2D=    5188.
 LDataN:  DoStor=T MaxTD1= 5 Len=  102
 NBasis=   162 RedAO= T EigKep=  3.09D-03  NBF=   162
 NBsUse=   162 1.00D-06 EigRej= -1.00D+00 NBFU=   162
 Defaulting to unpruned grid for atomic number  42.
 Initial guess from the checkpoint file:  "MoCO5_SP.chk"
 B after Tr=    -0.000504    0.000001   -0.000006
         Rot=    1.000000   -0.000000    0.000000    0.000000 Ang=   0.00 deg.
 Keep R1 ints in memory in canonical form, NReq=103186106.
 Requested convergence on RMS density matrix=1.00D-08 within 128 cycles.
 Requested convergence on MAX density matrix=1.00D-06.
 Requested convergence on             energy=1.00D-06.
 No special actions if energy rises.
 Defaulting to unpruned grid for atomic number  42.
 Defaulting to unpruned grid for atomic number  42.
 Defaulting to unpruned grid for atomic number  42.
 Defaulting to unpruned grid for atomic number  42.
 Defaulting to unpruned grid for atomic number  42.
 Defaulting to unpruned grid for atomic number  42.
 Defaulting to unpruned grid for atomic number  42.
 Defaulting to unpruned grid for atomic number  42.
 Defaulting to unpruned grid for atomic number  42.
 Defaulting to unpruned grid for atomic number  42.
 Defaulting to unpruned grid for atomic number  42.
 Defaulting to unpruned grid for atomic number  42.
 Defaulting to unpruned grid for atomic number  42.
 Defaulting to unpruned grid for atomic number  42.
 Defaulting to unpruned grid for atomic number  42.
 Defaulting to unpruned grid for atomic number  42.
 SCF Done:  E(RB3LYP) =  -634.260872513     A.U. after    9 cycles
            NFock=  9  Conv=0.62D-08     -V/T= 2.0840
   1 Symmetry operations used in ECPInt.
 ECPInt:  NShTT=    1176 NPrTT=    8321 LenC2=    1101 LenP2D=    5188.
 LDataN:  DoStor=T MaxTD1= 6 Len=  172
 Calling FoFJK, ICntrl=      2127 FMM=F ISym2X=0 I1Cent= 0 IOpClX= 0 NMat=1 NMatS=1 NMatT=0.
 Defaulting to unpruned grid for atomic number  42.
 Defaulting to unpruned grid for atomic number  42.
 Defaulting to unpruned grid for atomic number  42.
 Defaulting to unpruned grid for atomic number  42.
 Defaulting to unpruned grid for atomic number  42.
 Defaulting to unpruned grid for atomic number  42.
 Defaulting to unpruned grid for atomic number  42.
 Defaulting to unpruned grid for atomic number  42.
 Defaulting to unpruned grid for atomic number  42.
 Defaulting to unpruned grid for atomic number  42.
 Defaulting to unpruned grid for atomic number  42.
 Defaulting to unpruned grid for atomic number  42.
 Defaulting to unpruned grid for atomic number  42.
 Defaulting to unpruned grid for atomic number  42.
 Defaulting to unpruned grid for atomic number  42.
 Defaulting to unpruned grid for atomic number  42.
 -------------------------------------------------------------------
 Center     Atomic                   Forces (Hartrees/Bohr)
 Number     Number              X              Y              Z
 -------------------------------------------------------------------
      1       42          -0.000399430   -0.000004051   -0.000019734
      2        6           0.000129301    0.000003680   -0.000181310
      3        6           0.000128360   -0.000180486    0.000017657
      4        6          -0.000185789   -0.000000861    0.000000171
      5        6           0.000128625    0.000180188    0.000017724
      6        6           0.000129393    0.000003748    0.000180039
      7        8          -0.000051212    0.000131346   -0.000007765
      8        8          -0.000051781   -0.000001580   -0.000131125
      9        8           0.000275393    0.000000474    0.000000203
     10        8          -0.000051292   -0.000130884   -0.000007769
     11        8          -0.000051568   -0.000001575    0.000131909
 -------------------------------------------------------------------
 Cartesian Forces:  Max     0.000399430 RMS     0.000128802

 GradGradGradGradGradGradGradGradGradGradGradGradGradGradGradGradGradGrad
 Berny optimization.
 Using GEDIIS/GDIIS optimizer.
 FormGI is forming the generalized inverse of G from B-inverse, IUseBI=4.
 Internal  Forces:  Max     0.000275393 RMS     0.000081508
 Search for a local minimum.
 Step number   3 out of a maximum of   46
 All quantities printed in internal units (Hartrees-Bohrs-Radians)
 Mixed Optimization -- En-DIIS/RFO-DIIS
 Swapping is turned off.
 Update second derivatives using D2CorX and points    1    2    3
 DE= -1.76D-07 DEPred=-9.36D-07 R= 1.88D-01
 Trust test= 1.88D-01 RLast= 6.59D-03 DXMaxT set to 3.00D-01
 ITU=  0  1  0
     Eigenvalues ---    0.03417   0.04878   0.04878   0.04987   0.04987
     Eigenvalues ---    0.04987   0.04987   0.04987   0.04987   0.04997
     Eigenvalues ---    0.06746   0.09761   0.12551   0.12616   0.13351
     Eigenvalues ---    0.14905   0.14905   0.14905   0.15697   0.18743
     Eigenvalues ---    0.20736   0.21648   1.29227   1.33935   1.33935
     Eigenvalues ---    1.33935   1.36240
 En-DIIS/RFO-DIIS/Sim-DIIS IScMMF=       -3 using points:     3    2    1
 RFO step:  Lambda=-7.78714958D-07.
 DidBck=T Rises=F RFO-DIIS coefs:    0.60479    0.46683   -0.07162
 Iteration  1 RMS(Cart)=  0.00048470 RMS(Int)=  0.00000032
 Iteration  2 RMS(Cart)=  0.00000042 RMS(Int)=  0.00000010
 Variable       Old X    -DE/DX   Delta X   Delta X   Delta X     New X
                                 (Linear)    (Quad)   (Total)
    R1        3.92223  -0.00005  -0.00005  -0.00027  -0.00032   3.92190
    R2        3.92223  -0.00005  -0.00005  -0.00027  -0.00032   3.92190
    R3        3.70161   0.00009   0.00011   0.00033   0.00043   3.70204
    R4        3.92223  -0.00005  -0.00005  -0.00027  -0.00032   3.92190
    R5        3.92223  -0.00005  -0.00005  -0.00027  -0.00032   3.92190
    R6        2.17432   0.00013   0.00005   0.00005   0.00010   2.17442
    R7        2.17432   0.00013   0.00005   0.00005   0.00010   2.17442
    R8        2.18982   0.00028   0.00003   0.00016   0.00018   2.19000
    R9        2.17432   0.00013   0.00005   0.00005   0.00010   2.17442
   R10        2.17432   0.00013   0.00005   0.00005   0.00010   2.17442
    A1        1.57082  -0.00000  -0.00002   0.00000  -0.00002   1.57080
    A2        1.57281  -0.00004  -0.00009  -0.00005  -0.00014   1.57268
    A3        1.57081  -0.00001  -0.00001   0.00000  -0.00001   1.57079
    A4        1.57281  -0.00005  -0.00008  -0.00005  -0.00014   1.57268
    A5        1.57078   0.00000   0.00001  -0.00000   0.00001   1.57079
    A6        1.57281  -0.00005  -0.00009  -0.00005  -0.00014   1.57268
    A7        1.57281  -0.00007  -0.00009  -0.00005  -0.00014   1.57267
    A8        1.57077   0.00001   0.00003  -0.00000   0.00002   1.57079
    A9        3.14160  -0.00000  -0.00001   0.00000  -0.00001   3.14159
   A10        3.14162  -0.00001  -0.00004   0.00000  -0.00003   3.14159
   A11        3.14124  -0.00000  -0.00001   0.00002   0.00002   3.14125
   A12        3.14134  -0.00001  -0.00012   0.00003  -0.00009   3.14126
   A13        3.14158   0.00000   0.00001   0.00000   0.00001   3.14159
   A14        3.14134  -0.00001  -0.00011   0.00003  -0.00009   3.14126
   A15        3.14124  -0.00000  -0.00000   0.00002   0.00002   3.14125
   A16        3.14562  -0.00011  -0.00017  -0.00011  -0.00028   3.14534
   A17        3.13756   0.00009   0.00017   0.00010   0.00027   3.13783
   A18        3.11156   0.00010   0.00120  -0.00004   0.00116   3.11272
   A19        3.17162  -0.00010  -0.00120   0.00005  -0.00115   3.17047
   A20        3.14159   0.00000  -0.00000   0.00001   0.00001   3.14160
   A21        3.11157   0.00010   0.00120  -0.00005   0.00115   3.11272
   A22        3.17163  -0.00010  -0.00120   0.00003  -0.00116   3.17047
    D1       -1.57082   0.00000   0.00003  -0.00000   0.00002  -1.57080
    D2       -1.57281   0.00004   0.00009   0.00005   0.00014  -1.57268
    D3        1.57281  -0.00005  -0.00008  -0.00005  -0.00014   1.57268
    D4        1.57281  -0.00005  -0.00009  -0.00005  -0.00014   1.57268
         Item               Value     Threshold  Converged?
 Maximum Force            0.000275     0.000450     YES
 RMS     Force            0.000082     0.000300     YES
 Maximum Displacement     0.001117     0.001800     YES
 RMS     Displacement     0.000485     0.001200     YES
 Predicted change in Energy=-3.886669D-07
 Optimization completed.
    -- Stationary point found.
                           ----------------------------
                           !   Optimized Parameters   !
                           ! (Angstroms and Degrees)  !
 --------------------------                            --------------------------
 ! Name  Definition              Value          Derivative Info.                !
 --------------------------------------------------------------------------------
 ! R1    R(1,2)                  2.0756         -DE/DX =    0.0                 !
 ! R2    R(1,3)                  2.0756         -DE/DX =    0.0                 !
 ! R3    R(1,4)                  1.9588         -DE/DX =    0.0001              !
 ! R4    R(1,5)                  2.0756         -DE/DX =    0.0                 !
 ! R5    R(1,6)                  2.0756         -DE/DX =    0.0                 !
 ! R6    R(2,11)                 1.1506         -DE/DX =    0.0001              !
 ! R7    R(3,7)                  1.1506         -DE/DX =    0.0001              !
 ! R8    R(4,9)                  1.1588         -DE/DX =    0.0003              !
 ! R9    R(5,10)                 1.1506         -DE/DX =    0.0001              !
 ! R10   R(6,8)                  1.1506         -DE/DX =    0.0001              !
 ! A1    A(2,1,3)               90.0012         -DE/DX =    0.0                 !
 ! A2    A(2,1,4)               90.1156         -DE/DX =    0.0                 !
 ! A3    A(2,1,5)               90.0006         -DE/DX =    0.0                 !
 ! A4    A(3,1,4)               90.1154         -DE/DX =    0.0                 !
 ! A5    A(3,1,6)               89.999          -DE/DX =    0.0                 !
 ! A6    A(4,1,5)               90.1155         -DE/DX =    0.0                 !
 ! A7    A(4,1,6)               90.1152         -DE/DX =   -0.0001              !
 ! A8    A(5,1,6)               89.9983         -DE/DX =    0.0                 !
 ! A9    L(2,1,6,3,-1)         180.0002         -DE/DX =    0.0                 !
 ! A10   L(3,1,5,2,-1)         180.0018         -DE/DX =    0.0                 !
 ! A11   L(1,2,11,10,-1)       179.9796         -DE/DX =    0.0                 !
 ! A12   L(1,3,7,8,-1)         179.9858         -DE/DX =    0.0                 !
 ! A13   L(1,4,9,10,-1)        179.9995         -DE/DX =    0.0                 !
 ! A14   L(1,5,10,8,-1)        179.9858         -DE/DX =    0.0                 !
 ! A15   L(1,6,8,10,-1)        179.9796         -DE/DX =    0.0                 !
 ! A16   L(2,1,6,3,-2)         180.2308         -DE/DX =   -0.0001              !
 ! A17   L(3,1,5,2,-2)         179.7691         -DE/DX =    0.0001              !
 ! A18   L(1,2,11,10,-2)       178.2795         -DE/DX =    0.0001              !
 ! A19   L(1,3,7,8,-2)         181.7203         -DE/DX =   -0.0001              !
 ! A20   L(1,4,9,10,-2)        179.9997         -DE/DX =    0.0                 !
 ! A21   L(1,5,10,8,-2)        178.2796         -DE/DX =    0.0001              !
 ! A22   L(1,6,8,10,-2)        181.7212         -DE/DX =   -0.0001              !
 ! D1    D(2,1,4,3)            -90.0014         -DE/DX =    0.0                 !
 ! D2    D(2,1,5,4)            -90.1156         -DE/DX =    0.0                 !
 ! D3    D(3,1,6,4)             90.1154         -DE/DX =    0.0                 !
 ! D4    D(4,1,6,5)             90.1155         -DE/DX =    0.0                 !
 --------------------------------------------------------------------------------
 GradGradGradGradGradGradGradGradGradGradGradGradGradGradGradGradGradGrad

                          Input orientation:                          
 ---------------------------------------------------------------------
 Center     Atomic      Atomic             Coordinates (Angstroms)
 Number     Number       Type             X           Y           Z
 ---------------------------------------------------------------------
      1         42           0        0.318089    0.000002    0.000000
      2          6           0        0.313917   -0.000009    2.075549
      3          6           0        0.313907    2.075551   -0.000040
      4          6           0        2.276894    0.000002   -0.000015
      5          6           0        0.313905   -2.075547   -0.000041
      6          6           0        0.313900   -0.000011   -2.075549
      7          8           0        0.340642    3.225842    0.000092
      8          8           0        0.340649    0.000011   -3.225840
      9          8           0        3.435698   -0.000007   -0.000029
     10          8           0        0.340640   -3.225839    0.000089
     11          8           0        0.340663    0.000014    3.225841
 ---------------------------------------------------------------------
                    Distance matrix (angstroms):
                    1          2          3          4          5
     1  Mo   0.000000
     2  C    2.075553   0.000000
     3  C    2.075552   2.935306   0.000000
     4  C    1.958805   2.856790   2.856784   0.000000
     5  C    2.075554   2.935291   4.151098   2.856787   0.000000
     6  C    2.075553   4.151098   2.935250   2.856779   2.935232
     7  O    3.225919   3.835930   1.150603   3.762329   5.301457
     8  O    3.225920   5.301457   3.835931   3.762312   3.835940
     9  O    3.117609   3.748806   3.748802   1.158804   3.748794
    10  O    3.225921   3.835913   5.301457   3.762331   1.150603
    11  O    3.225919   1.150602   3.835997   3.762331   3.836012
                    6          7          8          9         10
     6  C    0.000000
     7  O    3.836030   0.000000
     8  O    1.150603   4.562085   0.000000
     9  O    3.748787   4.470512   4.470479   0.000000
    10  O    3.836008   6.451682   4.562098   4.470501   0.000000
    11  O    5.301457   4.561954   6.451681   4.470512   4.561973
                   11
    11  O    0.000000
 Symmetry turned off by external request.
 Stoichiometry    C5MoO5
 Framework group  C1[X(C5MoO5)]
 Deg. of freedom    27
 Full point group                 C1      NOp   1
 Rotational constants (GHZ):           0.8225408           0.8225399           0.5791946

 **********************************************************************

            Population analysis using the SCF Density.

 **********************************************************************

 Alpha  occ. eigenvalues --  -19.24802 -19.24800 -19.24800 -19.24800 -19.22013
 Alpha  occ. eigenvalues --  -10.31794 -10.31788 -10.31788 -10.31782 -10.30295
 Alpha  occ. eigenvalues --   -2.47373  -1.50219  -1.50071  -1.50071  -1.15061
 Alpha  occ. eigenvalues --   -1.15027  -1.15027  -1.15024  -1.12289  -0.59519
 Alpha  occ. eigenvalues --   -0.57824  -0.57203  -0.57203  -0.55867  -0.49024
 Alpha  occ. eigenvalues --   -0.47908  -0.47272  -0.47270  -0.47270  -0.47084
 Alpha  occ. eigenvalues --   -0.46899  -0.46899  -0.46494  -0.46030  -0.44579
 Alpha  occ. eigenvalues --   -0.44579  -0.44148  -0.41092  -0.41092  -0.24997
 Alpha  occ. eigenvalues --   -0.24401  -0.24401
 Alpha virt. eigenvalues --   -0.12115  -0.05626  -0.05626  -0.04030  -0.00781
 Alpha virt. eigenvalues --   -0.00781  -0.00469   0.00129   0.02207   0.02207
 Alpha virt. eigenvalues --    0.02549   0.02821   0.02821   0.03679   0.05123
 Alpha virt. eigenvalues --    0.06154   0.15082   0.25583   0.25583   0.27988
 Alpha virt. eigenvalues --    0.29524   0.34871   0.34871   0.38450   0.44373
 Alpha virt. eigenvalues --    0.44373   0.45048   0.50669   0.55744   0.55744
 Alpha virt. eigenvalues --    0.56506   0.57619   0.61380   0.63691   0.64966
 Alpha virt. eigenvalues --    0.64966   0.68429   0.69727   0.70347   0.70347
 Alpha virt. eigenvalues --    0.75527   0.75927   0.77204   0.77204   0.82164
 Alpha virt. eigenvalues --    0.83858   0.85188   0.85188   0.86369   0.93662
 Alpha virt. eigenvalues --    0.95292   0.96109   0.96109   0.99548   1.02338
 Alpha virt. eigenvalues --    1.02338   1.02872   1.09245   1.10330   1.10330
 Alpha virt. eigenvalues --    1.16362   1.16362   1.24373   1.40095   1.47209
 Alpha virt. eigenvalues --    1.47227   1.47324   1.48272   1.48272   1.49171
 Alpha virt. eigenvalues --    1.49171   1.49242   1.49579   1.50131   1.50201
 Alpha virt. eigenvalues --    1.50201   1.50453   1.51787   1.51787   1.53048
 Alpha virt. eigenvalues --    1.55656   1.59478   1.59478   1.68422   1.71422
 Alpha virt. eigenvalues --    1.75957   1.77987   1.77987   1.78494   1.92637
 Alpha virt. eigenvalues --    1.92744   1.93794   1.93794   1.93995   1.96884
 Alpha virt. eigenvalues --    1.97165   1.97165   2.01225   2.05088   2.35351
 Alpha virt. eigenvalues --    2.35351   2.40022   2.44380   2.48805   2.57068
 Alpha virt. eigenvalues --    2.57323   2.57323   2.57860   2.57860   2.58011
 Alpha virt. eigenvalues --    2.58098   2.58524   2.59062   2.59062   2.96464
 Alpha virt. eigenvalues --    3.00420   3.00420   3.00776   3.00819  15.35352
          Condensed to atoms (all electrons):
               1          2          3          4          5          6
     1  Mo  13.114191   0.189035   0.189037   0.237965   0.189038   0.189041
     2  C    0.189035   4.925777   0.004913  -0.004048   0.004914  -0.006883
     3  C    0.189037   0.004913   4.925775  -0.004049  -0.006883   0.004914
     4  C    0.237965  -0.004048  -0.004049   4.940590  -0.004049  -0.004050
     5  C    0.189038   0.004914  -0.006883  -0.004049   4.925773   0.004914
     6  C    0.189041  -0.006883   0.004914  -0.004050   0.004914   4.925770
     7  O   -0.019194  -0.000832   0.648295  -0.000883   0.000013  -0.000831
     8  O   -0.019194   0.000013  -0.000832  -0.000883  -0.000832   0.648295
     9  O   -0.018862  -0.000860  -0.000860   0.613021  -0.000860  -0.000860
    10  O   -0.019194  -0.000832   0.000013  -0.000883   0.648295  -0.000831
    11  O   -0.019194   0.648297  -0.000832  -0.000883  -0.000832   0.000013
               7          8          9         10         11
     1  Mo  -0.019194  -0.019194  -0.018862  -0.019194  -0.019194
     2  C   -0.000832   0.000013  -0.000860  -0.000832   0.648297
     3  C    0.648295  -0.000832  -0.000860   0.000013  -0.000832
     4  C   -0.000883  -0.000883   0.613021  -0.000883  -0.000883
     5  C    0.000013  -0.000832  -0.000860   0.648295  -0.000832
     6  C   -0.000831   0.648295  -0.000860  -0.000831   0.000013
     7  O    7.600931   0.000011   0.000021   0.000000   0.000011
     8  O    0.000011   7.600932   0.000021   0.000011   0.000000
     9  O    0.000021   0.000021   7.676545   0.000021   0.000021
    10  O    0.000000   0.000011   0.000021   7.600931   0.000011
    11  O    0.000011   0.000000   0.000021   0.000011   7.600929
 Mulliken charges:
               1
     1  Mo  -0.012668
     2  C    0.240507
     3  C    0.240508
     4  C    0.228150
     5  C    0.240509
     6  C    0.240510
     7  O   -0.227542
     8  O   -0.227542
     9  O   -0.267348
    10  O   -0.227542
    11  O   -0.227542
 Sum of Mulliken charges =  -0.00000
 Mulliken charges with hydrogens summed into heavy atoms:
               1
     1  Mo  -0.012668
     2  C    0.240507
     3  C    0.240508
     4  C    0.228150
     5  C    0.240509
     6  C    0.240510
     7  O   -0.227542
     8  O   -0.227542
     9  O   -0.267348
    10  O   -0.227542
    11  O   -0.227542
 Electronic spatial extent (au):  <R**2>=           2210.0103
 Charge=             -0.0000 electrons
 Dipole moment (field-independent basis, Debye):
    X=             -2.2691    Y=             -0.0001    Z=             -0.0003  Tot=              2.2691
 Quadrupole moment (field-independent basis, Debye-Ang):
   XX=            -78.0836   YY=            -79.7181   ZZ=            -79.7181
   XY=              0.0000   XZ=             -0.0001   YZ=             -0.0000
 Traceless Quadrupole moment (field-independent basis, Debye-Ang):
   XX=              1.0896   YY=             -0.5448   ZZ=             -0.5448
   XY=              0.0000   XZ=             -0.0001   YZ=             -0.0000
 Octapole moment (field-independent basis, Debye-Ang**2):
  XXX=           -177.8196  YYY=             -0.0004  ZZZ=             -0.0009  XYY=            -51.7508
  XXY=              0.0000  XXZ=              0.0000  XZZ=            -51.7510  YZZ=             -0.0005
  YYZ=             -0.0029  XYZ=             -0.0000
 Hexadecapole moment (field-independent basis, Debye-Ang**3):
 XXXX=           -748.8465 YYYY=          -1107.2297 ZZZZ=          -1107.2292 XXXY=              0.0004
 XXXZ=              0.0014 YYYX=             -0.0001 YYYZ=             -0.0004 ZZZX=             -0.0000
 ZZZY=             -0.0004 XXYY=           -265.2132 XXZZ=           -265.2134 YYZZ=           -319.0559
 XXYZ=             -0.0001 YYXZ=             -0.0008 ZZXY=             -0.0001
 N-N= 5.696372365840D+02 E-N=-2.605937891327D+03  KE= 5.851126923372D+02
 Unable to Open any file for archive entry.
 1\1\GINC-NODE7-IB\FOpt\RB3LYP\Gen\C5Mo1O5\CHESAGAR\04-Nov-2021\0\\# op
 t freq b3lyp/gen nosymm pseudo=read\\Title Card Required\\0,1\Mo,0.318
 0887438,0.0000023189,0.0000002964\C,0.3139166169,-0.0000092636,2.07554
 92473\C,0.3139072234,2.0755505402,-0.0000400753\C,2.2768940956,0.00000
 24854,-0.0000150799\C,0.3139051592,-2.075547449,-0.0000413653\C,0.3139
 001689,-0.0000105775,-2.0755487028\O,0.3406419264,3.225842445,0.000091
 6058\O,0.3406485617,0.0000112084,-3.2258403259\O,3.4356978276,-0.00000
 68823,-0.0000293528\O,0.3406402445,-3.2258394658,0.0000891589\O,0.3406
 634319,0.0000136402,3.2258405937\\Version=ES64L-G16RevC.01\HF=-634.260
 8725\RMSD=6.216e-09\RMSF=1.288e-04\Dipole=-0.8927344,-0.0000217,-0.000
 0994\Quadrupole=0.810115,-0.4050627,-0.4050523,0.0000088,-0.0000399,-0
 .0000029\PG=C01 [X(C5Mo1O5)]\\@
 The archive entry for this job was punched.


 BE LIKE A POSTAGE STAMP.  STICK TO ONE THING UNTIL
 YOU GET THERE -- JOSH BILLINGS
 Job cpu time:       0 days  0 hours  3 minutes  4.5 seconds.
 Elapsed time:       0 days  0 hours  0 minutes 17.3 seconds.
 File lengths (MBytes):  RWF=     28 Int=      0 D2E=      0 Chk=      4 Scr=      2
 Normal termination of Gaussian 16 at Thu Nov  4 09:20:21 2021.
 Link1:  Proceeding to internal job step number  2.
 ------------------------------------------------------------------
 #N Geom=AllCheck Guess=TCheck SCRF=Check GenChk RB3LYP/ChkBas Freq
 ------------------------------------------------------------------
 1/10=4,29=7,30=1,38=1,40=1/1,3;
 2/12=2,15=1,40=1/2;
 3/5=7,6=2,11=2,14=-4,16=1,17=8,25=1,30=1,67=1,70=2,71=2,74=-5,82=7,116=1,140=1/1,2,3;
 4/5=101/1;
 5/5=2,38=6,98=1/2;
 8/6=4,10=90,11=11/1;
 11/6=1,8=1,9=11,15=111,16=1,31=1/1,2,10;
 10/6=1,31=1/2;
 6/7=2,8=2,9=2,10=2,28=1/1;
 7/8=1,10=1,25=1,30=1/1,2,3,16;
 1/10=4,30=1/3;
 99//99;
 Structure from the checkpoint file:  "MoCO5_SP.chk"
 -------------------
 Title Card Required
 -------------------
 Charge =  0 Multiplicity = 1
 Redundant internal coordinates found in file.  (old form).
 Mo,0,0.3180887438,0.0000023189,0.0000002964
 C,0,0.3139166169,-0.0000092636,2.0755492473
 C,0,0.3139072234,2.0755505402,-0.0000400753
 C,0,2.2768940956,0.0000024854,-0.0000150799
 C,0,0.3139051592,-2.075547449,-0.0000413653
 C,0,0.3139001689,-0.0000105775,-2.0755487028
 O,0,0.3406419264,3.225842445,0.0000916058
 O,0,0.3406485617,0.0000112084,-3.2258403259
 O,0,3.4356978276,-0.0000068823,-0.0000293528
 O,0,0.3406402445,-3.2258394658,0.0000891589
 O,0,0.3406634319,0.0000136402,3.2258405937
 Recover connectivity data from disk.

 GradGradGradGradGradGradGradGradGradGradGradGradGradGradGradGradGradGrad
 Berny optimization.
 Initialization pass.
                           ----------------------------
                           !    Initial Parameters    !
                           ! (Angstroms and Degrees)  !
 --------------------------                            --------------------------
 ! Name  Definition              Value          Derivative Info.                !
 --------------------------------------------------------------------------------
 ! R1    R(1,2)                  2.0756         calculate D2E/DX2 analytically  !
 ! R2    R(1,3)                  2.0756         calculate D2E/DX2 analytically  !
 ! R3    R(1,4)                  1.9588         calculate D2E/DX2 analytically  !
 ! R4    R(1,5)                  2.0756         calculate D2E/DX2 analytically  !
 ! R5    R(1,6)                  2.0756         calculate D2E/DX2 analytically  !
 ! R6    R(2,11)                 1.1506         calculate D2E/DX2 analytically  !
 ! R7    R(3,7)                  1.1506         calculate D2E/DX2 analytically  !
 ! R8    R(4,9)                  1.1588         calculate D2E/DX2 analytically  !
 ! R9    R(5,10)                 1.1506         calculate D2E/DX2 analytically  !
 ! R10   R(6,8)                  1.1506         calculate D2E/DX2 analytically  !
 ! A1    A(2,1,3)               90.0012         calculate D2E/DX2 analytically  !
 ! A2    A(2,1,4)               90.1156         calculate D2E/DX2 analytically  !
 ! A3    A(2,1,5)               90.0006         calculate D2E/DX2 analytically  !
 ! A4    A(3,1,4)               90.1154         calculate D2E/DX2 analytically  !
 ! A5    A(3,1,6)               89.999          calculate D2E/DX2 analytically  !
 ! A6    A(4,1,5)               90.1155         calculate D2E/DX2 analytically  !
 ! A7    A(4,1,6)               90.1152         calculate D2E/DX2 analytically  !
 ! A8    A(5,1,6)               89.9983         calculate D2E/DX2 analytically  !
 ! A9    L(2,1,6,3,-1)         180.0002         calculate D2E/DX2 analytically  !
 ! A10   L(3,1,5,2,-1)         180.0018         calculate D2E/DX2 analytically  !
 ! A11   L(1,2,11,10,-1)       179.9796         calculate D2E/DX2 analytically  !
 ! A12   L(1,3,7,8,-1)         179.9858         calculate D2E/DX2 analytically  !
 ! A13   L(1,4,9,10,-1)        179.9995         calculate D2E/DX2 analytically  !
 ! A14   L(1,5,10,8,-1)        179.9858         calculate D2E/DX2 analytically  !
 ! A15   L(1,6,8,10,-1)        179.9796         calculate D2E/DX2 analytically  !
 ! A16   L(2,1,6,3,-2)         180.2308         calculate D2E/DX2 analytically  !
 ! A17   L(3,1,5,2,-2)         179.7691         calculate D2E/DX2 analytically  !
 ! A18   L(1,2,11,10,-2)       178.2795         calculate D2E/DX2 analytically  !
 ! A19   L(1,3,7,8,-2)         181.7203         calculate D2E/DX2 analytically  !
 ! A20   L(1,4,9,10,-2)        179.9997         calculate D2E/DX2 analytically  !
 ! A21   L(1,5,10,8,-2)        178.2796         calculate D2E/DX2 analytically  !
 ! A22   L(1,6,8,10,-2)        181.7212         calculate D2E/DX2 analytically  !
 ! D1    D(2,1,4,3)            -90.0014         calculate D2E/DX2 analytically  !
 ! D2    D(2,1,5,4)            -90.1156         calculate D2E/DX2 analytically  !
 ! D3    D(3,1,6,4)             90.1154         calculate D2E/DX2 analytically  !
 ! D4    D(4,1,6,5)             90.1155         calculate D2E/DX2 analytically  !
 --------------------------------------------------------------------------------
 Trust Radius=3.00D-01 FncErr=1.00D-07 GrdErr=1.00D-07 EigMax=2.50D+02 EigMin=1.00D-04
 Number of steps in this run=      2 maximum allowed number of steps=      2.
 GradGradGradGradGradGradGradGradGradGradGradGradGradGradGradGradGradGrad

                          Input orientation:                          
 ---------------------------------------------------------------------
 Center     Atomic      Atomic             Coordinates (Angstroms)
 Number     Number       Type             X           Y           Z
 ---------------------------------------------------------------------
      1         42           0        0.318089    0.000002    0.000000
      2          6           0        0.313917   -0.000009    2.075549
      3          6           0        0.313907    2.075551   -0.000040
      4          6           0        2.276894    0.000002   -0.000015
      5          6           0        0.313905   -2.075547   -0.000041
      6          6           0        0.313900   -0.000011   -2.075549
      7          8           0        0.340642    3.225842    0.000092
      8          8           0        0.340649    0.000011   -3.225840
      9          8           0        3.435698   -0.000007   -0.000029
     10          8           0        0.340640   -3.225839    0.000089
     11          8           0        0.340663    0.000014    3.225841
 ---------------------------------------------------------------------
                    Distance matrix (angstroms):
                    1          2          3          4          5
     1  Mo   0.000000
     2  C    2.075553   0.000000
     3  C    2.075552   2.935306   0.000000
     4  C    1.958805   2.856790   2.856784   0.000000
     5  C    2.075554   2.935291   4.151098   2.856787   0.000000
     6  C    2.075553   4.151098   2.935250   2.856779   2.935232
     7  O    3.225919   3.835930   1.150603   3.762329   5.301457
     8  O    3.225920   5.301457   3.835931   3.762312   3.835940
     9  O    3.117609   3.748806   3.748802   1.158804   3.748794
    10  O    3.225921   3.835913   5.301457   3.762331   1.150603
    11  O    3.225919   1.150602   3.835997   3.762331   3.836012
                    6          7          8          9         10
     6  C    0.000000
     7  O    3.836030   0.000000
     8  O    1.150603   4.562085   0.000000
     9  O    3.748787   4.470512   4.470479   0.000000
    10  O    3.836008   6.451682   4.562098   4.470501   0.000000
    11  O    5.301457   4.561954   6.451681   4.470512   4.561973
                   11
    11  O    0.000000
 Symmetry turned off by external request.
 Stoichiometry    C5MoO5
 Framework group  C1[X(C5MoO5)]
 Deg. of freedom    27
 Full point group                 C1      NOp   1
 Rotational constants (GHZ):           0.8225408           0.8225399           0.5791946
 Basis read from chk: "MoCO5_SP.chk" (5D, 7F)
 Pseudo-potential data read from chk file.
   162 basis functions,   329 primitive gaussians,   174 cartesian basis functions
    42 alpha electrons       42 beta electrons
       nuclear repulsion energy       569.6372365840 Hartrees.
 NAtoms=   11 NActive=   11 NUniq=   11 SFac= 1.00D+00 NAtFMM=   60 NAOKFM=F Big=F
 Integral buffers will be    131072 words long.
 Raffenetti 2 integral format.
 Two-electron integral symmetry is turned off.
 One-electron integrals computed using PRISM.
   1 Symmetry operations used in ECPInt.
 ECPInt:  NShTT=    1176 NPrTT=    8321 LenC2=    1101 LenP2D=    5188.
 LDataN:  DoStor=T MaxTD1= 5 Len=  102
 NBasis=   162 RedAO= T EigKep=  3.09D-03  NBF=   162
 NBsUse=   162 1.00D-06 EigRej= -1.00D+00 NBFU=   162
 Defaulting to unpruned grid for atomic number  42.
 Initial guess from the checkpoint file:  "MoCO5_SP.chk"
 B after Tr=     0.000000    0.000000    0.000000
         Rot=    1.000000    0.000000    0.000000    0.000000 Ang=   0.00 deg.
 Keep R1 ints in memory in canonical form, NReq=103186106.
 Requested convergence on RMS density matrix=1.00D-08 within 128 cycles.
 Requested convergence on MAX density matrix=1.00D-06.
 Requested convergence on             energy=1.00D-06.
 No special actions if energy rises.
 Defaulting to unpruned grid for atomic number  42.
 Defaulting to unpruned grid for atomic number  42.
 Defaulting to unpruned grid for atomic number  42.
 Defaulting to unpruned grid for atomic number  42.
 Defaulting to unpruned grid for atomic number  42.
 Defaulting to unpruned grid for atomic number  42.
 Defaulting to unpruned grid for atomic number  42.
 Defaulting to unpruned grid for atomic number  42.
 Defaulting to unpruned grid for atomic number  42.
 Defaulting to unpruned grid for atomic number  42.
 Defaulting to unpruned grid for atomic number  42.
 Defaulting to unpruned grid for atomic number  42.
 Defaulting to unpruned grid for atomic number  42.
 Defaulting to unpruned grid for atomic number  42.
 Defaulting to unpruned grid for atomic number  42.
 Defaulting to unpruned grid for atomic number  42.
 SCF Done:  E(RB3LYP) =  -634.260872513     A.U. after    1 cycles
            NFock=  1  Conv=0.42D-08     -V/T= 2.0840
 DoSCS=F DFT=T ScalE2(SS,OS)=  1.000000  1.000000
 Range of M.O.s used for correlation:     1   162
 NBasis=   162 NAE=    42 NBE=    42 NFC=     0 NFV=     0
 NROrb=    162 NOA=    42 NOB=    42 NVA=   120 NVB=   120
   1 Symmetry operations used in ECPInt.
 ECPInt:  NShTT=    1176 NPrTT=    8321 LenC2=    1101 LenP2D=    5188.
 LDataN:  DoStor=T MaxTD1= 6 Len=  172
 Symmetrizing basis deriv contribution to polar:
 IMax=3 JMax=2 DiffMx= 0.00D+00
 G2DrvN: will do    12 centers at a time, making    1 passes.
 Calling FoFCou, ICntrl=  3107 FMM=F I1Cent=   0 AccDes= 0.00D+00.
 Defaulting to unpruned grid for atomic number  42.
 Defaulting to unpruned grid for atomic number  42.
 Defaulting to unpruned grid for atomic number  42.
 Defaulting to unpruned grid for atomic number  42.
 Defaulting to unpruned grid for atomic number  42.
 Defaulting to unpruned grid for atomic number  42.
 Defaulting to unpruned grid for atomic number  42.
 Defaulting to unpruned grid for atomic number  42.
 Defaulting to unpruned grid for atomic number  42.
 Defaulting to unpruned grid for atomic number  42.
 Defaulting to unpruned grid for atomic number  42.
 Defaulting to unpruned grid for atomic number  42.
 Defaulting to unpruned grid for atomic number  42.
 Defaulting to unpruned grid for atomic number  42.
 Defaulting to unpruned grid for atomic number  42.
 Defaulting to unpruned grid for atomic number  42.
 End of G2Drv F.D. properties file   721 does not exist.
 End of G2Drv F.D. properties file   722 does not exist.
 End of G2Drv F.D. properties file   788 does not exist.
[...]
 Second derivative matrix not updated -- analytic derivatives used.
 ITU=  0
     Eigenvalues ---    0.02660   0.03487   0.03639   0.04135   0.04547
     Eigenvalues ---    0.04789   0.05797   0.06547   0.06646   0.07651
     Eigenvalues ---    0.08986   0.09229   0.11232   0.11460   0.12840
     Eigenvalues ---    0.13552   0.14986   0.15592   0.15761   0.16332
     Eigenvalues ---    0.17006   0.20050   1.09568   1.14226   1.14643
     Eigenvalues ---    1.14643   1.19218
 Angle between quadratic step and forces=  48.34 degrees.
 Linear search not attempted -- first point.
 Iteration  1 RMS(Cart)=  0.00042747 RMS(Int)=  0.00000024
 Iteration  2 RMS(Cart)=  0.00000033 RMS(Int)=  0.00000001
 Variable       Old X    -DE/DX   Delta X   Delta X   Delta X     New X
                                 (Linear)    (Quad)   (Total)
    R1        3.92223  -0.00005   0.00000  -0.00034  -0.00034   3.92189
    R2        3.92223  -0.00005   0.00000  -0.00034  -0.00034   3.92189
    R3        3.70161   0.00009   0.00000   0.00047   0.00047   3.70208
    R4        3.92223  -0.00005   0.00000  -0.00034  -0.00034   3.92189
    R5        3.92223  -0.00005   0.00000  -0.00034  -0.00034   3.92189
    R6        2.17432   0.00013   0.00000   0.00012   0.00012   2.17444
    R7        2.17432   0.00013   0.00000   0.00012   0.00012   2.17444
    R8        2.18982   0.00027   0.00000   0.00021   0.00021   2.19003
    R9        2.17432   0.00013   0.00000   0.00012   0.00012   2.17444
   R10        2.17432   0.00013   0.00000   0.00012   0.00012   2.17444
    A1        1.57082  -0.00000   0.00000  -0.00002  -0.00002   1.57079
    A2        1.57281  -0.00004   0.00000  -0.00017  -0.00017   1.57264
    A3        1.57081  -0.00001   0.00000  -0.00001  -0.00001   1.57079
    A4        1.57281  -0.00005   0.00000  -0.00017  -0.00017   1.57264
    A5        1.57078   0.00000   0.00000   0.00001   0.00001   1.57079
    A6        1.57281  -0.00005   0.00000  -0.00017  -0.00017   1.57264
    A7        1.57281  -0.00007   0.00000  -0.00017  -0.00017   1.57264
    A8        1.57077   0.00001   0.00000   0.00003   0.00003   1.57079
    A9        3.14160  -0.00000   0.00000  -0.00001  -0.00001   3.14159
   A10        3.14162  -0.00001   0.00000  -0.00004  -0.00004   3.14159
   A11        3.14124  -0.00000   0.00000  -0.00000  -0.00000   3.14123
   A12        3.14134  -0.00001   0.00000  -0.00011  -0.00011   3.14123
   A13        3.14158   0.00000   0.00000   0.00001   0.00001   3.14159
   A14        3.14134  -0.00001   0.00000  -0.00011  -0.00011   3.14123
   A15        3.14124  -0.00000   0.00000  -0.00000  -0.00000   3.14123
   A16        3.14562  -0.00011   0.00000  -0.00034  -0.00034   3.14528
   A17        3.13756   0.00009   0.00000   0.00034   0.00034   3.13790
   A18        3.11156   0.00010   0.00000   0.00108   0.00108   3.11264
   A19        3.17162  -0.00010   0.00000  -0.00108  -0.00108   3.17054
   A20        3.14159   0.00000   0.00000   0.00001   0.00001   3.14159
   A21        3.11157   0.00010   0.00000   0.00108   0.00108   3.11264
   A22        3.17163  -0.00010   0.00000  -0.00109  -0.00109   3.17054
    D1       -1.57082   0.00000   0.00000   0.00002   0.00002  -1.57080
    D2       -1.57281   0.00004   0.00000   0.00017   0.00017  -1.57264
    D3        1.57281  -0.00005   0.00000  -0.00017  -0.00017   1.57264
    D4        1.57281  -0.00005   0.00000  -0.00017  -0.00017   1.57264
         Item               Value     Threshold  Converged?
 Maximum Force            0.000275     0.000450     YES
 RMS     Force            0.000081     0.000300     YES
 Maximum Displacement     0.000973     0.001800     YES
 RMS     Displacement     0.000428     0.001200     YES
 Predicted change in Energy=-3.953500D-07
 Optimization completed.
    -- Stationary point found.
                           ----------------------------
                           !   Optimized Parameters   !
                           ! (Angstroms and Degrees)  !
 --------------------------                            --------------------------
 ! Name  Definition              Value          Derivative Info.                !
 --------------------------------------------------------------------------------
 ! R1    R(1,2)                  2.0756         -DE/DX =    0.0                 !
 ! R2    R(1,3)                  2.0756         -DE/DX =    0.0                 !
 ! R3    R(1,4)                  1.9588         -DE/DX =    0.0001              !
 ! R4    R(1,5)                  2.0756         -DE/DX =    0.0                 !
 ! R5    R(1,6)                  2.0756         -DE/DX =    0.0                 !
 ! R6    R(2,11)                 1.1506         -DE/DX =    0.0001              !
 ! R7    R(3,7)                  1.1506         -DE/DX =    0.0001              !
 ! R8    R(4,9)                  1.1588         -DE/DX =    0.0003              !
 ! R9    R(5,10)                 1.1506         -DE/DX =    0.0001              !
 ! R10   R(6,8)                  1.1506         -DE/DX =    0.0001              !
 ! A1    A(2,1,3)               90.0012         -DE/DX =    0.0                 !
 ! A2    A(2,1,4)               90.1156         -DE/DX =    0.0                 !
 ! A3    A(2,1,5)               90.0006         -DE/DX =    0.0                 !
 ! A4    A(3,1,4)               90.1154         -DE/DX =    0.0                 !
 ! A5    A(3,1,6)               89.999          -DE/DX =    0.0                 !
 ! A6    A(4,1,5)               90.1155         -DE/DX =    0.0                 !
 ! A7    A(4,1,6)               90.1152         -DE/DX =   -0.0001              !
 ! A8    A(5,1,6)               89.9983         -DE/DX =    0.0                 !
 ! A9    L(2,1,6,3,-1)         180.0002         -DE/DX =    0.0                 !
 ! A10   L(3,1,5,2,-1)         180.0018         -DE/DX =    0.0                 !
 ! A11   L(1,2,11,10,-1)       179.9796         -DE/DX =    0.0                 !
 ! A12   L(1,3,7,8,-1)         179.9858         -DE/DX =    0.0                 !
 ! A13   L(1,4,9,10,-1)        179.9995         -DE/DX =    0.0                 !
 ! A14   L(1,5,10,8,-1)        179.9858         -DE/DX =    0.0                 !
 ! A15   L(1,6,8,10,-1)        179.9796         -DE/DX =    0.0                 !
 ! A16   L(2,1,6,3,-2)         180.2308         -DE/DX =   -0.0001              !
 ! A17   L(3,1,5,2,-2)         179.7691         -DE/DX =    0.0001              !
 ! A18   L(1,2,11,10,-2)       178.2795         -DE/DX =    0.0001              !
 ! A19   L(1,3,7,8,-2)         181.7203         -DE/DX =   -0.0001              !
 ! A20   L(1,4,9,10,-2)        179.9997         -DE/DX =    0.0                 !
 ! A21   L(1,5,10,8,-2)        178.2796         -DE/DX =    0.0001              !
 ! A22   L(1,6,8,10,-2)        181.7212         -DE/DX =   -0.0001              !
 ! D1    D(2,1,4,3)            -90.0014         -DE/DX =    0.0                 !
 ! D2    D(2,1,5,4)            -90.1156         -DE/DX =    0.0                 !
 ! D3    D(3,1,6,4)             90.1154         -DE/DX =    0.0                 !
 ! D4    D(4,1,6,5)             90.1155         -DE/DX =    0.0                 !
 --------------------------------------------------------------------------------
 GradGradGradGradGradGradGradGradGradGradGradGradGradGradGradGradGradGrad


 ----------------------------------------------------------------------

 Electric dipole moment (input orientation):
 (Debye = 10**-18 statcoulomb cm , SI units = C m)
                  (au)            (Debye)         (10**-30 SI)
   Tot        0.892732D+00      0.226910D+01      0.756890D+01
   x         -0.892732D+00     -0.226910D+01     -0.756890D+01
   y         -0.219876D-04     -0.558869D-04     -0.186419D-03
   z         -0.101792D-03     -0.258728D-03     -0.863025D-03

 Dipole polarizability, Alpha (input orientation).
 (esu units = cm**3 , SI units = C**2 m**2 J**-1)
 Alpha(0;0):
               (au)            (10**-24 esu)      (10**-40 SI)
   iso        0.113285D+03      0.167870D+02      0.186781D+02
   aniso      0.521894D+02      0.773367D+01      0.860487D+01
   xx         0.784916D+02      0.116313D+02      0.129415D+02
   yx         0.226363D-04      0.335436D-05      0.373223D-05
   yy         0.130681D+03      0.193649D+02      0.215464D+02
   zx         0.255439D-03      0.378521D-04      0.421161D-04
   zy         0.484469D-04      0.717909D-05      0.798782D-05
   zz         0.130681D+03      0.193649D+02      0.215464D+02

 ----------------------------------------------------------------------

 Dipole orientation:
    42         -0.00006798         -0.00001042         -0.60110061
     6          3.92215197          0.00006448         -0.59366365
     6         -0.00023998          3.92220746         -0.59329527
     6         -0.00051910         -0.00010129         -4.30270622
     6         -0.00004919         -3.92223085         -0.59309816
     6         -3.92228622         -0.00013120         -0.59273812
     8         -0.00005045          6.09594289         -0.64387010
     8         -6.09602810         -0.00014482         -0.64303741
     8         -0.00079576         -0.00017293         -6.49252789
     8          0.00024525         -6.09596896         -0.64356664
     8          6.09588180          0.00016006         -0.64445566

 Electric dipole moment (dipole orientation):
 (Debye = 10**-18 statcoulomb cm , SI units = C m)
                  (au)            (Debye)         (10**-30 SI)
   Tot        0.892732D+00      0.226910D+01      0.756890D+01
   x          0.000000D+00      0.000000D+00      0.000000D+00
   y          0.000000D+00      0.000000D+00      0.000000D+00
   z          0.892732D+00      0.226910D+01      0.756890D+01

 Dipole polarizability, Alpha (dipole orientation).
 (esu units = cm**3 , SI units = C**2 m**2 J**-1)
 Alpha(0;0):
               (au)            (10**-24 esu)      (10**-40 SI)
   iso        0.113285D+03      0.167870D+02      0.186781D+02
   aniso      0.521894D+02      0.773367D+01      0.860487D+01
   xx         0.130681D+03      0.193649D+02      0.215464D+02
   yx         0.482909D-04      0.715598D-05      0.796210D-05
   yy         0.130681D+03      0.193649D+02      0.215464D+02
   zx        -0.620618D-02     -0.919661D-03     -0.102326D-02
   zy        -0.130820D-02     -0.193855D-03     -0.215693D-03
   zz         0.784916D+02      0.116313D+02      0.129415D+02

 ----------------------------------------------------------------------
 Unable to Open any file for archive entry.
 1\1\GINC-NODE7-IB\Freq\RB3LYP\Gen\C5Mo1O5\CHESAGAR\04-Nov-2021\0\\#N G
 eom=AllCheck Guess=TCheck SCRF=Check GenChk RB3LYP/ChkBas Freq\\Title 
 Card Required\\0,1\Mo,0.3180887438,0.0000023189,0.0000002964\C,0.31391
 66169,-0.0000092636,2.0755492473\C,0.3139072234,2.0755505402,-0.000040
 0753\C,2.2768940956,0.0000024854,-0.0000150799\C,0.3139051592,-2.07554
 7449,-0.0000413653\C,0.3139001689,-0.0000105775,-2.0755487028\O,0.3406
 419264,3.225842445,0.0000916058\O,0.3406485617,0.0000112084,-3.2258403
 259\O,3.4356978276,-0.0000068823,-0.0000293528\O,0.3406402445,-3.22583
 94658,0.0000891589\O,0.3406634319,0.0000136402,3.2258405937\\Version=E
 S64L-G16RevC.01\HF=-634.2608725\RMSD=4.235e-09\RMSF=1.288e-04\ZeroPoin
 t=0.0407649\Thermal=0.0530247\ETot=-634.2078478\HTot=-634.2069037\GTot
 =-634.2607107\Dipole=-0.8927319,-0.000022,-0.0001018\DipoleDeriv=-1.43
 7533,-0.000004,0.0000028,-0.000003,-1.9118688,-0.0000007,-0.0000009,-0
 .0000007,-1.9118657,0.3490633,-0.0000008,0.117547,-0.0000041,0.3223934
 ,0.0000159,-0.3566582,0.0000018,2.9905279,0.3490661,0.1175283,-0.00000
 42,-0.3566785,2.990529,0.0000254,-0.0000245,0.00012,0.3224082,2.671424
 6,0.0000006,-0.0000164,-0.000011,-0.0163753,0.,-0.0000353,0.,-0.016378
 2,0.3490653,-0.1175249,-0.0000042,0.3566811,2.9905276,-0.000024,-0.000
 0242,-0.0001176,0.3224152,0.3490645,-0.0000008,-0.1175414,-0.0000038,0
 .3224304,-0.0000134,0.3566836,-0.0000004,2.990527,-0.1661094,-0.069062
 1,0.0000002,0.2488473,-2.135234,-0.0000138,0.0000247,-0.0001752,-0.170
 8243,-0.1661064,0.0000001,0.0690822,0.0000039,-0.1708277,0.0000263,-0.
 2488486,-0.0000015,-2.1352353,-1.9657186,0.0000018,0.0000138,0.0000129
 ,-0.0855197,0.,0.0000252,0.,-0.0855192,-0.1661091,0.0690617,0.0000002,
 -0.2488491,-2.1352333,0.0000127,0.0000244,0.0001732,-0.1708252,-0.1661
 072,0.,-0.06908,0.0000042,-0.1708217,-0.0000283,0.2488339,0.0000004,-2
 .1352304\Polar=78.4916405,0.0000226,130.6810632,0.0002554,0.0000484,13
 0.6810406\Quadrupole=0.8101424,-0.4050764,-0.405066,0.0000086,-0.00004
 16,-0.0000029\PG=C01 [X(C5Mo1O5)]\NImag=0\\0.39606178,-0.00000076,0.33
 234980,-0.00000205,-0.00000004,0.33235035,-0.07716243,0.00000013,-0.02
 469129,0.08867985,-0.00000007,-0.07089321,-0.00000115,0.00000045,0.093
 61988,-0.01397049,-0.00000086,-0.04212363,0.03355658,0.00002291,1.1864
 2374,-0.07716272,-0.02469127,0.00000057,0.00521598,0.00042175,-0.00066
 097,0.08867998,-0.01396986,-0.04212567,-0.00000439,-0.00066067,-0.0004
 1837,0.02435453,0.03354448,1.18642228,-0.00000031,-0.00000515,-0.07089
 088,0.00042158,0.01420507,-0.00041977,0.00000271,0.00013018,0.09362002
 ,-0.13135196,0.00000031,0.00000116,-0.00206784,0.00000029,0.03033364,-
 0.00206806,0.03033372,0.00000164,1.17170082,0.00000018,-0.06862138,-0.
 00000001,-0.00000003,0.00061505,-0.00000012,0.02267557,0.00533632,0.,-
 0.00000821,0.10720519,0.00000161,-0.00000001,-0.06862149,0.02267519,0.
 00000002,0.00533630,-0.00000011,-0.00000029,0.00061500,-0.00001294,0.0
 0000001,0.10720522,-0.07716279,0.02469155,0.00000058,0.00521605,-0.000
 42176,-0.00066109,0.03081903,-0.00083165,-0.00000022,-0.00206803,-0.02
 267549,-0.00000010,0.08867999,0.01397036,-0.04212573,0.00000452,0.0006
 6070,-0.00041811,-0.02435410,0.00083140,-0.06350650,0.00000008,-0.0303
 3403,0.00533659,0.00000029,-0.03354500,1.18642035,-0.00000029,0.000005
 22,-0.07088933,0.00042162,-0.01420507,-0.00042065,-0.00000021,-0.00000
 017,0.02614740,0.00000161,0.,0.00061497,0.00000268,-0.00012915,0.09362
 012,-0.07716289,0.00000013,0.02469168,0.03081897,-0.00000005,-0.000831
 63,0.00521624,-0.00066118,-0.00042175,-0.00206813,-0.00000003,-0.02267
 578,0.00521632,0.00066121,-0.00042179,0.08868096,-0.00000006,-0.070886
 95,0.00000121,-0.00000005,0.02614737,-0.00000018,0.00042167,-0.0004218
 2,-0.01420499,0.00000026,0.00061501,-0.00000001,-0.00042168,-0.0004215
 7,0.01420503,0.00000042,0.09361985,0.01397028,0.00000099,-0.04212812,0
 .00083122,0.00000009,-0.06350645,0.00066111,-0.02435237,-0.00041927,-0
 .03033423,0.00000011,0.00533677,0.00066123,0.02435194,-0.00042016,-0.0
 3355742,-0.00002192,1.18642077,0.02716433,0.00567115,-0.00000018,-0.00
 100177,-0.00014002,-0.00023648,-0.03885464,-0.02879938,-0.00000280,0.0
 0068924,-0.00452730,-0.00000016,-0.01053246,-0.00007623,0.00000012,-0.
 00100173,-0.00014004,0.00023645,0.01994087,0.00679199,-0.05499938,-0.0
 0000224,0.00022310,0.00008032,-0.01618484,-0.02872975,-1.10447510,-0.0
 0012364,-0.01851936,-0.00163792,0.00000019,-0.00040782,0.01836489,0.00
 000105,0.00022336,0.00008033,0.01618336,0.02725390,1.15223007,0.000000
 77,-0.00000032,0.02506840,-0.00003008,-0.00286052,0.00091816,-0.000003
 23,-0.00012540,-0.03999514,-0.00000185,-0.00000020,-0.00038438,0.,0.00
 000122,-0.00918629,0.00003015,0.00286022,0.00092016,0.00000305,0.00012
 511,0.02024739,0.02716461,-0.00000005,-0.00567111,-0.01053249,0.000000
 03,0.00007619,-0.00100188,-0.00023659,0.00014001,0.00068915,-0.0000000
 3,0.00452733,-0.00100187,0.00023658,0.00014003,-0.03885564,-0.00000044
 ,0.02881229,0.00020812,0.00022478,-0.00002225,0.01994176,0.00000012,0.
 02506721,-0.00000018,0.,-0.00918637,-0.00000020,-0.00003005,0.00091945
 ,0.00286011,-0.00000030,-0.00038431,0.00000004,0.00003006,0.00091971,-
 0.00286005,-0.00000053,-0.03999467,0.00002088,0.00002225,-0.00027441,-
 0.00059764,0.00000050,0.02024723,-0.00679210,0.00000026,-0.05499682,0.
 00040788,-0.00000025,0.01836489,-0.00022332,0.01618356,0.00008008,0.01
 851972,-0.00000008,-0.00163818,-0.00022337,-0.01618329,0.00008008,0.02
 874268,0.00002047,-1.10447433,-0.00022468,-0.01127407,-0.00027532,-0.0
 2726691,-0.00002058,1.15222900,-0.06471647,0.00000010,0.00000015,0.000
 69024,-0.00000016,-0.01855842,0.00069023,-0.01855849,-0.00000099,-1.03
 483351,0.00000807,0.00001231,0.00069026,0.01855860,-0.00000097,0.00069
 011,-0.00000015,0.01855878,-0.00015124,0.01246562,0.00000118,-0.000151
 12,0.00000019,-0.01246581,1.09739390,0.00000016,0.02216460,0.,0.000000
 03,0.00036849,0.00000015,-0.00482154,-0.00101426,-0.00000006,0.0000081
 2,-0.04644207,0.,0.00482150,-0.00101452,0.00000006,0.00000002,0.000368
 56,-0.00000015,0.00096273,0.00040532,0.00000008,0.,0.00002916,0.000000
 09,-0.00000829,0.02470003,0.00000035,0.,0.02216464,-0.00482150,-0.0000
 0002,-0.00101425,0.00000014,0.00000026,0.00036852,0.00001236,0.,-0.046
 44208,0.00000013,-0.00000026,0.00036854,0.00482150,0.00000001,-0.00101
 457,0.,-0.00000015,0.00002918,-0.00096271,-0.00000002,0.00040555,-0.00
 001299,0.,0.02470003,0.02716440,-0.00567126,-0.00000018,-0.00100182,0.
 00014002,-0.00023646,-0.01053248,0.00007629,0.00000012,0.00068925,0.00
 452730,-0.00000016,-0.03885482,0.02879974,-0.00000277,-0.00100178,0.00
 014003,0.00023643,0.00333122,0.00024935,-0.00000002,0.00020813,-0.0000
 2225,-0.00022468,-0.00015125,-0.00096273,0.,0.01994107,-0.00679219,-0.
 05499841,0.00000218,-0.00022312,0.00008015,0.01618462,0.00040789,0.018
 36488,-0.00000102,0.01851952,-0.00163804,-0.00000019,0.02873011,-1.104
 47418,0.00012256,-0.00022338,0.00008013,-0.01618317,-0.00024936,-0.009
 49965,-0.00000030,-0.00022478,-0.00027461,0.01127392,-0.01246569,0.000
 40549,0.00000015,-0.02725421,1.15222894,0.00000076,0.00000024,0.025067
 91,-0.00003006,0.00286042,0.00091835,0.,-0.00000119,-0.00918633,-0.000
 00183,0.00000020,-0.00038434,-0.00000320,0.00012433,-0.03999508,0.0000
 3014,-0.00286011,0.00092033,-0.00000002,0.00000028,0.00293162,-0.00002
 225,0.00059760,-0.00027530,0.00000117,-0.00000008,0.00002917,0.0000030
 2,-0.00012397,0.02024746,0.02716414,-0.00000005,0.00567066,-0.03885474
 ,-0.00000047,-0.02881087,-0.00100168,-0.00023666,-0.00014000,0.0006890
 6,-0.00000003,-0.00452721,-0.00100167,0.00023665,-0.00014002,-0.010532
 43,0.00000003,-0.00007614,0.00020807,0.00022481,0.00002228,0.00333122,
 0.,-0.00024940,-0.00015115,0.,0.00096273,0.00020808,-0.00022481,0.0000
 2227,0.01994109,0.00000013,0.02506910,0.00000010,-0.00000056,-0.039995
 20,-0.00002191,-0.00003016,0.00091879,-0.00286059,-0.00000032,-0.00038
 445,-0.00000004,0.00003018,0.00091907,0.00286053,0.,-0.00918623,0.0000
 0023,0.00002228,-0.00027448,0.00059776,0.,0.00293162,-0.00000004,0.000
 00020,0.00002920,0.00000002,-0.00002228,-0.00027470,-0.00059774,0.0000
 0052,0.02024727,0.00679147,-0.00000032,-0.05500102,-0.02874114,-0.0000
 2151,-1.10447670,0.00022330,-0.01618472,0.00008036,-0.01851927,0.00000
 008,-0.00163779,0.00022336,0.01618443,0.00008041,-0.00040779,0.0000002
 7,0.01836485,0.00022470,0.01127496,-0.00027378,0.00024940,0.00000002,-
 0.00949964,0.01246558,-0.00000009,0.00040527,0.00022469,-0.01127479,-0
 .00027379,0.02726570,0.00002167,1.15223183\\0.00039949,0.00000404,0.00
 001967,-0.00012930,-0.00000368,0.00018161,-0.00012835,0.00018064,-0.00
 001765,0.00018530,0.00000086,-0.00000016,-0.00012862,-0.00018030,-0.00
 001771,-0.00012939,-0.00000375,-0.00018000,0.00005121,-0.00013149,0.00
 000777,0.00005179,0.00000158,0.00013109,-0.00027499,-0.00000047,-0.000
 00020,0.00005129,0.00013098,0.00000777,0.00005157,0.00000158,-0.000132
 18\\\@
 The archive entry for this job was punched.


 THE WHOLE OF SCIENCE IS NOTHING MORE THAN A REFINEMENT OF EVERYDAY THINKING.
                                                              -- A. EINSTEIN
 Job cpu time:       0 days  0 hours  5 minutes 40.1 seconds.
 Elapsed time:       0 days  0 hours  0 minutes 22.1 seconds.
 File lengths (MBytes):  RWF=    104 Int=      0 D2E=      0 Chk=      4 Scr=      2
 Normal termination of Gaussian 16 at Thu Nov  4 09:20:46 2021.
