 Entering Gaussian System, Link 0=/apps/GAU16/avx2/g16/g16
 Initial command:
 /apps/GAU16/avx2//g16/l1.exe "/localscratch/chesayan/sagar/Gau-60524.inp" -scrdir="/localscratch/chesayan/sagar/"
 Entering Link 1 = /apps/GAU16/avx2//g16/l1.exe PID=     60525.
  
 Copyright (c) 1988-2019, Gaussian, Inc.  All Rights Reserved.
  
 This is part of the Gaussian(R) 16 program.  It is based on
 the Gaussian(R) 09 system (copyright 2009, Gaussian, Inc.),
 the Gaussian(R) 03 system (copyright 2003, Gaussian, Inc.),
 the Gaussian(R) 98 system (copyright 1998, Gaussian, Inc.),
 the Gaussian(R) 94 system (copyright 1995, Gaussian, Inc.),
 the Gaussian 92(TM) system (copyright 1992, Gaussian, Inc.),
 the Gaussian 90(TM) system (copyright 1990, Gaussian, Inc.),
 the Gaussian 88(TM) system (copyright 1988, Gaussian, Inc.),
 the Gaussian 86(TM) system (copyright 1986, Carnegie Mellon
 University), and the Gaussian 82(TM) system (copyright 1983,
 Carnegie Mellon University). Gaussian is a federally registered
 trademark of Gaussian, Inc.
  
 This software contains proprietary and confidential information,
 including trade secrets, belonging to Gaussian, Inc.
  
 This software is provided under written license and may be
 used, copied, transmitted, or stored only in accord with that
 written license.
  
 The following legend is applicable only to US Government
 contracts under FAR:
  
                    RESTRICTED RIGHTS LEGEND
  
 Use, reproduction and disclosure by the US Government is
 subject to restrictions as set forth in subparagraphs (a)
 and (c) of the Commercial Computer Software - Restricted
 Rights clause in FAR 52.227-19.
  
 Gaussian, Inc.
 340 Quinnipiac St., Bldg. 40, Wallingford CT 06492
  
  
 ---------------------------------------------------------------
 Warning -- This program may not be used in any manner that
 competes with the business of Gaussian, Inc. or will provide
 assistance to any competitor of Gaussian, Inc.  The licensee
 of this program is prohibited from giving any competitor of
 Gaussian, Inc. access to this program.  By using this program,
 the user acknowledges that Gaussian, Inc. is engaged in the
 business of creating and licensing software in the field of
 computational chemistry and represents and warrants to the
 licensee that it is not a competitor of Gaussian, Inc. and that
 it will not use this program in any manner prohibited above.
 ---------------------------------------------------------------
  

 Cite this work as:
 Gaussian 16, Revision C.01,
 M. J. Frisch, G. W. Trucks, H. B. Schlegel, G. E. Scuseria, 
 M. A. Robb, J. R. Cheeseman, G. Scalmani, V. Barone, 
 G. A. Petersson, H. Nakatsuji, X. Li, M. Caricato, A. V. Marenich, 
 J. Bloino, B. G. Janesko, R. Gomperts, B. Mennucci, H. P. Hratchian, 
 J. V. Ortiz, A. F. Izmaylov, J. L. Sonnenberg, D. Williams-Young, 
 F. Ding, F. Lipparini, F. Egidi, J. Goings, B. Peng, A. Petrone, 
 T. Henderson, D. Ranasinghe, V. G. Zakrzewski, J. Gao, N. Rega, 
 G. Zheng, W. Liang, M. Hada, M. Ehara, K. Toyota, R. Fukuda, 
 J. Hasegawa, M. Ishida, T. Nakajima, Y. Honda, O. Kitao, H. Nakai, 
 T. Vreven, K. Throssell, J. A. Montgomery, Jr., J. E. Peralta, 
 F. Ogliaro, M. J. Bearpark, J. J. Heyd, E. N. Brothers, K. N. Kudin, 
 V. N. Staroverov, T. A. Keith, R. Kobayashi, J. Normand, 
 K. Raghavachari, A. P. Rendell, J. C. Burant, S. S. Iyengar, 
 J. Tomasi, M. Cossi, J. M. Millam, M. Klene, C. Adamo, R. Cammi, 
 J. W. Ochterski, R. L. Martin, K. Morokuma, O. Farkas, 
 J. B. Foresman, and D. J. Fox, Gaussian, Inc., Wallingford CT, 2019.
 
 ******************************************
 Gaussian 16:  ES64L-G16RevC.01  3-Jul-2019
                15-Mar-2022 
 ******************************************
 %nprocshared=16
 Will use up to   16 processors via shared memory.
 %mem=32GB
 ---------------------------------------
 # opt freq b3lyp/gen nosymm pseudo=read
 ---------------------------------------
 1/18=20,19=15,26=3,38=1/1,3;
 2/9=110,12=2,15=1,17=6,18=5,40=1/2;
 3/5=7,11=2,16=1,17=8,25=1,30=1,71=1,74=-5/1,2,3;
 4//1;
 5/5=2,38=5/2;
 6/7=2,8=2,9=2,10=2,28=1/1;
 7/30=1/1,2,3,16;
 1/18=20,19=15,26=3/3(2);
 2/9=110,15=1/2;
 99//99;
 2/9=110,15=1/2;
 3/5=7,6=1,11=2,16=1,17=8,25=1,30=1,71=1,74=-5,82=7/1,2,3;
 4/5=5,16=3,69=1/1;
 5/5=2,38=5/2;
 7/30=1/1,2,3,16;
 1/18=20,19=15,26=3/3(-5);
 2/9=110,15=1/2;
 6/7=2,8=2,9=2,10=2,19=2,28=1/1;
 99/9=1/99;
 -------------------
 Title Card Required
 -------------------
 Symbolic Z-matrix:
 Charge =  0 Multiplicity = 1
 42                    2.14262   0.58002   0.33606 
 16                    0.46787  -0.7169   -0.54882 
 1                    -0.59516   0.1264   -0.52824 
 16                    1.90737   0.81241   2.59101 
 1                     2.36514  -0.36879   3.08264 
 16                    2.01678   2.6864   -0.54371 
 1                     2.70715   3.45294   0.33899 
 16                    4.18214  -0.3927   -0.00493 
 1                     4.12002  -0.70748  -1.32265 
 

 GradGradGradGradGradGradGradGradGradGradGradGradGradGradGradGradGradGrad
 Berny optimization.
 Initialization pass.
                           ----------------------------
                           !    Initial Parameters    !
                           ! (Angstroms and Degrees)  !
 --------------------------                            --------------------------
 ! Name  Definition              Value          Derivative Info.                !
 --------------------------------------------------------------------------------
 ! R1    R(1,2)                  2.2956         estimate D2E/DX2                !
 ! R2    R(1,4)                  2.2791         estimate D2E/DX2                !
 ! R3    R(1,6)                  2.2862         estimate D2E/DX2                !
 ! R4    R(1,8)                  2.2852         estimate D2E/DX2                !
 ! R5    R(2,3)                  1.3571         estimate D2E/DX2                !
 ! R6    R(4,5)                  1.3589         estimate D2E/DX2                !
 ! R7    R(6,7)                  1.3577         estimate D2E/DX2                !
 ! R8    R(8,9)                  1.3562         estimate D2E/DX2                !
 ! A1    A(2,1,4)              111.3269         estimate D2E/DX2                !
 ! A2    A(2,1,6)              109.3925         estimate D2E/DX2                !
 ! A3    A(2,1,8)              110.6779         estimate D2E/DX2                !
 ! A4    A(4,1,6)              106.3267         estimate D2E/DX2                !
 ! A5    A(4,1,8)              106.4493         estimate D2E/DX2                !
 ! A6    A(6,1,8)              112.5748         estimate D2E/DX2                !
 ! A7    A(1,2,3)              102.3897         estimate D2E/DX2                !
 ! A8    A(1,4,5)              103.5657         estimate D2E/DX2                !
 ! A9    A(1,6,7)              104.005          estimate D2E/DX2                !
 ! A10   A(1,8,9)              101.7063         estimate D2E/DX2                !
 ! D1    D(4,1,2,3)             74.8842         estimate D2E/DX2                !
 ! D2    D(6,1,2,3)            -42.3328         estimate D2E/DX2                !
 ! D3    D(8,1,2,3)           -166.9339         estimate D2E/DX2                !
 ! D4    D(2,1,4,5)             77.8119         estimate D2E/DX2                !
 ! D5    D(6,1,4,5)           -163.1239         estimate D2E/DX2                !
 ! D6    D(8,1,4,5)            -42.8868         estimate D2E/DX2                !
 ! D7    D(2,1,6,7)            160.0277         estimate D2E/DX2                !
 ! D8    D(4,1,6,7)             39.7046         estimate D2E/DX2                !
 ! D9    D(8,1,6,7)            -76.4843         estimate D2E/DX2                !
 ! D10   D(2,1,8,9)             48.1926         estimate D2E/DX2                !
 ! D11   D(4,1,8,9)            169.3075         estimate D2E/DX2                !
 ! D12   D(6,1,8,9)            -74.577          estimate D2E/DX2                !
 --------------------------------------------------------------------------------
 Trust Radius=3.00D-01 FncErr=1.00D-07 GrdErr=1.00D-06 EigMax=2.50D+02 EigMin=1.00D-04
 Number of steps in this run=     40 maximum allowed number of steps=    100.
 GradGradGradGradGradGradGradGradGradGradGradGradGradGradGradGradGradGrad

                          Input orientation:                          
 ---------------------------------------------------------------------
 Center     Atomic      Atomic             Coordinates (Angstroms)
 Number     Number       Type             X           Y           Z
 ---------------------------------------------------------------------
      1         42           0        2.142620    0.580020    0.336057
      2         16           0        0.467873   -0.716903   -0.548817
      3          1           0       -0.595159    0.126396   -0.528242
      4         16           0        1.907371    0.812412    2.591005
      5          1           0        2.365137   -0.368789    3.082636
      6         16           0        2.016782    2.686404   -0.543705
      7          1           0        2.707150    3.452937    0.338989
      8         16           0        4.182142   -0.392704   -0.004932
      9          1           0        4.120019   -0.707481   -1.322652
 ---------------------------------------------------------------------
                    Distance matrix (angstroms):
                    1          2          3          4          5
     1  Mo   0.000000
     2  S    2.295602   0.000000
     3  H    2.906582   1.357061   0.000000
     4  S    2.279065   3.777491   4.057459   0.000000
     5  H    2.914352   4.111964   4.695423   1.358855   0.000000
     6  S    2.286191   3.739204   3.657337   3.653796   4.754567
     7  H    2.927858   4.815613   4.766887   3.561403   4.717008
     8  S    2.285195   3.767852   4.833831   3.655923   3.582618
     9  H    2.884282   3.733240   4.853797   4.745798   4.754039
                    6          7          8          9
     6  S    0.000000
     7  H    1.357693   0.000000
     8  S    3.802626   4.133139   0.000000
     9  H    4.068024   4.697481   1.356219   0.000000
 Symmetry turned off by external request.
 Stoichiometry    H4MoS4
 Framework group  C1[X(H4MoS4)]
 Deg. of freedom    21
 Full point group                 C1      NOp   1
 Rotational constants (GHZ):           1.1032918           1.0933141           1.0423116
 General basis read from cards:  (5D, 7F)
 ======================================================================================================
                                       Pseudopotential Parameters
 ======================================================================================================
  Center     Atomic      Valence      Angular      Power
  Number     Number     Electrons     Momentum     of R      Exponent        Coefficient   SO-Coeffient
 ======================================================================================================
    1         42           14
                                      F and up 
                                                     0      537.9667807       -0.04694920    0.00000000
                                                     1      147.8982938      -20.20800840    0.00000000
                                                     2       45.7358898     -106.21163020    0.00000000
                                                     2       13.2911467      -41.81073680    0.00000000
                                                     2        4.7059961       -4.20541030    0.00000000
                                      S - F
                                                     0      110.2991760        2.80637170    0.00000000
                                                     1       23.2014645       44.51620120    0.00000000
                                                     2        5.3530131       82.77852270    0.00000000
                                      P - F
                                                     0       63.2901397        4.94208760    0.00000000
                                                     1       23.3315302       25.86049760    0.00000000
                                                     2       24.6759423      132.47087420    0.00000000
                                                     2        4.6493040       57.31497940    0.00000000
                                      D - F
                                                     0      104.4839977        3.00545910    0.00000000
                                                     1       66.2307245       26.36378510    0.00000000
                                                     2       39.1283176      183.38491990    0.00000000
                                                     2       13.1164437       98.44530680    0.00000000
                                                     2        3.6280263       22.49013770    0.00000000
    2         16
                                   No pseudopotential on this center.
    3          1
                                   No pseudopotential on this center.
    4         16
                                   No pseudopotential on this center.
    5          1
                                   No pseudopotential on this center.
    6         16
                                   No pseudopotential on this center.
    7          1
                                   No pseudopotential on this center.
    8         16
                                   No pseudopotential on this center.
    9          1
                                   No pseudopotential on this center.
 ======================================================================================================
   114 basis functions,   285 primitive gaussians,   120 cartesian basis functions
    41 alpha electrons       41 beta electrons
       nuclear repulsion energy       485.6502108959 Hartrees.
 NAtoms=    9 NActive=    9 NUniq=    9 SFac= 1.00D+00 NAtFMM=   60 NAOKFM=F Big=F
 Integral buffers will be    131072 words long.
 Raffenetti 2 integral format.
 Two-electron integral symmetry is turned off.
 One-electron integrals computed using PRISM.
   1 Symmetry operations used in ECPInt.
 ECPInt:  NShTT=     820 NPrTT=    5722 LenC2=     795 LenP2D=    4163.
 LDataN:  DoStor=T MaxTD1= 5 Len=  102
 NBasis=   114 RedAO= T EigKep=  5.50D-03  NBF=   114
 NBsUse=   114 1.00D-06 EigRej= -1.00D+00 NBFU=   114
 Defaulting to unpruned grid for atomic number  42.
 ExpMin= 2.47D-02 ExpMax= 2.19D+04 ExpMxC= 3.30D+03 IAcc=3 IRadAn=         5 AccDes= 0.00D+00
 Harris functional with IExCor=  402 and IRadAn=       5 diagonalized for initial guess.
 HarFok:  IExCor=  402 AccDes= 0.00D+00 IRadAn=         5 IDoV= 1 UseB2=F ITyADJ=14
 ICtDFT=  3500011 ScaDFX=  1.000000  1.000000  1.000000  1.000000
 Defaulting to unpruned grid for atomic number  42.
 FoFCou: FMM=F IPFlag=           0 FMFlag=      100000 FMFlg1=           0
         NFxFlg=           0 DoJE=T BraDBF=F KetDBF=T FulRan=T
         wScrn=  0.000000 ICntrl=       500 IOpCl=  0 I1Cent=   200000004 NGrid=           0
         NMat0=    1 NMatS0=      1 NMatT0=    0 NMatD0=    1 NMtDS0=    0 NMtDT0=    0
 Symmetry not used in FoFCou.
 Keep R1 ints in memory in canonical form, NReq=36643870.
 Requested convergence on RMS density matrix=1.00D-08 within 128 cycles.
 Requested convergence on MAX density matrix=1.00D-06.
 Requested convergence on             energy=1.00D-06.
 No special actions if energy rises.
 Defaulting to unpruned grid for atomic number  42.
 Defaulting to unpruned grid for atomic number  42.
 Defaulting to unpruned grid for atomic number  42.
 Defaulting to unpruned grid for atomic number  42.
 Defaulting to unpruned grid for atomic number  42.
 Defaulting to unpruned grid for atomic number  42.
 Defaulting to unpruned grid for atomic number  42.
 Defaulting to unpruned grid for atomic number  42.
 Defaulting to unpruned grid for atomic number  42.
 Defaulting to unpruned grid for atomic number  42.
 Defaulting to unpruned grid for atomic number  42.
 Defaulting to unpruned grid for atomic number  42.
 Defaulting to unpruned grid for atomic number  42.
 Defaulting to unpruned grid for atomic number  42.
 Defaulting to unpruned grid for atomic number  42.
 Defaulting to unpruned grid for atomic number  42.
 SCF Done:  E(RB3LYP) =  -1662.78052400     A.U. after   15 cycles
            NFock= 15  Conv=0.53D-08     -V/T= 2.0300

 **********************************************************************

            Population analysis using the SCF Density.

 **********************************************************************

 Alpha  occ. eigenvalues --  -88.88002 -88.87929 -88.87868 -88.87803  -7.95866
 Alpha  occ. eigenvalues --   -7.95819  -7.95743  -7.95699  -5.92118  -5.92071
 Alpha  occ. eigenvalues --   -5.91995  -5.91953  -5.91731  -5.91694  -5.91609
 Alpha  occ. eigenvalues --   -5.91576  -5.91573  -5.91512  -5.91449  -5.91390
 Alpha  occ. eigenvalues --   -2.52459  -1.56762  -1.53804  -1.53771  -0.74047
 Alpha  occ. eigenvalues --   -0.72987  -0.72941  -0.72860  -0.44028  -0.42888
 Alpha  occ. eigenvalues --   -0.42831  -0.42647  -0.34001  -0.33763  -0.33602
 Alpha  occ. eigenvalues --   -0.33490  -0.32511  -0.30094  -0.27411  -0.27347
 Alpha  occ. eigenvalues --   -0.22107
 Alpha virt. eigenvalues --   -0.13120  -0.10346  -0.10193  -0.07001  -0.00900
 Alpha virt. eigenvalues --    0.00797   0.00845   0.01277   0.05661   0.05730
 Alpha virt. eigenvalues --    0.07518   0.08587   0.16902   0.17616   0.17702
 Alpha virt. eigenvalues --    0.28670   0.31436   0.31778   0.32211   0.32722
 Alpha virt. eigenvalues --    0.32772   0.33390   0.34331   0.35471   0.35678
 Alpha virt. eigenvalues --    0.40166   0.42185   0.42239   0.42570   0.49806
 Alpha virt. eigenvalues --    0.50299   0.51039   0.51315   0.56376   0.56637
 Alpha virt. eigenvalues --    0.60323   0.68356   0.71348   0.71468   0.72203
 Alpha virt. eigenvalues --    0.73584   0.74838   0.75483   0.75643   0.76571
 Alpha virt. eigenvalues --    0.77944   0.78117   0.79344   0.84003   0.85522
 Alpha virt. eigenvalues --    0.85910   0.94288   0.96068   0.96421   0.97787
 Alpha virt. eigenvalues --    0.98430   1.12514   1.13150   1.14573   1.14731
 Alpha virt. eigenvalues --    2.04805   2.06416   2.06642   2.06755   2.06829
 Alpha virt. eigenvalues --    2.08530   2.09303   2.09334   2.70142   2.70788
 Alpha virt. eigenvalues --    2.70938   2.71094   5.46905
          Condensed to atoms (all electrons):
               1          2          3          4          5          6
     1  Mo  12.804238   0.280324  -0.035410   0.275972  -0.039998   0.279871
     2  S    0.280324  15.608863   0.256156   0.008835  -0.001064   0.001788
     3  H   -0.035410   0.256156   0.688938  -0.001176   0.000064  -0.000211
     4  S    0.275972   0.008835  -0.001176  15.601874   0.252290   0.000911
     5  H   -0.039998  -0.001064   0.000064   0.252290   0.701864  -0.000074
     6  S    0.279871   0.001788  -0.000211   0.000911  -0.000074  15.603154
     7  H   -0.039746  -0.000104  -0.000038   0.000012  -0.000048   0.256175
     8  S    0.270830   0.002062  -0.000112   0.000241   0.000393   0.010142
     9  H   -0.035435   0.000145  -0.000027  -0.000054  -0.000040  -0.001123
               7          8          9
     1  Mo  -0.039746   0.270830  -0.035435
     2  S   -0.000104   0.002062   0.000145
     3  H   -0.000038  -0.000112  -0.000027
     4  S    0.000012   0.000241  -0.000054
     5  H   -0.000048   0.000393  -0.000040
     6  S    0.256175   0.010142  -0.001123
     7  H    0.695551  -0.001070   0.000064
     8  S   -0.001070  15.615941   0.250412
     9  H    0.000064   0.250412   0.697664
 Mulliken charges:
               1
     1  Mo   0.239354
     2  S   -0.157007
     3  H    0.091816
     4  S   -0.138904
     5  H    0.086614
     6  S   -0.150632
     7  H    0.089204
     8  S   -0.148838
     9  H    0.088394
 Sum of Mulliken charges =  -0.00000
 Mulliken charges with hydrogens summed into heavy atoms:
               1
     1  Mo   0.239354
     2  S   -0.065191
     4  S   -0.052291
     6  S   -0.061428
     8  S   -0.060444
 Electronic spatial extent (au):  <R**2>=           2976.2171
 Charge=             -0.0000 electrons
 Dipole moment (field-independent basis, Debye):
    X=              0.0194    Y=              0.0275    Z=              0.0163  Tot=              0.0374
 Quadrupole moment (field-independent basis, Debye-Ang):
   XX=            -76.9245   YY=            -77.2208   ZZ=            -76.7642
   XY=             -0.3702   XZ=              0.0076   YZ=              0.2199
 Traceless Quadrupole moment (field-independent basis, Debye-Ang):
   XX=              0.0453   YY=             -0.2510   ZZ=              0.2057
   XY=             -0.3702   XZ=              0.0076   YZ=              0.2199
 Octapole moment (field-independent basis, Debye-Ang**2):
  XXX=           -513.2168  YYY=           -124.7451  ZZZ=            -81.0872  XYY=           -156.2410
  XXY=            -45.4369  XXZ=            -36.2942  XZZ=           -155.8686  YZZ=            -59.0848
  YYZ=            -20.9104  XYZ=              4.3894
 Hexadecapole moment (field-independent basis, Debye-Ang**3):
 XXXX=          -2970.6801 YYYY=           -818.9905 ZZZZ=           -728.0039 XXXY=           -292.6136
 XXXZ=           -245.7427 YYYX=           -240.2571 YYYZ=            -26.6306 ZZZX=           -175.6344
 ZZZY=            -84.1613 XXYY=           -585.5735 XXZZ=           -556.6471 YYZZ=           -284.1349
 XXYZ=              2.4621 YYXZ=            -49.3728 ZZXY=           -128.1268
 N-N= 4.856502108959D+02 E-N=-4.901158113210D+03  KE= 1.614373624454D+03
   1 Symmetry operations used in ECPInt.
 ECPInt:  NShTT=     820 NPrTT=    5722 LenC2=     795 LenP2D=    4163.
 LDataN:  DoStor=T MaxTD1= 6 Len=  172
 Calling FoFJK, ICntrl=      2127 FMM=F ISym2X=0 I1Cent= 0 IOpClX= 0 NMat=1 NMatS=1 NMatT=0.
 Defaulting to unpruned grid for atomic number  42.
 Defaulting to unpruned grid for atomic number  42.
 Defaulting to unpruned grid for atomic number  42.
 Defaulting to unpruned grid for atomic number  42.
 Defaulting to unpruned grid for atomic number  42.
 Defaulting to unpruned grid for atomic number  42.
 Defaulting to unpruned grid for atomic number  42.
 Defaulting to unpruned grid for atomic number  42.
 Defaulting to unpruned grid for atomic number  42.
 Defaulting to unpruned grid for atomic number  42.
 Defaulting to unpruned grid for atomic number  42.
 Defaulting to unpruned grid for atomic number  42.
 Defaulting to unpruned grid for atomic number  42.
 Defaulting to unpruned grid for atomic number  42.
 Defaulting to unpruned grid for atomic number  42.
 Defaulting to unpruned grid for atomic number  42.
 -------------------------------------------------------------------
 Center     Atomic                   Forces (Hartrees/Bohr)
 Number     Number              X              Y              Z
 -------------------------------------------------------------------
      1       42          -0.001762267    0.001057079    0.002047676
      2       16           0.001064340    0.000182558   -0.000165187
      3        1           0.000151637    0.000109800   -0.000238516
      4       16           0.000051767   -0.000109739    0.000150829
      5        1          -0.000066879    0.000064597   -0.000000004
      6       16           0.000116476   -0.000605263   -0.000294528
      7        1           0.000028535   -0.000123902    0.000129020
      8       16          -0.000262342    0.000558618   -0.000969337
      9        1           0.000678733   -0.001133748   -0.000659953
 -------------------------------------------------------------------
 Cartesian Forces:  Max     0.002047676 RMS     0.000713599

 GradGradGradGradGradGradGradGradGradGradGradGradGradGradGradGradGradGrad
 Berny optimization.
 FormGI is forming the generalized inverse of G from B-inverse, IUseBI=4.
 Internal  Forces:  Max     0.002642671 RMS     0.000778364
 Search for a local minimum.
 Step number   1 out of a maximum of   40
 All quantities printed in internal units (Hartrees-Bohrs-Radians)
 Mixed Optimization -- En-DIIS/RFO-DIIS
 Second derivative matrix not updated -- first step.
 ITU=  0
     Eigenvalues ---    0.00230   0.00230   0.00230   0.00230   0.09281
     Eigenvalues ---    0.10220   0.10902   0.15813   0.16000   0.16000
     Eigenvalues ---    0.16000   0.16000   0.16199   0.16241   0.16500
     Eigenvalues ---    0.19714   0.20346   0.24969   0.25056   0.25103
     Eigenvalues ---    0.25166
 RFO step:  Lambda=-4.65367019D-04 EMin= 2.30000000D-03
 Linear search not attempted -- first point.
 Iteration  1 RMS(Cart)=  0.07855115 RMS(Int)=  0.00693806
 Iteration  2 RMS(Cart)=  0.00598887 RMS(Int)=  0.00003049
 Iteration  3 RMS(Cart)=  0.00003447 RMS(Int)=  0.00002408
 Iteration  4 RMS(Cart)=  0.00000000 RMS(Int)=  0.00002408
 Variable       Old X    -DE/DX   Delta X   Delta X   Delta X     New X
                                 (Linear)    (Quad)   (Total)
    R1        4.33806  -0.00090   0.00000  -0.00565  -0.00565   4.33241
    R2        4.30681   0.00015   0.00000   0.00088   0.00088   4.30769
    R3        4.32028  -0.00062   0.00000  -0.00379  -0.00379   4.31648
    R4        4.31839   0.00086   0.00000   0.00528   0.00528   4.32367
    R5        2.56447  -0.00005   0.00000  -0.00022  -0.00022   2.56426
    R6        2.56786  -0.00008   0.00000  -0.00032  -0.00032   2.56755
    R7        2.56567   0.00003   0.00000   0.00011   0.00011   2.56578
    R8        2.56288   0.00087   0.00000   0.00346   0.00346   2.56635
    A1        1.94302   0.00079   0.00000   0.00728   0.00730   1.95032
    A2        1.90926  -0.00005   0.00000  -0.00303  -0.00310   1.90616
    A3        1.93169  -0.00133   0.00000  -0.01050  -0.01055   1.92115
    A4        1.85575   0.00019   0.00000   0.00513   0.00513   1.86088
    A5        1.85789   0.00086   0.00000   0.00716   0.00718   1.86507
    A6        1.96480  -0.00034   0.00000  -0.00490  -0.00496   1.95984
    A7        1.78704  -0.00018   0.00000  -0.00113  -0.00113   1.78590
    A8        1.80756   0.00008   0.00000   0.00053   0.00053   1.80809
    A9        1.81523  -0.00046   0.00000  -0.00284  -0.00284   1.81239
   A10        1.77511   0.00264   0.00000   0.01647   0.01647   1.79158
    D1        1.30698   0.00023   0.00000   0.08813   0.08814   1.39512
    D2       -0.73885  -0.00044   0.00000   0.07936   0.07939  -0.65946
    D3       -2.91355   0.00094   0.00000   0.09494   0.09490  -2.81865
    D4        1.35807  -0.00040   0.00000  -0.01365  -0.01365   1.34443
    D5       -2.84705   0.00008   0.00000  -0.01016  -0.01016  -2.85721
    D6       -0.74852   0.00023   0.00000  -0.00956  -0.00956  -0.75807
    D7        2.79301   0.00099   0.00000   0.00322   0.00321   2.79622
    D8        0.69298  -0.00003   0.00000  -0.00678  -0.00678   0.68620
    D9       -1.33490  -0.00101   0.00000  -0.01593  -0.01592  -1.35082
   D10        0.84112  -0.00117   0.00000  -0.18804  -0.18800   0.65312
   D11        2.95497  -0.00045   0.00000  -0.18080  -0.18080   2.77417
   D12       -1.30161   0.00012   0.00000  -0.17286  -0.17290  -1.47451
         Item               Value     Threshold  Converged?
 Maximum Force            0.002643     0.000450     NO 
 RMS     Force            0.000778     0.000300     NO 
 Maximum Displacement     0.277897     0.001800     NO 
 RMS     Displacement     0.078258     0.001200     NO 
 Predicted change in Energy=-2.608286D-04
 GradGradGradGradGradGradGradGradGradGradGradGradGradGradGradGradGradGrad

                          Input orientation:                          
 ---------------------------------------------------------------------
 Center     Atomic      Atomic             Coordinates (Angstroms)
 Number     Number       Type             X           Y           Z
 ---------------------------------------------------------------------
      1         42           0        2.146660    0.603437    0.348225
      2         16           0        0.495616   -0.712645   -0.545107
      3          1           0       -0.553307    0.145446   -0.613997
      4         16           0        1.932264    0.809446    2.608285
      5          1           0        2.401070   -0.374232    3.082796
      6         16           0        1.980200    2.710193   -0.518590
      7          1           0        2.661251    3.480907    0.367785
      8         16           0        4.196372   -0.335722   -0.041068
      9          1           0        4.053809   -0.854538   -1.287989
 ---------------------------------------------------------------------
                    Distance matrix (angstroms):
                    1          2          3          4          5
     1  Mo   0.000000
     2  S    2.292610   0.000000
     3  H    2.902663   1.356947   0.000000
     4  S    2.279533   3.784785   4.123356   0.000000
     5  H    2.915208   4.111807   4.760745   1.358688   0.000000
     6  S    2.284185   3.731020   3.606340   3.659574   4.760335
     7  H    2.923186   4.807205   4.735249   3.562016   4.722401
     8  S    2.287988   3.753894   4.808245   3.668332   3.603209
     9  H    2.905186   3.637684   4.762326   4.738221   4.697446
                    6          7          8          9
     6  S    0.000000
     7  H    1.357752   0.000000
     8  S    3.796978   4.134055   0.000000
     9  H    4.195132   4.845295   1.358052   0.000000
 Symmetry turned off by external request.
 Stoichiometry    H4MoS4
 Framework group  C1[X(H4MoS4)]
 Deg. of freedom    21
 Full point group                 C1      NOp   1
 Rotational constants (GHZ):           1.1010480           1.0959065           1.0424847
 Basis read from rwf:  (5D, 7F)
 Pseudo-potential data read from rwf file.
   114 basis functions,   285 primitive gaussians,   120 cartesian basis functions
    41 alpha electrons       41 beta electrons
       nuclear repulsion energy       485.6769178279 Hartrees.
 NAtoms=    9 NActive=    9 NUniq=    9 SFac= 1.00D+00 NAtFMM=   60 NAOKFM=F Big=F
 Integral buffers will be    131072 words long.
 Raffenetti 2 integral format.
 Two-electron integral symmetry is turned off.
 One-electron integrals computed using PRISM.
   1 Symmetry operations used in ECPInt.
 ECPInt:  NShTT=     820 NPrTT=    5722 LenC2=     795 LenP2D=    4160.
 LDataN:  DoStor=T MaxTD1= 5 Len=  102
 NBasis=   114 RedAO= T EigKep=  5.42D-03  NBF=   114
 NBsUse=   114 1.00D-06 EigRej= -1.00D+00 NBFU=   114
 Defaulting to unpruned grid for atomic number  42.
 Initial guess from the checkpoint file:  "/localscratch/chesayan/sagar/Gau-60525.chk"
 B after Tr=     0.020718   -0.013295    0.037417
         Rot=    0.999955   -0.004448   -0.004505   -0.007028 Ang=  -1.08 deg.
 ExpMin= 2.47D-02 ExpMax= 2.19D+04 ExpMxC= 3.30D+03 IAcc=3 IRadAn=         5 AccDes= 0.00D+00
 Harris functional with IExCor=  402 and IRadAn=       5 diagonalized for initial guess.
 HarFok:  IExCor=  402 AccDes= 0.00D+00 IRadAn=         5 IDoV= 1 UseB2=F ITyADJ=14
 ICtDFT=  3500011 ScaDFX=  1.000000  1.000000  1.000000  1.000000
 Defaulting to unpruned grid for atomic number  42.
 FoFCou: FMM=F IPFlag=           0 FMFlag=      100000 FMFlg1=           0
         NFxFlg=           0 DoJE=T BraDBF=F KetDBF=T FulRan=T
         wScrn=  0.000000 ICntrl=       500 IOpCl=  0 I1Cent=   200000004 NGrid=           0
         NMat0=    1 NMatS0=      1 NMatT0=    0 NMatD0=    1 NMtDS0=    0 NMtDT0=    0
 Symmetry not used in FoFCou.
 Keep R1 ints in memory in canonical form, NReq=36643870.
 Requested convergence on RMS density matrix=1.00D-08 within 128 cycles.
 Requested convergence on MAX density matrix=1.00D-06.
 Requested convergence on             energy=1.00D-06.
 No special actions if energy rises.
 Defaulting to unpruned grid for atomic number  42.
 Defaulting to unpruned grid for atomic number  42.
 Defaulting to unpruned grid for atomic number  42.
 Defaulting to unpruned grid for atomic number  42.
 Defaulting to unpruned grid for atomic number  42.
 Defaulting to unpruned grid for atomic number  42.
 Defaulting to unpruned grid for atomic number  42.
 Defaulting to unpruned grid for atomic number  42.
 Defaulting to unpruned grid for atomic number  42.
 Defaulting to unpruned grid for atomic number  42.
 Defaulting to unpruned grid for atomic number  42.
 Defaulting to unpruned grid for atomic number  42.
 Defaulting to unpruned grid for atomic number  42.
 Defaulting to unpruned grid for atomic number  42.
 Defaulting to unpruned grid for atomic number  42.
 Defaulting to unpruned grid for atomic number  42.
 SCF Done:  E(RB3LYP) =  -1662.78033313     A.U. after   14 cycles
            NFock= 14  Conv=0.68D-08     -V/T= 2.0300
   1 Symmetry operations used in ECPInt.
 ECPInt:  NShTT=     820 NPrTT=    5722 LenC2=     795 LenP2D=    4160.
 LDataN:  DoStor=T MaxTD1= 6 Len=  172
 Calling FoFJK, ICntrl=      2127 FMM=F ISym2X=0 I1Cent= 0 IOpClX= 0 NMat=1 NMatS=1 NMatT=0.
 Defaulting to unpruned grid for atomic number  42.
 Defaulting to unpruned grid for atomic number  42.
 Defaulting to unpruned grid for atomic number  42.
 Defaulting to unpruned grid for atomic number  42.
 Defaulting to unpruned grid for atomic number  42.
 Defaulting to unpruned grid for atomic number  42.
 Defaulting to unpruned grid for atomic number  42.
 Defaulting to unpruned grid for atomic number  42.
 Defaulting to unpruned grid for atomic number  42.
 Defaulting to unpruned grid for atomic number  42.
 Defaulting to unpruned grid for atomic number  42.
 Defaulting to unpruned grid for atomic number  42.
 Defaulting to unpruned grid for atomic number  42.
 Defaulting to unpruned grid for atomic number  42.
 Defaulting to unpruned grid for atomic number  42.
 Defaulting to unpruned grid for atomic number  42.
 -------------------------------------------------------------------
 Center     Atomic                   Forces (Hartrees/Bohr)
 Number     Number              X              Y              Z
 -------------------------------------------------------------------
      1       42           0.000545774    0.000133124    0.002752463
      2       16           0.001504190    0.001350132   -0.001057127
      3        1          -0.000572287   -0.000470203    0.000760390
      4       16          -0.000720712    0.000635012    0.000897880
      5        1           0.000310026    0.000107804   -0.000495667
      6       16          -0.000692498    0.000171428   -0.002592033
      7        1          -0.000142115   -0.000673322    0.000750542
      8       16          -0.000993421   -0.002693907   -0.000710796
      9        1           0.000761044    0.001439932   -0.000305652
 -------------------------------------------------------------------
 Cartesian Forces:  Max     0.002752463 RMS     0.001155717

 GradGradGradGradGradGradGradGradGradGradGradGradGradGradGradGradGradGrad
 Berny optimization.
 Using GEDIIS/GDIIS optimizer.
 FormGI is forming the generalized inverse of G from B-inverse, IUseBI=4.
 Internal  Forces:  Max     0.002705567 RMS     0.001056337
 Search for a local minimum.
 Step number   2 out of a maximum of   40
 All quantities printed in internal units (Hartrees-Bohrs-Radians)
 Mixed Optimization -- RFO/linear search
 Update second derivatives using D2CorX and points    2    1
 DE=  1.91D-04 DEPred=-2.61D-04 R=-7.32D-01
 Trust test=-7.32D-01 RLast= 3.50D-01 DXMaxT set to 1.50D-01
 ITU= -1  0
 Use linear search instead of GDIIS.
     Eigenvalues ---    0.00218   0.00230   0.00230   0.01017   0.07502
     Eigenvalues ---    0.10088   0.11013   0.14438   0.15843   0.16000
     Eigenvalues ---    0.16000   0.16180   0.16224   0.16475   0.16848
     Eigenvalues ---    0.19759   0.20255   0.24967   0.25055   0.25103
     Eigenvalues ---    0.25155
 RFO step:  Lambda=-2.10197645D-04 EMin= 2.17555919D-03
 Quartic linear search produced a step of -0.64796.
 Iteration  1 RMS(Cart)=  0.04223047 RMS(Int)=  0.00211664
 Iteration  2 RMS(Cart)=  0.00178983 RMS(Int)=  0.00000901
 Iteration  3 RMS(Cart)=  0.00000367 RMS(Int)=  0.00000883
 Iteration  4 RMS(Cart)=  0.00000000 RMS(Int)=  0.00000883
 Variable       Old X    -DE/DX   Delta X   Delta X   Delta X     New X
                                 (Linear)    (Quad)   (Total)
    R1        4.33241  -0.00106   0.00366  -0.00888  -0.00521   4.32719
    R2        4.30769   0.00051  -0.00057   0.00209   0.00152   4.30921
    R3        4.31648   0.00030   0.00246  -0.00374  -0.00128   4.31520
    R4        4.32367   0.00048  -0.00342   0.00713   0.00371   4.32738
    R5        2.56426   0.00011   0.00014  -0.00010   0.00004   2.56430
    R6        2.56755  -0.00016   0.00020  -0.00059  -0.00039   2.56716
    R7        2.56578   0.00004  -0.00007   0.00018   0.00011   2.56589
    R8        2.56635  -0.00035  -0.00224   0.00351   0.00127   2.56762
    A1        1.95032   0.00080  -0.00473   0.01024   0.00553   1.95585
    A2        1.90616  -0.00137   0.00201  -0.00806  -0.00606   1.90010
    A3        1.92115  -0.00152   0.00683  -0.01664  -0.00981   1.91134
    A4        1.86088   0.00058  -0.00333   0.00878   0.00545   1.86633
    A5        1.86507   0.00106  -0.00465   0.01225   0.00759   1.87266
    A6        1.95984   0.00061   0.00321  -0.00508  -0.00190   1.95794
    A7        1.78590   0.00095   0.00073   0.00078   0.00151   1.78742
    A8        1.80809  -0.00125  -0.00034  -0.00211  -0.00246   1.80563
    A9        1.81239  -0.00239   0.00184  -0.00849  -0.00666   1.80574
   A10        1.79158   0.00058  -0.01067   0.02029   0.00962   1.80120
    D1        1.39512  -0.00100  -0.05711  -0.01357  -0.07069   1.32443
    D2       -0.65946  -0.00132  -0.05144  -0.02548  -0.07689  -0.73635
    D3       -2.81865  -0.00016  -0.06149  -0.00266  -0.06416  -2.88281
    D4        1.34443   0.00030   0.00884   0.01940   0.02824   1.37267
    D5       -2.85721  -0.00056   0.00658   0.02086   0.02744  -2.82977
    D6       -0.75807   0.00101   0.00619   0.02593   0.03213  -0.72594
    D7        2.79622   0.00067  -0.00208  -0.04059  -0.04268   2.75354
    D8        0.68620   0.00014   0.00439  -0.05349  -0.04910   0.63710
    D9       -1.35082  -0.00183   0.01031  -0.07089  -0.06058  -1.41140
   D10        0.65312   0.00029   0.12182  -0.03414   0.08768   0.74080
   D11        2.77417   0.00102   0.11715  -0.02384   0.09331   2.86748
   D12       -1.47451   0.00271   0.11203  -0.00852   0.10352  -1.37099
         Item               Value     Threshold  Converged?
 Maximum Force            0.002706     0.000450     NO 
 RMS     Force            0.001056     0.000300     NO 
 Maximum Displacement     0.103303     0.001800     NO 
 RMS     Displacement     0.042119     0.001200     NO 
 Predicted change in Energy=-1.853267D-04
 GradGradGradGradGradGradGradGradGradGradGradGradGradGradGradGradGradGrad

                          Input orientation:                          
 ---------------------------------------------------------------------
 Center     Atomic      Atomic             Coordinates (Angstroms)
 Number     Number       Type             X           Y           Z
 ---------------------------------------------------------------------
      1         42           0        2.146646    0.594508    0.348897
      2         16           0        0.494098   -0.701682   -0.563462
      3          1           0       -0.569776    0.140654   -0.565180
      4         16           0        1.912325    0.817512    2.606175
      5          1           0        2.395218   -0.355818    3.091548
      6         16           0        2.017195    2.692360   -0.543663
      7          1           0        2.645066    3.467195    0.377777
      8         16           0        4.182547   -0.382565   -0.030986
      9          1           0        4.090616   -0.799872   -1.320766
 ---------------------------------------------------------------------
                    Distance matrix (angstroms):
                    1          2          3          4          5
     1  Mo   0.000000
     2  S    2.289852   0.000000
     3  H    2.901805   1.356967   0.000000
     4  S    2.280337   3.790240   4.083682   0.000000
     5  H    2.913252   4.134365   4.733850   1.358484   0.000000
     6  S    2.283506   3.720179   3.633742   3.667087   4.759102
     7  H    2.915748   4.784572   4.721256   3.538854   4.694935
     8  S    2.289951   3.740324   4.810789   3.680857   3.597982
     9  H    2.917378   3.676696   4.814016   4.773023   4.747638
                    6          7          8          9
     6  S    0.000000
     7  H    1.357809   0.000000
     8  S    3.795623   4.165524   0.000000
     9  H    4.135051   4.814823   1.358723   0.000000
 Symmetry turned off by external request.
 Stoichiometry    H4MoS4
 Framework group  C1[X(H4MoS4)]
 Deg. of freedom    21
 Full point group                 C1      NOp   1
 Rotational constants (GHZ):           1.0991475           1.0963042           1.0440580
 Basis read from rwf:  (5D, 7F)
 Pseudo-potential data read from rwf file.
   114 basis functions,   285 primitive gaussians,   120 cartesian basis functions
    41 alpha electrons       41 beta electrons
       nuclear repulsion energy       485.6779794499 Hartrees.
 NAtoms=    9 NActive=    9 NUniq=    9 SFac= 1.00D+00 NAtFMM=   60 NAOKFM=F Big=F
 Integral buffers will be    131072 words long.
 Raffenetti 2 integral format.
 Two-electron integral symmetry is turned off.
 One-electron integrals computed using PRISM.
   1 Symmetry operations used in ECPInt.
 ECPInt:  NShTT=     820 NPrTT=    5722 LenC2=     795 LenP2D=    4157.
 LDataN:  DoStor=T MaxTD1= 5 Len=  102
 NBasis=   114 RedAO= T EigKep=  5.47D-03  NBF=   114
 NBsUse=   114 1.00D-06 EigRej= -1.00D+00 NBFU=   114
 Defaulting to unpruned grid for atomic number  42.
 Lowest energy guess from the checkpoint file:  "/localscratch/chesayan/sagar/Gau-60525.chk"
 B after Tr=     0.012161    0.015439    0.002883
         Rot=    0.999998   -0.001858   -0.000564   -0.000824 Ang=  -0.24 deg.
 B after Tr=    -0.008079    0.028749   -0.034793
         Rot=    0.999970    0.002585    0.003934    0.006204 Ang=   0.89 deg.
 Keep R1 ints in memory in canonical form, NReq=36643870.
 Requested convergence on RMS density matrix=1.00D-08 within 128 cycles.
 Requested convergence on MAX density matrix=1.00D-06.
 Requested convergence on             energy=1.00D-06.
 No special actions if energy rises.
 Defaulting to unpruned grid for atomic number  42.
 Defaulting to unpruned grid for atomic number  42.
 Defaulting to unpruned grid for atomic number  42.
 Defaulting to unpruned grid for atomic number  42.
 Defaulting to unpruned grid for atomic number  42.
 Defaulting to unpruned grid for atomic number  42.
 Defaulting to unpruned grid for atomic number  42.
 Defaulting to unpruned grid for atomic number  42.
 Defaulting to unpruned grid for atomic number  42.
 Defaulting to unpruned grid for atomic number  42.
 Defaulting to unpruned grid for atomic number  42.
 Defaulting to unpruned grid for atomic number  42.
 Defaulting to unpruned grid for atomic number  42.
 Defaulting to unpruned grid for atomic number  42.
 Defaulting to unpruned grid for atomic number  42.
 Defaulting to unpruned grid for atomic number  42.
 SCF Done:  E(RB3LYP) =  -1662.78064101     A.U. after   14 cycles
            NFock= 14  Conv=0.32D-08     -V/T= 2.0300
   1 Symmetry operations used in ECPInt.
 ECPInt:  NShTT=     820 NPrTT=    5722 LenC2=     795 LenP2D=    4157.
 LDataN:  DoStor=T MaxTD1= 6 Len=  172
 Calling FoFJK, ICntrl=      2127 FMM=F ISym2X=0 I1Cent= 0 IOpClX= 0 NMat=1 NMatS=1 NMatT=0.
 Defaulting to unpruned grid for atomic number  42.
 Defaulting to unpruned grid for atomic number  42.
 Defaulting to unpruned grid for atomic number  42.
 Defaulting to unpruned grid for atomic number  42.
 Defaulting to unpruned grid for atomic number  42.
 Defaulting to unpruned grid for atomic number  42.
 Defaulting to unpruned grid for atomic number  42.
 Defaulting to unpruned grid for atomic number  42.
 Defaulting to unpruned grid for atomic number  42.
 Defaulting to unpruned grid for atomic number  42.
 Defaulting to unpruned grid for atomic number  42.
 Defaulting to unpruned grid for atomic number  42.
 Defaulting to unpruned grid for atomic number  42.
 Defaulting to unpruned grid for atomic number  42.
 Defaulting to unpruned grid for atomic number  42.
 Defaulting to unpruned grid for atomic number  42.
 -------------------------------------------------------------------
 Center     Atomic                   Forces (Hartrees/Bohr)
 Number     Number              X              Y              Z
 -------------------------------------------------------------------
      1       42           0.000691035   -0.000757920   -0.000082744
      2       16           0.000734349    0.000048612    0.000012338
      3        1          -0.000238618    0.000042729   -0.000169501
      4       16           0.000379416   -0.000065910    0.000210968
      5        1          -0.000398827   -0.000070865    0.000016764
      6       16          -0.001208096    0.000958419   -0.000151902
      7        1           0.000682126   -0.000338536   -0.000317459
      8       16          -0.000217768   -0.000152893    0.000037918
      9        1          -0.000423617    0.000336365    0.000443617
 -------------------------------------------------------------------
 Cartesian Forces:  Max     0.001208096 RMS     0.000459013

 GradGradGradGradGradGradGradGradGradGradGradGradGradGradGradGradGradGrad
 Berny optimization.
 Using GEDIIS/GDIIS optimizer.
 FormGI is forming the generalized inverse of G from B-inverse, IUseBI=4.
 Internal  Forces:  Max     0.001266978 RMS     0.000473942
 Search for a local minimum.
 Step number   3 out of a maximum of   40
 All quantities printed in internal units (Hartrees-Bohrs-Radians)
 Mixed Optimization -- En-DIIS/RFO-DIIS
 Update second derivatives using D2CorX and points    2    1    3
 DE= -1.17D-04 DEPred=-1.85D-04 R= 6.31D-01
 TightC=F SS=  1.41D+00  RLast= 1.93D-01 DXNew= 2.5227D-01 5.8024D-01
 Trust test= 6.31D-01 RLast= 1.93D-01 DXMaxT set to 2.52D-01
 ITU=  1 -1  0
 Use linear search instead of GDIIS.
     Eigenvalues ---    0.00225   0.00230   0.00516   0.01066   0.04789
     Eigenvalues ---    0.10094   0.10767   0.14660   0.15902   0.16000
     Eigenvalues ---    0.16088   0.16204   0.16348   0.16478   0.17515
     Eigenvalues ---    0.19789   0.20364   0.24964   0.25058   0.25103
     Eigenvalues ---    0.25364
 RFO step:  Lambda=-2.39152496D-04 EMin= 2.25338247D-03
 Quartic linear search produced a step of -0.26991.
 Iteration  1 RMS(Cart)=  0.04922033 RMS(Int)=  0.00230524
 Iteration  2 RMS(Cart)=  0.00199336 RMS(Int)=  0.00004416
 Iteration  3 RMS(Cart)=  0.00000285 RMS(Int)=  0.00004413
 Iteration  4 RMS(Cart)=  0.00000000 RMS(Int)=  0.00004413
 Variable       Old X    -DE/DX   Delta X   Delta X   Delta X     New X
                                 (Linear)    (Quad)   (Total)
    R1        4.32719  -0.00035   0.00293  -0.01308  -0.01015   4.31704
    R2        4.30921   0.00021  -0.00065   0.00361   0.00296   4.31217
    R3        4.31520   0.00078   0.00137  -0.00190  -0.00053   4.31468
    R4        4.32738  -0.00073  -0.00243   0.00669   0.00426   4.33164
    R5        2.56430   0.00021   0.00005   0.00039   0.00044   2.56474
    R6        2.56716  -0.00007   0.00019  -0.00097  -0.00078   2.56638
    R7        2.56589  -0.00009  -0.00006   0.00002  -0.00004   2.56584
    R8        2.56762  -0.00050  -0.00128   0.00333   0.00206   2.56967
    A1        1.95585   0.00032  -0.00346   0.01413   0.01072   1.96656
    A2        1.90010  -0.00031   0.00247  -0.01220  -0.00982   1.89028
    A3        1.91134  -0.00054   0.00549  -0.02474  -0.01931   1.89203
    A4        1.86633   0.00015  -0.00286   0.01301   0.01015   1.87648
    A5        1.87266  -0.00011  -0.00399   0.01614   0.01216   1.88482
    A6        1.95794   0.00053   0.00185  -0.00477  -0.00306   1.95488
    A7        1.78742   0.00045  -0.00010   0.00290   0.00280   1.79021
    A8        1.80563   0.00018   0.00052  -0.00237  -0.00184   1.80379
    A9        1.80574  -0.00054   0.00256  -0.01359  -0.01103   1.79471
   A10        1.80120  -0.00127  -0.00704   0.02174   0.01470   1.81589
    D1        1.32443   0.00025  -0.00471  -0.00549  -0.01019   1.31424
    D2       -0.73635   0.00007  -0.00067  -0.02228  -0.02287  -0.75922
    D3       -2.88281  -0.00004  -0.00830   0.00725  -0.00114  -2.88395
    D4        1.37267  -0.00048  -0.00394  -0.05222  -0.05616   1.31651
    D5       -2.82977  -0.00057  -0.00466  -0.05074  -0.05542  -2.88518
    D6       -0.72594   0.00007  -0.00609  -0.04064  -0.04672  -0.77267
    D7        2.75354   0.00094   0.01065   0.10703   0.11766   2.87120
    D8        0.63710   0.00064   0.01508   0.08937   0.10446   0.74156
    D9       -1.41140   0.00039   0.02065   0.06440   0.08505  -1.32635
   D10        0.74080  -0.00014   0.02708  -0.02139   0.00574   0.74653
   D11        2.86748  -0.00013   0.02362  -0.00892   0.01467   2.88215
   D12       -1.37099   0.00028   0.01872   0.01421   0.03291  -1.33808
         Item               Value     Threshold  Converged?
 Maximum Force            0.001267     0.000450     NO 
 RMS     Force            0.000474     0.000300     NO 
 Maximum Displacement     0.148192     0.001800     NO 
 RMS     Displacement     0.049443     0.001200     NO 
 Predicted change in Energy=-1.390613D-04
 GradGradGradGradGradGradGradGradGradGradGradGradGradGradGradGradGradGrad

                          Input orientation:                          
 ---------------------------------------------------------------------
 Center     Atomic      Atomic             Coordinates (Angstroms)
 Number     Number       Type             X           Y           Z
 ---------------------------------------------------------------------
      1         42           0        2.139386    0.604321    0.372150
      2         16           0        0.515394   -0.704397   -0.559924
      3          1           0       -0.566559    0.114905   -0.549200
      4         16           0        1.908578    0.816585    2.632404
      5          1           0        2.340599   -0.380852    3.105542
      6         16           0        1.983768    2.694371   -0.533723
      7          1           0        2.723486    3.448521    0.319305
      8         16           0        4.175549   -0.362700   -0.043923
      9          1           0        4.093734   -0.758463   -1.342293
 ---------------------------------------------------------------------
                    Distance matrix (angstroms):
                    1          2          3          4          5
     1  Mo   0.000000
     2  S    2.284481   0.000000
     3  H    2.900095   1.357201   0.000000
     4  S    2.281903   3.800698   4.091609   0.000000
     5  H    2.912471   4.107517   4.696220   1.358070   0.000000
     6  S    2.283228   3.702489   3.627403   3.681861   4.777925
     7  H    2.904038   4.784918   4.763580   3.597442   4.751191
     8  S    2.292206   3.712108   4.792808   3.700351   3.645065
     9  H    2.935297   3.663269   4.807297   4.801447   4.795759
                    6          7          8          9
     6  S    0.000000
     7  H    1.357786   0.000000
     8  S    3.793348   4.094610   0.000000
     9  H    4.126475   4.726224   1.359811   0.000000
 Symmetry turned off by external request.
 Stoichiometry    H4MoS4
 Framework group  C1[X(H4MoS4)]
 Deg. of freedom    21
 Full point group                 C1      NOp   1
 Rotational constants (GHZ):           1.0991201           1.0959816           1.0452908
 Basis read from rwf:  (5D, 7F)
 Pseudo-potential data read from rwf file.
   114 basis functions,   285 primitive gaussians,   120 cartesian basis functions
    41 alpha electrons       41 beta electrons
       nuclear repulsion energy       485.7231404949 Hartrees.
 NAtoms=    9 NActive=    9 NUniq=    9 SFac= 1.00D+00 NAtFMM=   60 NAOKFM=F Big=F
 Integral buffers will be    131072 words long.
 Raffenetti 2 integral format.
 Two-electron integral symmetry is turned off.
 One-electron integrals computed using PRISM.
   1 Symmetry operations used in ECPInt.
 ECPInt:  NShTT=     820 NPrTT=    5722 LenC2=     795 LenP2D=    4158.
 LDataN:  DoStor=T MaxTD1= 5 Len=  102
 NBasis=   114 RedAO= T EigKep=  5.53D-03  NBF=   114
 NBsUse=   114 1.00D-06 EigRej= -1.00D+00 NBFU=   114
 Defaulting to unpruned grid for atomic number  42.
 Initial guess from the checkpoint file:  "/localscratch/chesayan/sagar/Gau-60525.chk"
 B after Tr=    -0.003263   -0.020517    0.031596
         Rot=    0.999989   -0.001388   -0.001420   -0.004191 Ang=  -0.53 deg.
 ExpMin= 2.47D-02 ExpMax= 2.19D+04 ExpMxC= 3.30D+03 IAcc=3 IRadAn=         5 AccDes= 0.00D+00
 Harris functional with IExCor=  402 and IRadAn=       5 diagonalized for initial guess.
 HarFok:  IExCor=  402 AccDes= 0.00D+00 IRadAn=         5 IDoV= 1 UseB2=F ITyADJ=14
 ICtDFT=  3500011 ScaDFX=  1.000000  1.000000  1.000000  1.000000
 Defaulting to unpruned grid for atomic number  42.
 FoFCou: FMM=F IPFlag=           0 FMFlag=      100000 FMFlg1=           0
         NFxFlg=           0 DoJE=T BraDBF=F KetDBF=T FulRan=T
         wScrn=  0.000000 ICntrl=       500 IOpCl=  0 I1Cent=   200000004 NGrid=           0
         NMat0=    1 NMatS0=      1 NMatT0=    0 NMatD0=    1 NMtDS0=    0 NMtDT0=    0
 Symmetry not used in FoFCou.
 Keep R1 ints in memory in canonical form, NReq=36643870.
 Requested convergence on RMS density matrix=1.00D-08 within 128 cycles.
 Requested convergence on MAX density matrix=1.00D-06.
 Requested convergence on             energy=1.00D-06.
 No special actions if energy rises.
 Defaulting to unpruned grid for atomic number  42.
 Defaulting to unpruned grid for atomic number  42.
 Defaulting to unpruned grid for atomic number  42.
 Defaulting to unpruned grid for atomic number  42.
 Defaulting to unpruned grid for atomic number  42.
 Defaulting to unpruned grid for atomic number  42.
 Defaulting to unpruned grid for atomic number  42.
 Defaulting to unpruned grid for atomic number  42.
 Defaulting to unpruned grid for atomic number  42.
 Defaulting to unpruned grid for atomic number  42.
 Defaulting to unpruned grid for atomic number  42.
 Defaulting to unpruned grid for atomic number  42.
 Defaulting to unpruned grid for atomic number  42.
 Defaulting to unpruned grid for atomic number  42.
 Defaulting to unpruned grid for atomic number  42.
 Defaulting to unpruned grid for atomic number  42.
 SCF Done:  E(RB3LYP) =  -1662.78069424     A.U. after   14 cycles
            NFock= 14  Conv=0.48D-08     -V/T= 2.0300
   1 Symmetry operations used in ECPInt.
 ECPInt:  NShTT=     820 NPrTT=    5722 LenC2=     795 LenP2D=    4158.
 LDataN:  DoStor=T MaxTD1= 6 Len=  172
 Calling FoFJK, ICntrl=      2127 FMM=F ISym2X=0 I1Cent= 0 IOpClX= 0 NMat=1 NMatS=1 NMatT=0.
 Defaulting to unpruned grid for atomic number  42.
 Defaulting to unpruned grid for atomic number  42.
 Defaulting to unpruned grid for atomic number  42.
 Defaulting to unpruned grid for atomic number  42.
 Defaulting to unpruned grid for atomic number  42.
 Defaulting to unpruned grid for atomic number  42.
 Defaulting to unpruned grid for atomic number  42.
 Defaulting to unpruned grid for atomic number  42.
 Defaulting to unpruned grid for atomic number  42.
 Defaulting to unpruned grid for atomic number  42.
 Defaulting to unpruned grid for atomic number  42.
 Defaulting to unpruned grid for atomic number  42.
 Defaulting to unpruned grid for atomic number  42.
 Defaulting to unpruned grid for atomic number  42.
 Defaulting to unpruned grid for atomic number  42.
 Defaulting to unpruned grid for atomic number  42.
 -------------------------------------------------------------------
 Center     Atomic                   Forces (Hartrees/Bohr)
 Number     Number              X              Y              Z
 -------------------------------------------------------------------
      1       42           0.002918949   -0.001075319   -0.001354355
      2       16          -0.000263184    0.000323710    0.000616017
      3        1          -0.000578341   -0.000170354   -0.000501888
      4       16          -0.000606211   -0.000650822    0.000651315
      5        1           0.000326734    0.000171455    0.000151616
      6       16           0.000103462    0.000341754   -0.000366547
      7        1          -0.000183807    0.000270229    0.000039582
      8       16          -0.001047666    0.000364462   -0.000203191
      9        1          -0.000669936    0.000424884    0.000967450
 -------------------------------------------------------------------
 Cartesian Forces:  Max     0.002918949 RMS     0.000799570

 GradGradGradGradGradGradGradGradGradGradGradGradGradGradGradGradGradGrad
 Berny optimization.
 Using GEDIIS/GDIIS optimizer.
 FormGI is forming the generalized inverse of G from B-inverse, IUseBI=4.
 Internal  Forces:  Max     0.001997219 RMS     0.000719295
 Search for a local minimum.
 Step number   4 out of a maximum of   40
 All quantities printed in internal units (Hartrees-Bohrs-Radians)
 Mixed Optimization -- En-DIIS/RFO-DIIS
 Swapping is turned off.
 Update second derivatives using D2CorX and points    2    1    3    4
 DE= -5.32D-05 DEPred=-1.39D-04 R= 3.83D-01
 Trust test= 3.83D-01 RLast= 2.09D-01 DXMaxT set to 2.52D-01
 ITU=  0  1 -1  0
     Eigenvalues ---    0.00225   0.00243   0.00847   0.01065   0.03552
     Eigenvalues ---    0.10007   0.10618   0.14891   0.15898   0.16080
     Eigenvalues ---    0.16138   0.16216   0.16436   0.16659   0.19742
     Eigenvalues ---    0.20081   0.21673   0.24964   0.25063   0.25104
     Eigenvalues ---    0.26503
 En-DIIS/RFO-DIIS/Sim-DIIS IScMMF=       -3 using points:     4    3
 RFO step:  Lambda=-1.28119819D-04.
 DidBck=T Rises=F RFO-DIIS coefs:    0.70924    0.29076
 Iteration  1 RMS(Cart)=  0.02597540 RMS(Int)=  0.00057704
 Iteration  2 RMS(Cart)=  0.00051039 RMS(Int)=  0.00001964
 Iteration  3 RMS(Cart)=  0.00000014 RMS(Int)=  0.00001964
 Variable       Old X    -DE/DX   Delta X   Delta X   Delta X     New X
                                 (Linear)    (Quad)   (Total)
    R1        4.31704   0.00046   0.00295  -0.00133   0.00162   4.31866
    R2        4.31217   0.00078  -0.00086   0.00323   0.00237   4.31454
    R3        4.31468   0.00070   0.00015   0.00280   0.00296   4.31763
    R4        4.33164  -0.00200  -0.00124  -0.00561  -0.00685   4.32479
    R5        2.56474   0.00035  -0.00013   0.00092   0.00080   2.56553
    R6        2.56638   0.00001   0.00023  -0.00023  -0.00000   2.56638
    R7        2.56584   0.00007   0.00001   0.00008   0.00010   2.56594
    R8        2.56967  -0.00101  -0.00060  -0.00189  -0.00249   2.56719
    A1        1.96656  -0.00069  -0.00312  -0.00003  -0.00316   1.96340
    A2        1.89028  -0.00026   0.00286  -0.00377  -0.00087   1.88941
    A3        1.89203   0.00028   0.00561  -0.00499   0.00066   1.89269
    A4        1.87648   0.00060  -0.00295   0.00464   0.00169   1.87817
    A5        1.88482  -0.00007  -0.00354   0.00304  -0.00050   1.88431
    A6        1.95488   0.00013   0.00089   0.00124   0.00219   1.95707
    A7        1.79021   0.00167  -0.00081   0.00634   0.00553   1.79574
    A8        1.80379   0.00035   0.00054   0.00046   0.00100   1.80478
    A9        1.79471   0.00060   0.00321  -0.00171   0.00150   1.79620
   A10        1.81589  -0.00187  -0.00427  -0.00368  -0.00795   1.80794
    D1        1.31424   0.00037   0.00296   0.03036   0.03332   1.34756
    D2       -0.75922   0.00022   0.00665   0.02710   0.03371  -0.72551
    D3       -2.88395   0.00005   0.00033   0.03081   0.03118  -2.85277
    D4        1.31651   0.00039   0.01633   0.03443   0.05076   1.36727
    D5       -2.88518   0.00004   0.01611   0.03280   0.04892  -2.83627
    D6       -0.77267   0.00051   0.01359   0.03863   0.05221  -0.72046
    D7        2.87120  -0.00048  -0.03421   0.02220  -0.01200   2.85920
    D8        0.74156   0.00015  -0.03037   0.02169  -0.00869   0.73288
    D9       -1.32635  -0.00023  -0.02473   0.01432  -0.01041  -1.33676
   D10        0.74653   0.00009  -0.00167   0.00218   0.00048   0.74702
   D11        2.88215  -0.00062  -0.00427   0.00100  -0.00325   2.87889
   D12       -1.33808   0.00016  -0.00957   0.00934  -0.00021  -1.33829
         Item               Value     Threshold  Converged?
 Maximum Force            0.001997     0.000450     NO 
 RMS     Force            0.000719     0.000300     NO 
 Maximum Displacement     0.093648     0.001800     NO 
 RMS     Displacement     0.025930     0.001200     NO 
 Predicted change in Energy=-6.479508D-05
 GradGradGradGradGradGradGradGradGradGradGradGradGradGradGradGradGradGrad

                          Input orientation:                          
 ---------------------------------------------------------------------
 Center     Atomic      Atomic             Coordinates (Angstroms)
 Number     Number       Type             X           Y           Z
 ---------------------------------------------------------------------
      1         42           0        2.136802    0.600311    0.374482
      2         16           0        0.509453   -0.704816   -0.558872
      3          1           0       -0.563676    0.126137   -0.591209
      4         16           0        1.900020    0.807961    2.635815
      5          1           0        2.390156   -0.365330    3.112796
      6         16           0        1.983891    2.692193   -0.531567
      7          1           0        2.711556    3.449584    0.329005
      8         16           0        4.168002   -0.370829   -0.036282
      9          1           0        4.077731   -0.762918   -1.333829
 ---------------------------------------------------------------------
                    Distance matrix (angstroms):
                    1          2          3          4          5
     1  Mo   0.000000
     2  S    2.285338   0.000000
     3  H    2.906885   1.357621   0.000000
     4  S    2.283159   3.798447   4.116840   0.000000
     5  H    2.914621   4.139256   4.763015   1.358070   0.000000
     6  S    2.284793   3.703294   3.616393   3.686418   4.774398
     7  H    2.907021   4.785042   4.755969   3.599742   4.733536
     8  S    2.288582   3.710744   4.789958   3.697754   3.616276
     9  H    2.922999   3.651922   4.783781   4.792511   4.772678
                    6          7          8          9
     6  S    0.000000
     7  H    1.357837   0.000000
     8  S    3.794437   4.104902   0.000000
     9  H    4.118930   4.730394   1.358496   0.000000
 Symmetry turned off by external request.
 Stoichiometry    H4MoS4
 Framework group  C1[X(H4MoS4)]
 Deg. of freedom    21
 Full point group                 C1      NOp   1
 Rotational constants (GHZ):           1.0985102           1.0969013           1.0449816
 Basis read from rwf:  (5D, 7F)
 Pseudo-potential data read from rwf file.
   114 basis functions,   285 primitive gaussians,   120 cartesian basis functions
    41 alpha electrons       41 beta electrons
       nuclear repulsion energy       485.7289447690 Hartrees.
 NAtoms=    9 NActive=    9 NUniq=    9 SFac= 1.00D+00 NAtFMM=   60 NAOKFM=F Big=F
 Integral buffers will be    131072 words long.
 Raffenetti 2 integral format.
 Two-electron integral symmetry is turned off.
 One-electron integrals computed using PRISM.
   1 Symmetry operations used in ECPInt.
 ECPInt:  NShTT=     820 NPrTT=    5722 LenC2=     795 LenP2D=    4158.
 LDataN:  DoStor=T MaxTD1= 5 Len=  102
 NBasis=   114 RedAO= T EigKep=  5.51D-03  NBF=   114
 NBsUse=   114 1.00D-06 EigRej= -1.00D+00 NBFU=   114
 Defaulting to unpruned grid for atomic number  42.
 Initial guess from the checkpoint file:  "/localscratch/chesayan/sagar/Gau-60525.chk"
 B after Tr=    -0.008333   -0.000651   -0.001318
         Rot=    0.999999   -0.000302    0.000734    0.000831 Ang=  -0.13 deg.
 ExpMin= 2.47D-02 ExpMax= 2.19D+04 ExpMxC= 3.30D+03 IAcc=3 IRadAn=         5 AccDes= 0.00D+00
 Harris functional with IExCor=  402 and IRadAn=       5 diagonalized for initial guess.
 HarFok:  IExCor=  402 AccDes= 0.00D+00 IRadAn=         5 IDoV= 1 UseB2=F ITyADJ=14
 ICtDFT=  3500011 ScaDFX=  1.000000  1.000000  1.000000  1.000000
 Defaulting to unpruned grid for atomic number  42.
 FoFCou: FMM=F IPFlag=           0 FMFlag=      100000 FMFlg1=           0
         NFxFlg=           0 DoJE=T BraDBF=F KetDBF=T FulRan=T
         wScrn=  0.000000 ICntrl=       500 IOpCl=  0 I1Cent=   200000004 NGrid=           0
         NMat0=    1 NMatS0=      1 NMatT0=    0 NMatD0=    1 NMtDS0=    0 NMtDT0=    0
 Symmetry not used in FoFCou.
 Keep R1 ints in memory in canonical form, NReq=36643870.
 Requested convergence on RMS density matrix=1.00D-08 within 128 cycles.
 Requested convergence on MAX density matrix=1.00D-06.
 Requested convergence on             energy=1.00D-06.
 No special actions if energy rises.
 Defaulting to unpruned grid for atomic number  42.
 Defaulting to unpruned grid for atomic number  42.
 Defaulting to unpruned grid for atomic number  42.
 Defaulting to unpruned grid for atomic number  42.
 Defaulting to unpruned grid for atomic number  42.
 Defaulting to unpruned grid for atomic number  42.
 Defaulting to unpruned grid for atomic number  42.
 Defaulting to unpruned grid for atomic number  42.
 Defaulting to unpruned grid for atomic number  42.
 Defaulting to unpruned grid for atomic number  42.
 Defaulting to unpruned grid for atomic number  42.
 Defaulting to unpruned grid for atomic number  42.
 Defaulting to unpruned grid for atomic number  42.
 Defaulting to unpruned grid for atomic number  42.
 Defaulting to unpruned grid for atomic number  42.
 Defaulting to unpruned grid for atomic number  42.
 SCF Done:  E(RB3LYP) =  -1662.78075764     A.U. after   14 cycles
            NFock= 14  Conv=0.22D-08     -V/T= 2.0300
   1 Symmetry operations used in ECPInt.
 ECPInt:  NShTT=     820 NPrTT=    5722 LenC2=     795 LenP2D=    4158.
 LDataN:  DoStor=T MaxTD1= 6 Len=  172
 Calling FoFJK, ICntrl=      2127 FMM=F ISym2X=0 I1Cent= 0 IOpClX= 0 NMat=1 NMatS=1 NMatT=0.
 Defaulting to unpruned grid for atomic number  42.
 Defaulting to unpruned grid for atomic number  42.
 Defaulting to unpruned grid for atomic number  42.
 Defaulting to unpruned grid for atomic number  42.
 Defaulting to unpruned grid for atomic number  42.
 Defaulting to unpruned grid for atomic number  42.
 Defaulting to unpruned grid for atomic number  42.
 Defaulting to unpruned grid for atomic number  42.
 Defaulting to unpruned grid for atomic number  42.
 Defaulting to unpruned grid for atomic number  42.
 Defaulting to unpruned grid for atomic number  42.
 Defaulting to unpruned grid for atomic number  42.
 Defaulting to unpruned grid for atomic number  42.
 Defaulting to unpruned grid for atomic number  42.
 Defaulting to unpruned grid for atomic number  42.
 Defaulting to unpruned grid for atomic number  42.
 -------------------------------------------------------------------
 Center     Atomic                   Forces (Hartrees/Bohr)
 Number     Number              X              Y              Z
 -------------------------------------------------------------------
      1       42           0.001404061   -0.000127413   -0.000864302
      2       16          -0.000214620   -0.000250615   -0.000104350
      3        1          -0.000116425   -0.000029464   -0.000048394
      4       16           0.000124562   -0.000073078    0.000749620
      5        1          -0.000186745   -0.000041720   -0.000112424
      6       16           0.000015686   -0.000094854    0.000023880
      7        1          -0.000047911    0.000156370   -0.000084506
      8       16          -0.000634368    0.000307812    0.000128068
      9        1          -0.000344241    0.000152962    0.000312409
 -------------------------------------------------------------------
 Cartesian Forces:  Max     0.001404061 RMS     0.000399072

 GradGradGradGradGradGradGradGradGradGradGradGradGradGradGradGradGradGrad
 Berny optimization.
 Using GEDIIS/GDIIS optimizer.
 FormGI is forming the generalized inverse of G from B-inverse, IUseBI=4.
 Internal  Forces:  Max     0.001142651 RMS     0.000348631
 Search for a local minimum.
 Step number   5 out of a maximum of   40
 All quantities printed in internal units (Hartrees-Bohrs-Radians)
 Mixed Optimization -- En-DIIS/RFO-DIIS
 Swapping is turned off.
 Update second derivatives using D2CorX and points    2    1    3    4    5
 DE= -6.34D-05 DEPred=-6.48D-05 R= 9.79D-01
 TightC=F SS=  1.41D+00  RLast= 1.07D-01 DXNew= 4.2426D-01 3.2087D-01
 Trust test= 9.79D-01 RLast= 1.07D-01 DXMaxT set to 3.21D-01
 ITU=  1  0  1 -1  0
     Eigenvalues ---    0.00229   0.00464   0.00892   0.01015   0.03626
     Eigenvalues ---    0.10025   0.10379   0.14967   0.15351   0.15920
     Eigenvalues ---    0.16125   0.16352   0.16405   0.16550   0.17576
     Eigenvalues ---    0.19849   0.20307   0.24960   0.25062   0.25108
     Eigenvalues ---    0.25229
 En-DIIS/RFO-DIIS/Sim-DIIS IScMMF=       -3 using points:     5    4    3
 RFO step:  Lambda=-4.36799060D-05.
 DidBck=T Rises=F RFO-DIIS coefs:    0.57481    0.25817    0.16702
 Iteration  1 RMS(Cart)=  0.01376609 RMS(Int)=  0.00016246
 Iteration  2 RMS(Cart)=  0.00013143 RMS(Int)=  0.00000739
 Iteration  3 RMS(Cart)=  0.00000001 RMS(Int)=  0.00000739
 Variable       Old X    -DE/DX   Delta X   Delta X   Delta X     New X
                                 (Linear)    (Quad)   (Total)
    R1        4.31866   0.00046   0.00101   0.00003   0.00103   4.31970
    R2        4.31454   0.00063  -0.00150   0.00660   0.00509   4.31964
    R3        4.31763   0.00008  -0.00117   0.00277   0.00160   4.31924
    R4        4.32479  -0.00114   0.00220  -0.01043  -0.00823   4.31656
    R5        2.56553   0.00007  -0.00041   0.00114   0.00073   2.56626
    R6        2.56638  -0.00007   0.00013  -0.00053  -0.00040   2.56598
    R7        2.56594   0.00001  -0.00003   0.00014   0.00010   2.56605
    R8        2.56719  -0.00032   0.00071  -0.00256  -0.00185   2.56533
    A1        1.96340  -0.00014  -0.00045  -0.00000  -0.00045   1.96295
    A2        1.88941  -0.00009   0.00201  -0.00512  -0.00309   1.88632
    A3        1.89269  -0.00006   0.00294  -0.00790  -0.00494   1.88775
    A4        1.87817   0.00031  -0.00241   0.00766   0.00524   1.88341
    A5        1.88431  -0.00014  -0.00182   0.00386   0.00203   1.88634
    A6        1.95707   0.00011  -0.00042   0.00169   0.00129   1.95836
    A7        1.79574   0.00027  -0.00282   0.00786   0.00504   1.80078
    A8        1.80478  -0.00021  -0.00012  -0.00109  -0.00120   1.80358
    A9        1.79620   0.00047   0.00121  -0.00051   0.00070   1.79690
   A10        1.80794  -0.00093   0.00093  -0.00610  -0.00517   1.80277
    D1        1.34756   0.00018  -0.01247   0.01940   0.00693   1.35449
    D2       -0.72551  -0.00006  -0.01051   0.01325   0.00273  -0.72278
    D3       -2.85277  -0.00011  -0.01307   0.01897   0.00592  -2.84685
    D4        1.36727  -0.00025  -0.01220  -0.01544  -0.02764   1.33962
    D5       -2.83627  -0.00024  -0.01154  -0.01677  -0.02832  -2.86459
    D6       -0.72046  -0.00000  -0.01439  -0.00819  -0.02258  -0.74304
    D7        2.85920  -0.00001  -0.01455   0.00077  -0.01377   2.84543
    D8        0.73288   0.00003  -0.01375  -0.00075  -0.01450   0.71838
    D9       -1.33676  -0.00007  -0.00978  -0.01134  -0.02112  -1.35788
   D10        0.74702  -0.00000  -0.00116  -0.00788  -0.00906   0.73796
   D11        2.87889  -0.00028  -0.00107  -0.01026  -0.01132   2.86757
   D12       -1.33829   0.00008  -0.00541   0.00261  -0.00279  -1.34108
         Item               Value     Threshold  Converged?
 Maximum Force            0.001143     0.000450     NO 
 RMS     Force            0.000349     0.000300     NO 
 Maximum Displacement     0.032464     0.001800     NO 
 RMS     Displacement     0.013752     0.001200     NO 
 Predicted change in Energy=-2.183101D-05
 GradGradGradGradGradGradGradGradGradGradGradGradGradGradGradGradGradGrad

                          Input orientation:                          
 ---------------------------------------------------------------------
 Center     Atomic      Atomic             Coordinates (Angstroms)
 Number     Number       Type             X           Y           Z
 ---------------------------------------------------------------------
      1         42           0        2.146581    0.604756    0.377448
      2         16           0        0.519409   -0.703289   -0.553465
      3          1           0       -0.556951    0.123733   -0.594305
      4         16           0        1.912977    0.810367    2.642019
      5          1           0        2.372977   -0.377033    3.113463
      6         16           0        1.988045    2.693025   -0.538060
      7          1           0        2.699074    3.459908    0.328082
      8         16           0        4.169603   -0.369951   -0.040912
      9          1           0        4.062218   -0.769224   -1.333932
 ---------------------------------------------------------------------
                    Distance matrix (angstroms):
                    1          2          3          4          5
     1  Mo   0.000000
     2  S    2.285885   0.000000
     3  H    2.912863   1.358008   0.000000
     4  S    2.285854   3.800566   4.128656   0.000000
     5  H    2.915638   4.121713   4.752134   1.357857   0.000000
     6  S    2.285641   3.700281   3.616826   3.696341   4.786131
     7  H    2.908535   4.781242   4.752111   3.604486   4.752557
     8  S    2.284227   3.701046   4.784378   3.699138   3.630151
     9  H    2.913126   3.628356   4.762472   4.787747   4.773539
                    6          7          8          9
     6  S    0.000000
     7  H    1.357893   0.000000
     8  S    3.793175   4.119033   0.000000
     9  H    4.113730   4.744050   1.357516   0.000000
 Symmetry turned off by external request.
 Stoichiometry    H4MoS4
 Framework group  C1[X(H4MoS4)]
 Deg. of freedom    21
 Full point group                 C1      NOp   1
 Rotational constants (GHZ):           1.0990035           1.0966546           1.0449470
 Basis read from rwf:  (5D, 7F)
 Pseudo-potential data read from rwf file.
   114 basis functions,   285 primitive gaussians,   120 cartesian basis functions
    41 alpha electrons       41 beta electrons
       nuclear repulsion energy       485.7464965686 Hartrees.
 NAtoms=    9 NActive=    9 NUniq=    9 SFac= 1.00D+00 NAtFMM=   60 NAOKFM=F Big=F
 Integral buffers will be    131072 words long.
 Raffenetti 2 integral format.
 Two-electron integral symmetry is turned off.
 One-electron integrals computed using PRISM.
   1 Symmetry operations used in ECPInt.
 ECPInt:  NShTT=     820 NPrTT=    5722 LenC2=     795 LenP2D=    4158.
 LDataN:  DoStor=T MaxTD1= 5 Len=  102
 NBasis=   114 RedAO= T EigKep=  5.51D-03  NBF=   114
 NBsUse=   114 1.00D-06 EigRej= -1.00D+00 NBFU=   114
 Defaulting to unpruned grid for atomic number  42.
 Initial guess from the checkpoint file:  "/localscratch/chesayan/sagar/Gau-60525.chk"
 B after Tr=     0.012920    0.003306    0.012046
         Rot=    0.999999    0.000552   -0.001060   -0.000062 Ang=   0.14 deg.
 ExpMin= 2.47D-02 ExpMax= 2.19D+04 ExpMxC= 3.30D+03 IAcc=3 IRadAn=         5 AccDes= 0.00D+00
 Harris functional with IExCor=  402 and IRadAn=       5 diagonalized for initial guess.
 HarFok:  IExCor=  402 AccDes= 0.00D+00 IRadAn=         5 IDoV= 1 UseB2=F ITyADJ=14
 ICtDFT=  3500011 ScaDFX=  1.000000  1.000000  1.000000  1.000000
 Defaulting to unpruned grid for atomic number  42.
 FoFCou: FMM=F IPFlag=           0 FMFlag=      100000 FMFlg1=           0
         NFxFlg=           0 DoJE=T BraDBF=F KetDBF=T FulRan=T
         wScrn=  0.000000 ICntrl=       500 IOpCl=  0 I1Cent=   200000004 NGrid=           0
         NMat0=    1 NMatS0=      1 NMatT0=    0 NMatD0=    1 NMtDS0=    0 NMtDT0=    0
 Symmetry not used in FoFCou.
 Keep R1 ints in memory in canonical form, NReq=36643870.
 Requested convergence on RMS density matrix=1.00D-08 within 128 cycles.
 Requested convergence on MAX density matrix=1.00D-06.
 Requested convergence on             energy=1.00D-06.
 No special actions if energy rises.
 Defaulting to unpruned grid for atomic number  42.
 Defaulting to unpruned grid for atomic number  42.
 Defaulting to unpruned grid for atomic number  42.
 Defaulting to unpruned grid for atomic number  42.
 Defaulting to unpruned grid for atomic number  42.
 Defaulting to unpruned grid for atomic number  42.
 Defaulting to unpruned grid for atomic number  42.
 Defaulting to unpruned grid for atomic number  42.
 Defaulting to unpruned grid for atomic number  42.
 Defaulting to unpruned grid for atomic number  42.
 Defaulting to unpruned grid for atomic number  42.
 Defaulting to unpruned grid for atomic number  42.
 Defaulting to unpruned grid for atomic number  42.
 Defaulting to unpruned grid for atomic number  42.
 Defaulting to unpruned grid for atomic number  42.
 Defaulting to unpruned grid for atomic number  42.
 SCF Done:  E(RB3LYP) =  -1662.78076801     A.U. after   13 cycles
            NFock= 13  Conv=0.28D-08     -V/T= 2.0300
   1 Symmetry operations used in ECPInt.
 ECPInt:  NShTT=     820 NPrTT=    5722 LenC2=     795 LenP2D=    4158.
 LDataN:  DoStor=T MaxTD1= 6 Len=  172
 Calling FoFJK, ICntrl=      2127 FMM=F ISym2X=0 I1Cent= 0 IOpClX= 0 NMat=1 NMatS=1 NMatT=0.
 Defaulting to unpruned grid for atomic number  42.
 Defaulting to unpruned grid for atomic number  42.
 Defaulting to unpruned grid for atomic number  42.
 Defaulting to unpruned grid for atomic number  42.
 Defaulting to unpruned grid for atomic number  42.
 Defaulting to unpruned grid for atomic number  42.
 Defaulting to unpruned grid for atomic number  42.
 Defaulting to unpruned grid for atomic number  42.
 Defaulting to unpruned grid for atomic number  42.
 Defaulting to unpruned grid for atomic number  42.
 Defaulting to unpruned grid for atomic number  42.
 Defaulting to unpruned grid for atomic number  42.
 Defaulting to unpruned grid for atomic number  42.
 Defaulting to unpruned grid for atomic number  42.
 Defaulting to unpruned grid for atomic number  42.
 Defaulting to unpruned grid for atomic number  42.
 -------------------------------------------------------------------
 Center     Atomic                   Forces (Hartrees/Bohr)
 Number     Number              X              Y              Z
 -------------------------------------------------------------------
      1       42          -0.000249516   -0.000080774   -0.000045609
      2       16          -0.000021672    0.000229480   -0.000127648
      3        1           0.000028859   -0.000115178    0.000160832
      4       16          -0.000342875    0.000064249   -0.000095560
      5        1           0.000164431   -0.000008617   -0.000132390
      6       16          -0.000074907   -0.000011574    0.000362238
      7        1           0.000112524    0.000083898   -0.000232736
      8       16           0.000586983   -0.000060909    0.000246770
      9        1          -0.000203827   -0.000100575   -0.000135897
 -------------------------------------------------------------------
 Cartesian Forces:  Max     0.000586983 RMS     0.000196810

 GradGradGradGradGradGradGradGradGradGradGradGradGradGradGradGradGradGrad
 Berny optimization.
 Using GEDIIS/GDIIS optimizer.
 FormGI is forming the generalized inverse of G from B-inverse, IUseBI=4.
 Internal  Forces:  Max     0.000452932 RMS     0.000189294
 Search for a local minimum.
 Step number   6 out of a maximum of   40
 All quantities printed in internal units (Hartrees-Bohrs-Radians)
 Mixed Optimization -- En-DIIS/RFO-DIIS
 Swapping is turned off.
[...]
 Total Bot       0.272917D+00         -0.563969         -1.298587
 Total V=0       0.671310D+17         16.826923         38.745423
 Vib (Bot)       0.257653D-14        -14.588964        -33.592332
 Vib (Bot)    1  0.228059D+01          0.358048          0.824436
 Vib (Bot)    2  0.226970D+01          0.355968          0.819648
 Vib (Bot)    3  0.213081D+01          0.328545          0.756503
 Vib (Bot)    4  0.184614D+01          0.266264          0.613096
 Vib (Bot)    5  0.169086D+01          0.228109          0.525240
 Vib (Bot)    6  0.806591D+00         -0.093347         -0.214939
 Vib (Bot)    7  0.552019D+00         -0.258046         -0.594173
 Vib (Bot)    8  0.498859D+00         -0.302022         -0.695431
 Vib (Bot)    9  0.461174D+00         -0.336135         -0.773980
 Vib (Bot)   10  0.460971D+00         -0.336326         -0.774419
 Vib (Bot)   11  0.424810D+00         -0.371805         -0.856112
 Vib (Bot)   12  0.413013D+00         -0.384036         -0.884276
 Vib (Bot)   13  0.410889D+00         -0.386275         -0.889431
 Vib (V=0)       0.633765D+03          2.801928          6.451678
 Vib (V=0)    1  0.283476D+01          0.452517          1.041958
 Vib (V=0)    2  0.282412D+01          0.450883          1.038197
 Vib (V=0)    3  0.268869D+01          0.429540          0.989053
 Vib (V=0)    4  0.241265D+01          0.382494          0.880725
 Vib (V=0)    5  0.226324D+01          0.354731          0.816798
 Vib (V=0)    6  0.144899D+01          0.161066          0.370869
 Vib (V=0)    7  0.124480D+01          0.095099          0.218974
 Vib (V=0)    8  0.120630D+01          0.081456          0.187558
 Vib (V=0)    9  0.118021D+01          0.071958          0.165690
 Vib (V=0)   10  0.118007D+01          0.071908          0.165573
 Vib (V=0)   11  0.115610D+01          0.062994          0.145050
 Vib (V=0)   12  0.114852D+01          0.060139          0.138475
 Vib (V=0)   13  0.114717D+01          0.059628          0.137299
 Electronic      0.100000D+01          0.000000          0.000000
 Translational   0.136946D+09          8.136550         18.735099
 Rotational      0.773473D+06          5.888445         13.558646
 -------------------------------------------------------------------
 Center     Atomic                   Forces (Hartrees/Bohr)
 Number     Number              X              Y              Z
 -------------------------------------------------------------------
      1       42          -0.000002432    0.000055198   -0.000002312
      2       16          -0.000007637   -0.000007652    0.000007069
      3        1           0.000002048    0.000002397    0.000004880
      4       16          -0.000014759   -0.000014848    0.000008086
      5        1           0.000003690   -0.000001976   -0.000006831
      6       16           0.000000871   -0.000024277   -0.000004996
      7        1           0.000001627    0.000006019    0.000003334
      8       16           0.000012012   -0.000013316   -0.000010844
      9        1           0.000004580   -0.000001546    0.000001613
 -------------------------------------------------------------------
 Cartesian Forces:  Max     0.000055198 RMS     0.000013549
 FormGI is forming the generalized inverse of G from B-inverse, IUseBI=4.

 GradGradGradGradGradGradGradGradGradGradGradGradGradGradGradGradGradGrad
 Berny optimization.
 Internal  Forces:  Max     0.000034178 RMS     0.000013085
 Search for a local minimum.
 Step number   1 out of a maximum of    2
 All quantities printed in internal units (Hartrees-Bohrs-Radians)
 Second derivative matrix not updated -- analytic derivatives used.
 ITU=  0
     Eigenvalues ---    0.00411   0.00850   0.00888   0.00901   0.03786
     Eigenvalues ---    0.03789   0.04650   0.05708   0.07573   0.08978
     Eigenvalues ---    0.08997   0.10554   0.11017   0.14656   0.14660
     Eigenvalues ---    0.16827   0.17328   0.24992   0.25015   0.25029
     Eigenvalues ---    0.25101
 Angle between quadratic step and forces=  40.43 degrees.
 Linear search not attempted -- first point.
 Iteration  1 RMS(Cart)=  0.00070776 RMS(Int)=  0.00000019
 Iteration  2 RMS(Cart)=  0.00000022 RMS(Int)=  0.00000005
 Variable       Old X    -DE/DX   Delta X   Delta X   Delta X     New X
                                 (Linear)    (Quad)   (Total)
    R1        4.31903   0.00000   0.00000  -0.00002  -0.00002   4.31902
    R2        4.31891   0.00000   0.00000   0.00009   0.00009   4.31901
    R3        4.31916  -0.00002   0.00000  -0.00007  -0.00007   4.31909
    R4        4.31892   0.00002   0.00000   0.00012   0.00012   4.31904
    R5        2.56596  -0.00000   0.00000   0.00000   0.00000   2.56596
    R6        2.56598  -0.00000   0.00000  -0.00001  -0.00001   2.56596
    R7        2.56591   0.00001   0.00000   0.00002   0.00002   2.56594
    R8        2.56598  -0.00000   0.00000  -0.00001  -0.00001   2.56597
    A1        1.96034  -0.00003   0.00000  -0.00057  -0.00057   1.95977
    A2        1.88642   0.00000   0.00000  -0.00002  -0.00002   1.88640
    A3        1.88652   0.00001   0.00000  -0.00017  -0.00017   1.88635
    A4        1.88573   0.00003   0.00000   0.00069   0.00069   1.88642
    A5        1.88638   0.00000   0.00000  -0.00003  -0.00003   1.88635
    A6        1.95973  -0.00000   0.00000   0.00008   0.00008   1.95981
    A7        1.80044  -0.00001   0.00000  -0.00014  -0.00014   1.80030
    A8        1.80072  -0.00002   0.00000  -0.00031  -0.00031   1.80040
    A9        1.80021   0.00001   0.00000   0.00009   0.00009   1.80030
   A10        1.80018   0.00001   0.00000   0.00018   0.00018   1.80036
    D1        1.34537   0.00001   0.00000  -0.00000  -0.00000   1.34537
    D2       -0.73326  -0.00001   0.00000  -0.00050  -0.00050  -0.73376
    D3       -2.85831  -0.00001   0.00000  -0.00049  -0.00049  -2.85880
    D4        1.34574  -0.00000   0.00000  -0.00014  -0.00014   1.34559
    D5       -2.85841  -0.00000   0.00000  -0.00006  -0.00006  -2.85847
    D6       -0.73385   0.00001   0.00000   0.00043   0.00043  -0.73342
    D7        2.85822  -0.00001   0.00000   0.00014   0.00014   2.85836
    D8        0.73290   0.00001   0.00000   0.00043   0.00043   0.73333
    D9       -1.34572  -0.00001   0.00000  -0.00003  -0.00003  -1.34575
   D10        0.73318   0.00001   0.00000  -0.00008  -0.00008   0.73311
   D11        2.85895  -0.00002   0.00000  -0.00088  -0.00088   2.85807
   D12       -1.34601   0.00001   0.00000   0.00001   0.00001  -1.34600
         Item               Value     Threshold  Converged?
 Maximum Force            0.000034     0.000450     YES
 RMS     Force            0.000013     0.000300     YES
 Maximum Displacement     0.001584     0.001800     YES
 RMS     Displacement     0.000708     0.001200     YES
 Predicted change in Energy=-4.485957D-08
 Optimization completed.
    -- Stationary point found.
                           ----------------------------
                           !   Optimized Parameters   !
                           ! (Angstroms and Degrees)  !
 --------------------------                            --------------------------
 ! Name  Definition              Value          Derivative Info.                !
 --------------------------------------------------------------------------------
 ! R1    R(1,2)                  2.2855         -DE/DX =    0.0                 !
 ! R2    R(1,4)                  2.2855         -DE/DX =    0.0                 !
 ! R3    R(1,6)                  2.2856         -DE/DX =    0.0                 !
 ! R4    R(1,8)                  2.2855         -DE/DX =    0.0                 !
 ! R5    R(2,3)                  1.3578         -DE/DX =    0.0                 !
 ! R6    R(4,5)                  1.3579         -DE/DX =    0.0                 !
 ! R7    R(6,7)                  1.3578         -DE/DX =    0.0                 !
 ! R8    R(8,9)                  1.3579         -DE/DX =    0.0                 !
 ! A1    A(2,1,4)              112.3191         -DE/DX =    0.0                 !
 ! A2    A(2,1,6)              108.084          -DE/DX =    0.0                 !
 ! A3    A(2,1,8)              108.0898         -DE/DX =    0.0                 !
 ! A4    A(4,1,6)              108.0442         -DE/DX =    0.0                 !
 ! A5    A(4,1,8)              108.0814         -DE/DX =    0.0                 !
 ! A6    A(6,1,8)              112.2842         -DE/DX =    0.0                 !
 ! A7    A(1,2,3)              103.1576         -DE/DX =    0.0                 !
 ! A8    A(1,4,5)              103.1734         -DE/DX =    0.0                 !
 ! A9    A(1,6,7)              103.1446         -DE/DX =    0.0                 !
 ! A10   A(1,8,9)              103.1428         -DE/DX =    0.0                 !
 ! D1    D(4,1,2,3)             77.0842         -DE/DX =    0.0                 !
 ! D2    D(6,1,2,3)            -42.0125         -DE/DX =    0.0                 !
 ! D3    D(8,1,2,3)           -163.7692         -DE/DX =    0.0                 !
 ! D4    D(2,1,4,5)             77.105          -DE/DX =    0.0                 !
 ! D5    D(6,1,4,5)           -163.775          -DE/DX =    0.0                 !
 ! D6    D(8,1,4,5)            -42.0465         -DE/DX =    0.0                 !
 ! D7    D(2,1,6,7)            163.7639         -DE/DX =    0.0                 !
 ! D8    D(4,1,6,7)             41.9919         -DE/DX =    0.0                 !
 ! D9    D(8,1,6,7)            -77.104          -DE/DX =    0.0                 !
 ! D10   D(2,1,8,9)             42.0083         -DE/DX =    0.0                 !
 ! D11   D(4,1,8,9)            163.8055         -DE/DX =    0.0                 !
 ! D12   D(6,1,8,9)            -77.1204         -DE/DX =    0.0                 !
 --------------------------------------------------------------------------------
 GradGradGradGradGradGradGradGradGradGradGradGradGradGradGradGradGradGrad


 ----------------------------------------------------------------------

 Electric dipole moment (input orientation):
 (Debye = 10**-18 statcoulomb cm , SI units = C m)
                  (au)            (Debye)         (10**-30 SI)
   Tot        0.362330D-03      0.920951D-03      0.307196D-02
   x          0.387360D-04      0.984570D-04      0.328417D-03
   y         -0.330289D-03     -0.839511D-03     -0.280031D-02
   z          0.143846D-03      0.365620D-03      0.121958D-02

 Dipole polarizability, Alpha (input orientation).
 (esu units = cm**3 , SI units = C**2 m**2 J**-1)
 Alpha(0;0):
               (au)            (10**-24 esu)      (10**-40 SI)
   iso        0.125058D+03      0.185317D+02      0.206193D+02
   aniso      0.192565D+02      0.285351D+01      0.317496D+01
   xx         0.121157D+03      0.179536D+02      0.199761D+02
   yx        -0.615314D+01     -0.911801D+00     -0.101452D+01
   yy         0.127793D+03      0.189369D+02      0.210702D+02
   zx         0.736472D+01      0.109134D+01      0.121428D+01
   zy         0.441320D+01      0.653968D+00      0.727638D+00
   zz         0.126224D+03      0.187044D+02      0.208115D+02

 ----------------------------------------------------------------------

 Dipole orientation:
    42          4.02582973          1.39869605         -0.32986960
    16          0.99934321         -1.42786207          0.89691214
     1         -0.91244587         -0.99164079         -0.75805902
    16          3.14317497          5.41845370          0.97989559
     1          3.77303079          5.37468719          3.46698108
    16          4.18578256          1.40274771         -4.64606075
     1          5.46637359          3.56107609         -5.18049151
    16          7.77641578          0.20311742          1.44686113
     1          7.77637256         -2.34564757          1.15012529

 Electric dipole moment (dipole orientation):
 (Debye = 10**-18 statcoulomb cm , SI units = C m)
                  (au)            (Debye)         (10**-30 SI)
   Tot        0.362330D-03      0.920951D-03      0.307196D-02
   x          0.000000D+00      0.000000D+00      0.000000D+00
   y          0.000000D+00      0.000000D+00      0.000000D+00
   z          0.362330D-03      0.920951D-03      0.307196D-02

 Dipole polarizability, Alpha (dipole orientation).
 (esu units = cm**3 , SI units = C**2 m**2 J**-1)
 Alpha(0;0):
               (au)            (10**-24 esu)      (10**-40 SI)
   iso        0.125058D+03      0.185317D+02      0.206193D+02
   aniso      0.192565D+02      0.285351D+01      0.317496D+01
   xx         0.118768D+03      0.175996D+02      0.195822D+02
   yx         0.388419D+01      0.575577D+00      0.640416D+00
   yy         0.130305D+03      0.193093D+02      0.214845D+02
   zx         0.824826D+01      0.122227D+01      0.135995D+01
   zy        -0.252824D+01     -0.374646D+00     -0.416850D+00
   zz         0.126100D+03      0.186861D+02      0.207911D+02

 ----------------------------------------------------------------------
 Unable to Open any file for archive entry.
 1\1\GINC-SSDNODE6\Freq\RB3LYP\Gen\H4Mo1S4\CHESAYAN\15-Mar-2022\0\\#N G
 eom=AllCheck Guess=TCheck SCRF=Check GenChk RB3LYP/ChkBas Freq\\Title 
 Card Required\\0,1\Mo,2.1459192367,0.6076373704,0.3776507417\S,0.52253
 47505,-0.7019174731,-0.5568831115\H,-0.5583875901,0.1193689344,-0.5859
 863561\S,1.905147044,0.8051408327,2.6418056753\H,2.3748123735,-0.38071
 7167,3.1075598446\S,1.9858387673,2.696463209,-0.5362108333\H,2.7073945
 57,3.4643125952,0.3202046138\S,4.1707868326,-0.3673214589,-0.037993104
 1\H,4.0598890285,-0.7706748426,-1.3298084703\\Version=ES64L-G16RevC.01
 \HF=-1662.7807788\RMSD=1.557e-09\RMSF=1.355e-05\ZeroPoint=0.0378089\Th
 ermal=0.0475109\ETot=-1662.7332679\HTot=-1662.7323237\GTot=-1662.77955
 27\Dipole=0.0000387,-0.0003303,0.0001438\DipoleDeriv=0.9931875,-0.1072
 222,0.273879,-0.2506889,1.1861737,0.0278781,0.1540585,0.2287958,1.1399
 504,-0.3556131,-0.3156611,-0.2212797,-0.3150995,-0.2564275,-0.1197206,
 -0.2116758,-0.1815644,-0.2897127,-0.0375142,0.0246359,-0.0689256,0.084
 3775,0.0008262,-0.0471368,-0.04564,-0.0163619,0.1084421,-0.1341169,-0.
 0712743,0.0134815,-0.0195958,-0.0131265,-0.09644,0.0473512,-0.1073846,
 -0.7540722,0.1060299,0.1000975,-0.0190593,0.0598577,-0.0200143,0.06139
 69,-0.0259095,0.0030251,-0.0144016,-0.0986664,0.116984,0.0114335,0.123
 2004,-0.6494992,0.2676275,0.0650075,0.235961,-0.153361,0.0901657,-0.05
 32078,-0.0570635,-0.0129971,-0.0361966,-0.0176815,-0.1086736,-0.045434
 7,0.0178064,-0.5965128,0.244945,0.1199835,0.291001,-0.2955732,0.001008
 2,0.1098875,-0.0402322,-0.0095873,0.0330403,0.0607029,-0.0524493,0.039
 9448,0.0838374,-0.0769317,0.0155941,-0.0768041,-0.0450642\Polar=121.15
 71568,-6.1531365,127.7928376,7.3647178,4.4131966,126.2236143\Quadrupol
 e=-0.1331553,0.0896575,0.0434977,-0.2131918,0.253444,0.1506861\PG=C01 
 [X(H4Mo1S4)]\NImag=0\\0.23640535,-0.00889970,0.24589023,0.01063153,0.0
 0642608,0.24367837,-0.07462320,-0.04664264,-0.03478907,0.21993092,-0.0
 3384290,-0.06225708,-0.03130586,-0.07488058,0.16613337,-0.03524769,-0.
 02810826,-0.03471899,0.03830990,0.03083520,0.04212169,-0.01686889,-0.0
 0128863,-0.00265818,-0.14867922,0.11618617,-0.00224930,0.16267308,-0.0
 0968698,0.00705624,0.00102874,0.12067762,-0.10793373,0.00066300,-0.113
 32290,0.10118670,-0.00366209,0.00008860,-0.00007560,-0.00189998,-0.000
 09841,-0.00823949,0.00670694,-0.00017878,0.00707485,-0.01698053,0.0115
 4648,0.00817504,0.00168051,-0.00622198,-0.00121466,0.00268966,0.002520
 02,-0.00265397,0.05247643,0.00306531,-0.02604397,-0.00747805,0.0047265
 7,-0.00247257,-0.00877478,0.00009605,0.00094555,0.00413902,-0.08264297
 ,0.21642437,0.01225211,-0.01672564,-0.12859366,-0.00687654,-0.00434389
 ,-0.00703654,-0.00026235,-0.00163234,0.00303381,0.01599786,-0.04834608
 ,0.15923434,0.00205113,-0.00589633,0.00130458,0.00123004,0.00558267,-0
 .00023223,-0.00155512,-0.00171807,0.00095229,-0.03887030,0.07797312,-0
 .02726322,0.03536002,-0.00181450,0.00227660,0.00583127,-0.00102808,0.0
 0262055,0.00029836,-0.00055779,-0.00083016,-0.00026620,0.07666972,-0.1
 9599816,0.06398816,-0.07494371,0.19221419,-0.00130621,0.01282133,-0.01
 422452,-0.00133955,0.00038889,0.00281837,-0.00002871,-0.00002412,-0.00
 203639,-0.02493859,0.06028064,-0.02989016,0.02678704,-0.06988318,0.043
 27277,-0.01765366,0.00654429,-0.00602195,0.00409795,-0.00269793,0.0035
 2360,-0.00012487,0.00074996,-0.00022642,-0.00167629,0.00064429,0.00386
 770,0.00085202,0.00022354,-0.00128553,0.09087356,0.00977053,-0.1124192
 7,0.04358609,-0.00589310,-0.00220712,0.00065544,0.00040930,-0.00022595
 ,-0.00316575,-0.00266576,0.00682508,0.00717958,0.00029923,-0.00020410,
 -0.00313241,0.05639593,0.18696931,-0.01525002,0.03472221,-0.04148397,0
 .00806813,-0.00264458,0.00256842,-0.00024983,0.00201617,0.00099075,-0.
 00139274,0.00541610,-0.00070018,-0.00016034,-0.00090200,-0.00078280,0.
 09515653,0.04175269,0.14991067,-0.00046357,-0.00465171,0.00144797,0.00
 010614,0.00070368,-0.00080635,0.00005165,-0.00010025,0.00051824,0.0005
 1222,-0.00016129,-0.00311690,-0.00023883,-0.00034231,0.00072184,-0.076
 22408,-0.06743962,-0.08502302,0.07404957,-0.00795655,-0.01607080,-0.00
 184841,0.00307921,-0.00025923,0.00072739,-0.00049830,0.00071666,0.0003
 6462,-0.00033132,0.00002553,0.00142136,0.00034519,0.00011636,0.0000546
 7,-0.06591986,-0.07492461,-0.08135043,0.07142018,0.08991204,0.00627963
 ,0.00432518,0.00664537,-0.00154294,0.00047387,0.00001529,-0.00004916,-
 0.00024434,-0.00024031,0.00108094,-0.00162610,0.00009738,0.00011681,0.
 00016853,0.00064969,-0.08658345,-0.08537039,-0.11328587,0.08302286,0.0
 8215527,0.10656366,-0.10693363,0.04423287,0.00514976,-0.00400285,-0.00
 313749,-0.00199760,0.00154230,0.00057150,0.00012963,0.00054853,-0.0058
 4049,0.00778202,0.00113064,0.00257383,0.00167557,-0.00281029,0.0083161
 2,0.00147450,0.00426392,-0.00053886,-0.00359903,0.11870459,0.04532166,
 -0.03692403,-0.01306974,-0.00267149,0.00540281,0.00268993,-0.00065676,
 -0.00081424,-0.00131143,0.00021181,0.00081636,-0.00266486,-0.00125087,
 -0.00057308,-0.00031113,0.00610743,-0.00562892,0.00581558,0.00078872,0
 .00213618,-0.00128303,-0.03904034,0.06319190,0.01798359,-0.01026099,-0
 .02777792,0.00087150,0.00846243,0.00306774,-0.00195957,-0.00192737,-0.
 00086425,0.00562277,-0.00337451,0.00308877,-0.00177849,0.00033682,0.00
 008515,-0.00883677,-0.00191932,0.00059579,0.00293390,-0.00190506,0.000
 26758,0.01782626,0.07551125,0.24610367,-0.00493300,0.00505537,0.016760
 33,0.00025972,-0.00169166,-0.00008567,0.00027140,0.00030909,0.00013535
 ,-0.00038023,0.00213941,-0.00238068,0.00004039,-0.00078071,-0.00028588
 ,0.00266565,0.00080738,-0.00262320,-0.00205702,0.00040030,0.00127435,-
 0.01244321,-0.00881017,-0.03266321,0.01657628,0.00404312,-0.00150792,-
 0.00317011,0.00263249,0.00097299,0.00101371,-0.00036715,-0.00010107,0.
 00042834,0.00091399,-0.00052220,0.00112371,-0.00039124,0.00037781,-0.0
 0019468,-0.00204766,0.00181557,-0.00482574,-0.00021740,-0.00165213,0.0
 0140100,-0.00713714,-0.02760698,-0.06492325,0.00257098,0.02822393,0.00
 831915,-0.00328850,-0.00344908,-0.00080145,-0.00176765,-0.00059650,0.0
 0075015,0.00029904,0.00035662,-0.00067665,-0.00023625,0.00076624,0.000
 27356,0.00042824,0.00010790,0.00040627,0.00041407,0.00218718,0.0003014
 6,0.00038058,-0.00071279,-0.02844111,-0.06537657,-0.22456655,0.0198686
 1,0.06914703,0.22590697\\0.00000243,-0.00005520,0.00000231,0.00000764,
 0.00000765,-0.00000707,-0.00000205,-0.00000240,-0.00000488,0.00001476,
 0.00001485,-0.00000809,-0.00000369,0.00000198,0.00000683,-0.00000087,0
 .00002428,0.00000500,-0.00000163,-0.00000602,-0.00000333,-0.00001201,0
 .00001332,0.00001084,-0.00000458,0.00000155,-0.00000161\\\@
 The archive entry for this job was punched.


 IF I HAVE SEEN FARTHER, IT IS BY STANDING ON THE
 SHOULDERS OF GIANTS. -- SIR ISAAC NEWTON
 Job cpu time:       0 days  0 hours  2 minutes 38.2 seconds.
 Elapsed time:       0 days  0 hours  0 minutes 10.5 seconds.
 File lengths (MBytes):  RWF=     99 Int=      0 D2E=      0 Chk=      3 Scr=      2
 Normal termination of Gaussian 16 at Tue Mar 15 14:02:51 2022.
