 Entering Gaussian System, Link 0=/apps/GAU16/avx2/g16/g16
 Initial command:
 /apps/GAU16/avx2//g16/l1.exe "/localscratch/chegho/Gau-86244.inp" -scrdir="/localscratch/chegho/"
 Entering Link 1 = /apps/GAU16/avx2//g16/l1.exe PID=     86245.
  
 Copyright (c) 1988-2019, Gaussian, Inc.  All Rights Reserved.
  
 This is part of the Gaussian(R) 16 program.  It is based on
 the Gaussian(R) 09 system (copyright 2009, Gaussian, Inc.),
 the Gaussian(R) 03 system (copyright 2003, Gaussian, Inc.),
 the Gaussian(R) 98 system (copyright 1998, Gaussian, Inc.),
 the Gaussian(R) 94 system (copyright 1995, Gaussian, Inc.),
 the Gaussian 92(TM) system (copyright 1992, Gaussian, Inc.),
 the Gaussian 90(TM) system (copyright 1990, Gaussian, Inc.),
 the Gaussian 88(TM) system (copyright 1988, Gaussian, Inc.),
 the Gaussian 86(TM) system (copyright 1986, Carnegie Mellon
 University), and the Gaussian 82(TM) system (copyright 1983,
 Carnegie Mellon University). Gaussian is a federally registered
 trademark of Gaussian, Inc.
  
 This software contains proprietary and confidential information,
 including trade secrets, belonging to Gaussian, Inc.
  
 This software is provided under written license and may be
 used, copied, transmitted, or stored only in accord with that
 written license.
  
 The following legend is applicable only to US Government
 contracts under FAR:
  
                    RESTRICTED RIGHTS LEGEND
  
 Use, reproduction and disclosure by the US Government is
 subject to restrictions as set forth in subparagraphs (a)
 and (c) of the Commercial Computer Software - Restricted
 Rights clause in FAR 52.227-19.
  
 Gaussian, Inc.
 340 Quinnipiac St., Bldg. 40, Wallingford CT 06492
  
  
 ---------------------------------------------------------------
 Warning -- This program may not be used in any manner that
 competes with the business of Gaussian, Inc. or will provide
 assistance to any competitor of Gaussian, Inc.  The licensee
 of this program is prohibited from giving any competitor of
 Gaussian, Inc. access to this program.  By using this program,
 the user acknowledges that Gaussian, Inc. is engaged in the
 business of creating and licensing software in the field of
 computational chemistry and represents and warrants to the
 licensee that it is not a competitor of Gaussian, Inc. and that
 it will not use this program in any manner prohibited above.
 ---------------------------------------------------------------
  

 Cite this work as:
 Gaussian 16, Revision C.01,
 M. J. Frisch, G. W. Trucks, H. B. Schlegel, G. E. Scuseria, 
 M. A. Robb, J. R. Cheeseman, G. Scalmani, V. Barone, 
 G. A. Petersson, H. Nakatsuji, X. Li, M. Caricato, A. V. Marenich, 
 J. Bloino, B. G. Janesko, R. Gomperts, B. Mennucci, H. P. Hratchian, 
 J. V. Ortiz, A. F. Izmaylov, J. L. Sonnenberg, D. Williams-Young, 
 F. Ding, F. Lipparini, F. Egidi, J. Goings, B. Peng, A. Petrone, 
 T. Henderson, D. Ranasinghe, V. G. Zakrzewski, J. Gao, N. Rega, 
 G. Zheng, W. Liang, M. Hada, M. Ehara, K. Toyota, R. Fukuda, 
 J. Hasegawa, M. Ishida, T. Nakajima, Y. Honda, O. Kitao, H. Nakai, 
 T. Vreven, K. Throssell, J. A. Montgomery, Jr., J. E. Peralta, 
 F. Ogliaro, M. J. Bearpark, J. J. Heyd, E. N. Brothers, K. N. Kudin, 
 V. N. Staroverov, T. A. Keith, R. Kobayashi, J. Normand, 
 K. Raghavachari, A. P. Rendell, J. C. Burant, S. S. Iyengar, 
 J. Tomasi, M. Cossi, J. M. Millam, M. Klene, C. Adamo, R. Cammi, 
 J. W. Ochterski, R. L. Martin, K. Morokuma, O. Farkas, 
 J. B. Foresman, and D. J. Fox, Gaussian, Inc., Wallingford CT, 2019.
 
 ******************************************
 Gaussian 16:  ES64L-G16RevC.01  3-Jul-2019
                 7-Jul-2023 
 ******************************************
 %nprocshared=24
 Will use up to   24 processors via shared memory.
 %mem=100GB
 -----------------------------------------------------------
 # opt=(calcfc,ts,noeigen) freq b3lyp/gen nosymm pseudo=read
 -----------------------------------------------------------
 1/5=1,10=4,11=1,18=20,26=3,38=1/1,3;
 2/9=110,12=2,15=1,17=6,18=5,40=1/2;
 3/5=7,11=2,16=1,17=8,25=1,30=1,71=2,74=-5,140=1/1,2,3;
 4//1;
 5/5=2,38=5/2;
 8/6=4,10=90,11=11/1;
 11/6=1,8=1,9=11,15=111,16=1,31=1/1,2,10;
 10/6=1,13=1,31=1/2;
 6/7=2,8=2,9=2,10=2,28=1/1;
 7/10=1,25=1,30=1/1,2,3,16;
 1/5=1,10=4,11=1,18=20,26=3/3(2);
 2/9=110,15=1/2;
 99//99;
 2/9=110,15=1/2;
 3/5=7,6=1,11=2,16=1,17=8,25=1,30=1,71=1,74=-5,82=7/1,2,3;
 4/5=5,16=3,69=1/1;
 5/5=2,38=5/2;
 7/30=1/1,2,3,16;
 1/5=1,11=1,18=20,26=3/3(-5);
 2/9=110,15=1/2;
 6/7=2,8=2,9=2,10=2,19=2,28=1/1;
 99/9=1/99;
 -------------------
 Title Card Required
 -------------------
 Symbolic Z-matrix:
 Charge =  0 Multiplicity = 1
 42                    1.85765   0.40105   0.3496 
 16                    0.41392  -1.16313  -0.03073 
 1                     0.70502   0.54402  -0.61861 
 16                    1.59586   0.91414   2.62434 
 1                     2.16094  -0.22868   3.06668 
 16                    1.86418   2.61026  -0.41468 
 1                     2.91473   3.07254   0.30714 
 16                    3.92579  -0.49499  -0.28456 
 1                     3.87584  -0.18292  -1.59885 
 

 GradGradGradGradGradGradGradGradGradGradGradGradGradGradGradGradGradGrad
 Berny optimization.
 Initialization pass.
                           ----------------------------
                           !    Initial Parameters    !
                           ! (Angstroms and Degrees)  !
 --------------------------                            --------------------------
 ! Name  Definition              Value          Derivative Info.                !
 --------------------------------------------------------------------------------
 ! R1    R(1,2)                  2.1623         calculate D2E/DX2 analytically  !
 ! R2    R(1,3)                  1.5121         calculate D2E/DX2 analytically  !
 ! R3    R(1,4)                  2.3465         calculate D2E/DX2 analytically  !
 ! R4    R(1,6)                  2.3377         calculate D2E/DX2 analytically  !
 ! R5    R(1,8)                  2.3414         calculate D2E/DX2 analytically  !
 ! R6    R(4,5)                  1.3494         calculate D2E/DX2 analytically  !
 ! R7    R(6,7)                  1.3559         calculate D2E/DX2 analytically  !
 ! R8    R(8,9)                  1.3517         calculate D2E/DX2 analytically  !
 ! A1    A(2,1,3)               56.4146         calculate D2E/DX2 analytically  !
 ! A2    A(2,1,4)              104.7254         calculate D2E/DX2 analytically  !
 ! A3    A(2,1,6)              128.9014         calculate D2E/DX2 analytically  !
 ! A4    A(2,1,8)              105.3833         calculate D2E/DX2 analytically  !
 ! A5    A(3,1,4)              120.9974         calculate D2E/DX2 analytically  !
 ! A6    A(3,1,6)               72.7485         calculate D2E/DX2 analytically  !
 ! A7    A(3,1,8)              122.4162         calculate D2E/DX2 analytically  !
 ! A8    A(4,1,6)               96.3504         calculate D2E/DX2 analytically  !
 ! A9    A(4,1,8)              116.4093         calculate D2E/DX2 analytically  !
 ! A10   A(6,1,8)              105.7026         calculate D2E/DX2 analytically  !
 ! A11   A(1,4,5)               94.9261         calculate D2E/DX2 analytically  !
 ! A12   A(1,6,7)               98.6457         calculate D2E/DX2 analytically  !
 ! A13   A(1,8,9)               98.1838         calculate D2E/DX2 analytically  !
 ! D1    D(2,1,4,5)             72.0355         calculate D2E/DX2 analytically  !
 ! D2    D(3,1,4,5)            131.4147         calculate D2E/DX2 analytically  !
 ! D3    D(6,1,4,5)           -154.9199         calculate D2E/DX2 analytically  !
 ! D4    D(8,1,4,5)            -43.8619         calculate D2E/DX2 analytically  !
 ! D5    D(2,1,6,7)            172.7277         calculate D2E/DX2 analytically  !
 ! D6    D(3,1,6,7)            178.5238         calculate D2E/DX2 analytically  !
 ! D7    D(4,1,6,7)             57.9912         calculate D2E/DX2 analytically  !
 ! D8    D(8,1,6,7)            -61.7553         calculate D2E/DX2 analytically  !
 ! D9    D(2,1,8,9)             86.0078         calculate D2E/DX2 analytically  !
 ! D10   D(3,1,8,9)             26.3341         calculate D2E/DX2 analytically  !
 ! D11   D(4,1,8,9)           -158.4622         calculate D2E/DX2 analytically  !
 ! D12   D(6,1,8,9)            -52.9229         calculate D2E/DX2 analytically  !
 --------------------------------------------------------------------------------
 Trust Radius=3.00D-01 FncErr=1.00D-07 GrdErr=1.00D-06 EigMax=2.50D+02 EigMin=1.00D-04
 Number of steps in this run=     43 maximum allowed number of steps=    100.
 Search for a saddle point of order  1.
 GradGradGradGradGradGradGradGradGradGradGradGradGradGradGradGradGradGrad

                          Input orientation:                          
 ---------------------------------------------------------------------
 Center     Atomic      Atomic             Coordinates (Angstroms)
 Number     Number       Type             X           Y           Z
 ---------------------------------------------------------------------
      1         42           0        1.857651    0.401054    0.349600
      2         16           0        0.413919   -1.163129   -0.030728
      3          1           0        0.705019    0.544022   -0.618606
      4         16           0        1.595857    0.914138    2.624342
      5          1           0        2.160940   -0.228678    3.066681
      6         16           0        1.864179    2.610257   -0.414679
      7          1           0        2.914732    3.072540    0.307140
      8         16           0        3.925793   -0.494992   -0.284562
      9          1           0        3.875844   -0.182919   -1.598846
 ---------------------------------------------------------------------
                    Distance matrix (angstroms):
                    1          2          3          4          5
     1  Mo   0.000000
     2  S    2.162332   0.000000
     3  H    1.512092   1.828853   0.000000
     4  S    2.346538   3.572312   3.383384   0.000000
     5  H    2.805544   3.676850   4.037092   1.349448   0.000000
     6  S    2.337679   4.060679   2.377933   3.490625   4.501943
     7  H    2.873336   4.930427   3.483280   3.430387   4.368216
     8  S    2.341425   3.583866   3.400665   3.984466   3.796901
     9  H    2.865409   3.924886   3.397565   4.923128   4.970929
                    6          7          8          9
     6  S    0.000000
     7  H    1.355872   0.000000
     8  S    3.729578   3.754949   0.000000
     9  H    3.640176   3.892882   1.351750   0.000000
 Symmetry turned off by external request.
 Stoichiometry    H4MoS4
 Framework group  C1[X(H4MoS4)]
 Deg. of freedom    21
 Full point group                 C1      NOp   1
 Rotational constants (GHZ):           1.2072382           1.1402121           0.9390640
 General basis read from cards:  (5D, 7F)
 ======================================================================================================
                                       Pseudopotential Parameters
 ======================================================================================================
  Center     Atomic      Valence      Angular      Power
  Number     Number     Electrons     Momentum     of R      Exponent        Coefficient   SO-Coeffient
 ======================================================================================================
    1         42           14
                                      F and up 
                                                     0      537.9667807       -0.04694920    0.00000000
                                                     1      147.8982938      -20.20800840    0.00000000
                                                     2       45.7358898     -106.21163020    0.00000000
                                                     2       13.2911467      -41.81073680    0.00000000
                                                     2        4.7059961       -4.20541030    0.00000000
                                      S - F
                                                     0      110.2991760        2.80637170    0.00000000
                                                     1       23.2014645       44.51620120    0.00000000
                                                     2        5.3530131       82.77852270    0.00000000
                                      P - F
                                                     0       63.2901397        4.94208760    0.00000000
                                                     1       23.3315302       25.86049760    0.00000000
                                                     2       24.6759423      132.47087420    0.00000000
                                                     2        4.6493040       57.31497940    0.00000000
                                      D - F
                                                     0      104.4839977        3.00545910    0.00000000
                                                     1       66.2307245       26.36378510    0.00000000
                                                     2       39.1283176      183.38491990    0.00000000
                                                     2       13.1164437       98.44530680    0.00000000
                                                     2        3.6280263       22.49013770    0.00000000
    2         16
                                   No pseudopotential on this center.
    3          1
                                   No pseudopotential on this center.
    4         16
                                   No pseudopotential on this center.
    5          1
                                   No pseudopotential on this center.
    6         16
                                   No pseudopotential on this center.
    7          1
                                   No pseudopotential on this center.
    8         16
                                   No pseudopotential on this center.
    9          1
                                   No pseudopotential on this center.
 ======================================================================================================
   114 basis functions,   285 primitive gaussians,   120 cartesian basis functions
    41 alpha electrons       41 beta electrons
       nuclear repulsion energy       489.4083212063 Hartrees.
 NAtoms=    9 NActive=    9 NUniq=    9 SFac= 1.00D+00 NAtFMM=   60 NAOKFM=F Big=F
 Integral buffers will be    131072 words long.
 Raffenetti 2 integral format.
 Two-electron integral symmetry is turned off.
 One-electron integrals computed using PRISM.
   1 Symmetry operations used in ECPInt.
 ECPInt:  NShTT=     820 NPrTT=    5722 LenC2=     797 LenP2D=    4206.
 LDataN:  DoStor=T MaxTD1= 5 Len=  102
 NBasis=   114 RedAO= T EigKep=  4.48D-03  NBF=   114
 NBsUse=   114 1.00D-06 EigRej= -1.00D+00 NBFU=   114
 Defaulting to unpruned grid for atomic number  42.
 ExpMin= 2.47D-02 ExpMax= 2.19D+04 ExpMxC= 3.30D+03 IAcc=3 IRadAn=         5 AccDes= 0.00D+00
 Harris functional with IExCor=  402 and IRadAn=       5 diagonalized for initial guess.
 HarFok:  IExCor=  402 AccDes= 0.00D+00 IRadAn=         5 IDoV= 1 UseB2=F ITyADJ=14
 ICtDFT=  3500011 ScaDFX=  1.000000  1.000000  1.000000  1.000000
 Defaulting to unpruned grid for atomic number  42.
 FoFCou: FMM=F IPFlag=           0 FMFlag=      100000 FMFlg1=           0
         NFxFlg=           0 DoJE=T BraDBF=F KetDBF=T FulRan=T
         wScrn=  0.000000 ICntrl=       500 IOpCl=  0 I1Cent=   200000004 NGrid=           0
         NMat0=    1 NMatS0=      1 NMatT0=    0 NMatD0=    1 NMtDS0=    0 NMtDT0=    0
 Symmetry not used in FoFCou.
 Keep R1 ints in memory in canonical form, NReq=44221704.
 Requested convergence on RMS density matrix=1.00D-08 within 128 cycles.
 Requested convergence on MAX density matrix=1.00D-06.
 Requested convergence on             energy=1.00D-06.
 No special actions if energy rises.
 Defaulting to unpruned grid for atomic number  42.
 Defaulting to unpruned grid for atomic number  42.
 Defaulting to unpruned grid for atomic number  42.
 Defaulting to unpruned grid for atomic number  42.
 Defaulting to unpruned grid for atomic number  42.
 Defaulting to unpruned grid for atomic number  42.
 Defaulting to unpruned grid for atomic number  42.
 Defaulting to unpruned grid for atomic number  42.
 Defaulting to unpruned grid for atomic number  42.
 Defaulting to unpruned grid for atomic number  42.
 Defaulting to unpruned grid for atomic number  42.
 Defaulting to unpruned grid for atomic number  42.
 Defaulting to unpruned grid for atomic number  42.
 Defaulting to unpruned grid for atomic number  42.
 Defaulting to unpruned grid for atomic number  42.
 Defaulting to unpruned grid for atomic number  42.
 Defaulting to unpruned grid for atomic number  42.
 Defaulting to unpruned grid for atomic number  42.
 Defaulting to unpruned grid for atomic number  42.
 Defaulting to unpruned grid for atomic number  42.
 Defaulting to unpruned grid for atomic number  42.
 Defaulting to unpruned grid for atomic number  42.
 Defaulting to unpruned grid for atomic number  42.
 Defaulting to unpruned grid for atomic number  42.
 EnCoef did   100 forward-backward iterations
 EnCoef did   100 forward-backward iterations
 SCF Done:  E(RB3LYP) =  -1662.73783353     A.U. after   17 cycles
            NFock= 17  Conv=0.27D-08     -V/T= 2.0299
 DoSCS=F DFT=T ScalE2(SS,OS)=  1.000000  1.000000
 Range of M.O.s used for correlation:     1   114
 NBasis=   114 NAE=    41 NBE=    41 NFC=     0 NFV=     0
 NROrb=    114 NOA=    41 NOB=    41 NVA=    73 NVB=    73
   1 Symmetry operations used in ECPInt.
 ECPInt:  NShTT=     820 NPrTT=    5722 LenC2=     797 LenP2D=    4206.
 LDataN:  DoStor=T MaxTD1= 6 Len=  172
 Symmetrizing basis deriv contribution to polar:
 IMax=3 JMax=2 DiffMx= 0.00D+00
 G2DrvN: will do    10 centers at a time, making    1 passes.
 Calling FoFCou, ICntrl=  3107 FMM=F I1Cent=   0 AccDes= 0.00D+00.
 Defaulting to unpruned grid for atomic number  42.
 Defaulting to unpruned grid for atomic number  42.
 Defaulting to unpruned grid for atomic number  42.
 Defaulting to unpruned grid for atomic number  42.
 Defaulting to unpruned grid for atomic number  42.
 Defaulting to unpruned grid for atomic number  42.
 Defaulting to unpruned grid for atomic number  42.
 Defaulting to unpruned grid for atomic number  42.
 Defaulting to unpruned grid for atomic number  42.
 Defaulting to unpruned grid for atomic number  42.
 Defaulting to unpruned grid for atomic number  42.
 Defaulting to unpruned grid for atomic number  42.
 Defaulting to unpruned grid for atomic number  42.
 Defaulting to unpruned grid for atomic number  42.
 Defaulting to unpruned grid for atomic number  42.
 Defaulting to unpruned grid for atomic number  42.
 Defaulting to unpruned grid for atomic number  42.
 Defaulting to unpruned grid for atomic number  42.
 Defaulting to unpruned grid for atomic number  42.
 Defaulting to unpruned grid for atomic number  42.
 Defaulting to unpruned grid for atomic number  42.
 Defaulting to unpruned grid for atomic number  42.
 Defaulting to unpruned grid for atomic number  42.
 Defaulting to unpruned grid for atomic number  42.
 End of G2Drv F.D. properties file   721 does not exist.
 End of G2Drv F.D. properties file   722 does not exist.
 End of G2Drv F.D. properties file   788 does not exist.
          IDoAtm=111111111
          Differentiating once with respect to nuclear coordinates.
 Defaulting to unpruned grid for atomic number  42.
 Keep R1 ints in memory in canonical form, NReq=44146236.
 Defaulting to unpruned grid for atomic number  42.
 Defaulting to unpruned grid for atomic number  42.
 Defaulting to unpruned grid for atomic number  42.
 Defaulting to unpruned grid for atomic number  42.
 Defaulting to unpruned grid for atomic number  42.
 Defaulting to unpruned grid for atomic number  42.
 Defaulting to unpruned grid for atomic number  42.
 Defaulting to unpruned grid for atomic number  42.
 Defaulting to unpruned grid for atomic number  42.
 Defaulting to unpruned grid for atomic number  42.
 Defaulting to unpruned grid for atomic number  42.
 Defaulting to unpruned grid for atomic number  42.
 Defaulting to unpruned grid for atomic number  42.
 Defaulting to unpruned grid for atomic number  42.
 Defaulting to unpruned grid for atomic number  42.
 Defaulting to unpruned grid for atomic number  42.
 Defaulting to unpruned grid for atomic number  42.
 Defaulting to unpruned grid for atomic number  42.
 Defaulting to unpruned grid for atomic number  42.
 Defaulting to unpruned grid for atomic number  42.
 Defaulting to unpruned grid for atomic number  42.
 Defaulting to unpruned grid for atomic number  42.
 Defaulting to unpruned grid for atomic number  42.
 Defaulting to unpruned grid for atomic number  42.
          There are    30 degrees of freedom in the 1st order CPHF.  IDoFFX=6 NUNeed=     0.
     24 vectors produced by pass  0 Test12= 9.98D-15 3.33D-09 XBig12= 1.97D-01 1.47D-01.
 AX will form    24 AO Fock derivatives at one time.
     24 vectors produced by pass  1 Test12= 9.98D-15 3.33D-09 XBig12= 2.37D-02 4.65D-02.
     24 vectors produced by pass  2 Test12= 9.98D-15 3.33D-09 XBig12= 1.66D-03 9.90D-03.
     24 vectors produced by pass  3 Test12= 9.98D-15 3.33D-09 XBig12= 2.44D-05 8.74D-04.
     24 vectors produced by pass  4 Test12= 9.98D-15 3.33D-09 XBig12= 1.46D-07 8.17D-05.
     24 vectors produced by pass  5 Test12= 9.98D-15 3.33D-09 XBig12= 6.47D-10 6.09D-06.
     18 vectors produced by pass  6 Test12= 9.98D-15 3.33D-09 XBig12= 1.52D-12 2.20D-07.
      4 vectors produced by pass  7 Test12= 9.98D-15 3.33D-09 XBig12= 2.81D-15 8.05D-09.
 InvSVY:  IOpt=1 It=  1 EMax= 1.33D-15
 Solved reduced A of dimension   166 with    24 vectors.
 End of Minotr F.D. properties file   721 does not exist.
 End of Minotr F.D. properties file   722 does not exist.
 End of Minotr F.D. properties file   788 does not exist.

 **********************************************************************

            Population analysis using the SCF Density.

 **********************************************************************

 Alpha  occ. eigenvalues --  -88.89101 -88.88357 -88.88226 -88.87440  -7.96944
 Alpha  occ. eigenvalues --   -7.96211  -7.96123  -7.95366  -5.93188  -5.92751
 Alpha  occ. eigenvalues --   -5.92717  -5.92470  -5.92390  -5.92178  -5.92071
 Alpha  occ. eigenvalues --   -5.91810  -5.91723  -5.91579  -5.91282  -5.91027
 Alpha  occ. eigenvalues --   -2.55651  -1.58711  -1.58062  -1.57438  -0.74834
 Alpha  occ. eigenvalues --   -0.73776  -0.73561  -0.69896  -0.46232  -0.43549
 Alpha  occ. eigenvalues --   -0.43471  -0.42310  -0.36889  -0.35592  -0.34590
 Alpha  occ. eigenvalues --   -0.33493  -0.32132  -0.30075  -0.29166  -0.26379
 Alpha  occ. eigenvalues --   -0.24812
 Alpha virt. eigenvalues --   -0.14510  -0.11533  -0.11039  -0.11008  -0.00988
 Alpha virt. eigenvalues --   -0.00413   0.00527   0.01149   0.04832   0.05501
 Alpha virt. eigenvalues --    0.07082   0.08549   0.15851   0.18209   0.18979
 Alpha virt. eigenvalues --    0.28524   0.29225   0.29476   0.30665   0.32110
 Alpha virt. eigenvalues --    0.32792   0.33608   0.34645   0.35520   0.37167
 Alpha virt. eigenvalues --    0.37703   0.39777   0.41843   0.42488   0.47362
 Alpha virt. eigenvalues --    0.47884   0.51599   0.53237   0.53973   0.57486
 Alpha virt. eigenvalues --    0.59375   0.69329   0.71090   0.71443   0.72624
 Alpha virt. eigenvalues --    0.73344   0.73767   0.76022   0.77407   0.78116
 Alpha virt. eigenvalues --    0.79131   0.81222   0.82727   0.85370   0.86154
 Alpha virt. eigenvalues --    0.88473   0.92845   0.96443   1.01222   1.01455
 Alpha virt. eigenvalues --    1.02801   1.06985   1.11974   1.13207   1.14053
 Alpha virt. eigenvalues --    2.03030   2.05214   2.05853   2.06185   2.07532
 Alpha virt. eigenvalues --    2.09297   2.09631   2.12246   2.18348   2.70188
 Alpha virt. eigenvalues --    2.71020   2.71621   6.80837
          Condensed to atoms (all electrons):
               1          2          3          4          5          6
     1  Mo  12.692100   0.225739   0.112112   0.283310  -0.031326   0.262400
     2  S    0.225739  15.895625   0.070909  -0.003166  -0.005137   0.005114
     3  H    0.112112   0.070909   0.854900   0.003640  -0.000236   0.010879
     4  S    0.283310  -0.003166   0.003640  15.544232   0.261696  -0.021102
     5  H   -0.031326  -0.005137  -0.000236   0.261696   0.671558   0.000903
     6  S    0.262400   0.005114   0.010879  -0.021102   0.000903  15.612353
     7  H   -0.036920  -0.000409   0.001385  -0.001456  -0.000033   0.255672
     8  S    0.281238   0.001254  -0.001371   0.007427  -0.000371  -0.012318
     9  H   -0.024808  -0.000880   0.001788  -0.000235  -0.000000  -0.004669
               7          8          9
     1  Mo  -0.036920   0.281238  -0.024808
     2  S   -0.000409   0.001254  -0.000880
     3  H    0.001385  -0.001371   0.001788
     4  S   -0.001456   0.007427  -0.000235
     5  H   -0.000033  -0.000371  -0.000000
     6  S    0.255672  -0.012318  -0.004669
     7  H    0.681065  -0.000741   0.000253
     8  S   -0.000741  15.573526   0.264113
     9  H    0.000253   0.264113   0.665335
 Mulliken charges:
               1
     1  Mo   0.236156
     2  S   -0.189049
     3  H   -0.054006
     4  S   -0.074346
     5  H    0.102947
     6  S   -0.109232
     7  H    0.101184
     8  S   -0.112756
     9  H    0.099102
 Sum of Mulliken charges =  -0.00000
 Mulliken charges with hydrogens summed into heavy atoms:
               1
     1  Mo   0.182149
     2  S   -0.189049
     4  S    0.028602
     6  S   -0.008048
     8  S   -0.013654
 APT charges:
               1
     1  Mo   0.563664
     2  S   -0.353516
     3  H   -0.042405
     4  S   -0.474106
     5  H    0.380841
     6  S   -0.596467
     7  H    0.546005
     8  S   -0.307985
     9  H    0.283968
 Sum of APT charges =   0.00000
 APT charges with hydrogens summed into heavy atoms:
               1
     1  Mo   0.521259
     2  S   -0.353516
     4  S   -0.093265
     6  S   -0.050461
     8  S   -0.024017
 Electronic spatial extent (au):  <R**2>=           2709.2345
 Charge=             -0.0000 electrons
 Dipole moment (field-independent basis, Debye):
    X=              1.4147    Y=              0.6853    Z=             -0.3051  Tot=              1.6012
 Quadrupole moment (field-independent basis, Debye-Ang):
   XX=            -74.9729   YY=            -79.0416   ZZ=            -74.3935
   XY=              3.1924   XZ=             -0.5971   YZ=             -1.2266
 Traceless Quadrupole moment (field-independent basis, Debye-Ang):
   XX=              1.1631   YY=             -2.9056   ZZ=              1.7425
   XY=              3.1924   XZ=             -0.5971   YZ=             -1.2266
 Octapole moment (field-independent basis, Debye-Ang**2):
  XXX=           -452.0099  YYY=           -100.5607  ZZZ=            -96.9964  XYY=           -145.8226
  XXY=            -21.7451  XXZ=            -40.6572  XZZ=           -134.0395  YZZ=            -46.8360
  YYZ=            -28.7497  XYZ=             -1.1137
 Hexadecapole moment (field-independent basis, Debye-Ang**3):
 XXXX=          -2434.8253 YYYY=           -874.8670 ZZZZ=           -698.0320 XXXY=           -170.4368
 XXXZ=           -183.1373 YYYX=           -172.2784 YYYZ=            -50.9735 ZZZX=           -120.7993
 ZZZY=            -94.1426 XXYY=           -520.3099 XXZZ=           -465.0616 YYZZ=           -283.3492
 XXYZ=            -25.1711 YYXZ=            -34.6123 ZZXY=            -97.7437
 N-N= 4.894083212063D+02 E-N=-4.907990896815D+03  KE= 1.614402575305D+03
  Exact polarizability:       0.000       0.000       0.000       0.000       0.000       0.000
 Approx polarizability:     293.218      56.738     306.745       6.694      25.960     239.747
   1 Symmetry operations used in ECPInt.
 ECPInt:  NShTT=     820 NPrTT=    5722 LenC2=     797 LenP2D=    4206.
 LDataN:  DoStor=T MaxTD1= 7 Len=  274
 Calling FoFJK, ICntrl=    100127 FMM=F ISym2X=0 I1Cent= 0 IOpClX= 0 NMat=1 NMatS=1 NMatT=0.
 Defaulting to unpruned grid for atomic number  42.
 Defaulting to unpruned grid for atomic number  42.
 Defaulting to unpruned grid for atomic number  42.
 Defaulting to unpruned grid for atomic number  42.
 Defaulting to unpruned grid for atomic number  42.
 Defaulting to unpruned grid for atomic number  42.
 Defaulting to unpruned grid for atomic number  42.
 Defaulting to unpruned grid for atomic number  42.
 Defaulting to unpruned grid for atomic number  42.
 Defaulting to unpruned grid for atomic number  42.
 Defaulting to unpruned grid for atomic number  42.
 Defaulting to unpruned grid for atomic number  42.
 Defaulting to unpruned grid for atomic number  42.
 Defaulting to unpruned grid for atomic number  42.
 Defaulting to unpruned grid for atomic number  42.
 Defaulting to unpruned grid for atomic number  42.
 Defaulting to unpruned grid for atomic number  42.
 Defaulting to unpruned grid for atomic number  42.
 Defaulting to unpruned grid for atomic number  42.
 Defaulting to unpruned grid for atomic number  42.
 Defaulting to unpruned grid for atomic number  42.
 Defaulting to unpruned grid for atomic number  42.
 Defaulting to unpruned grid for atomic number  42.
 Defaulting to unpruned grid for atomic number  42.
 -------------------------------------------------------------------
 Center     Atomic                   Forces (Hartrees/Bohr)
 Number     Number              X              Y              Z
 -------------------------------------------------------------------
      1       42           0.039163187   -0.002818685    0.028994198
      2       16          -0.004012882   -0.012271233    0.003860909
      3        1          -0.037878200    0.015445256   -0.036781097
      4       16           0.003201799   -0.001062787   -0.002441197
      5        1          -0.000436570   -0.000802112    0.002222511
      6       16           0.000320205   -0.000267886    0.000963332
      7        1          -0.000100648    0.000369660   -0.000461512
      8       16           0.000497478    0.000727213    0.004165491
      9        1          -0.000754370    0.000680574   -0.000522635
 -------------------------------------------------------------------
 Cartesian Forces:  Max     0.039163187 RMS     0.014445464
 FormGI is forming the generalized inverse of G from B-inverse, IUseBI=4.

 GradGradGradGradGradGradGradGradGradGradGradGradGradGradGradGradGradGrad
 Berny optimization.
 Internal  Forces:  Max     0.053885264 RMS     0.010307249
 Search for a saddle point.
 Step number   1 out of a maximum of   43
 All quantities printed in internal units (Hartrees-Bohrs-Radians)
 Swapping is turned off.
 Second derivative matrix not updated -- analytic derivatives used.
 ITU=  0
     Eigenvalues ---   -0.00085   0.00095   0.00416   0.01242   0.03394
     Eigenvalues ---    0.04762   0.05807   0.06456   0.07177   0.09310
     Eigenvalues ---    0.09859   0.11177   0.12259   0.12994   0.13899
     Eigenvalues ---    0.14651   0.25562   0.26214   0.26498   0.26620
     Eigenvalues ---    0.27525
 Eigenvectors required to have negative eigenvalues:
                          D4        D1        D3        A1        D9
   1                   -0.48335  -0.47924  -0.38645   0.30304   0.26267
                          D11       A3        A8        D2        D5
   1                    0.23193   0.17521  -0.17055  -0.15548  -0.14876
 RFO step:  Lambda0=5.771935703D-03 Lambda=-1.46229187D-02.
 Linear search not attempted -- option 19 set.
 Maximum step size (   0.300) exceeded in Quadratic search.
    -- Step size scaled by   0.710
 Iteration  1 RMS(Cart)=  0.14080546 RMS(Int)=  0.03800453
 Iteration  2 RMS(Cart)=  0.03843660 RMS(Int)=  0.00320649
 Iteration  3 RMS(Cart)=  0.00213125 RMS(Int)=  0.00213936
 Iteration  4 RMS(Cart)=  0.00000572 RMS(Int)=  0.00213936
 Iteration  5 RMS(Cart)=  0.00000000 RMS(Int)=  0.00213936
 Variable       Old X    -DE/DX   Delta X   Delta X   Delta X     New X
                                 (Linear)    (Quad)   (Total)
    R1        4.08622   0.01088   0.00000   0.07565   0.07565   4.16187
    R2        2.85744   0.05389   0.00000   0.16174   0.16174   3.01918
    R3        4.43431  -0.00093   0.00000  -0.03843  -0.03843   4.39589
    R4        4.41757  -0.00007   0.00000  -0.03292  -0.03292   4.38466
    R5        4.42465  -0.00175   0.00000  -0.04605  -0.04605   4.37860
    R6        2.55009   0.00123   0.00000   0.00385   0.00385   2.55394
    R7        2.56223  -0.00020   0.00000   0.00085   0.00085   2.56308
    R8        2.55444   0.00069   0.00000   0.00352   0.00352   2.55795
    A1        0.98462   0.01183   0.00000  -0.11655  -0.11359   0.87104
    A2        1.82780  -0.00282   0.00000   0.02685   0.02791   1.85571
    A3        2.24975   0.00610   0.00000  -0.05499  -0.05783   2.19192
    A4        1.83929  -0.00095   0.00000  -0.00432  -0.00420   1.83509
    A5        2.11180   0.00259   0.00000   0.02875   0.02217   2.13397
    A6        1.26970  -0.00559   0.00000   0.05141   0.05126   1.32096
    A7        2.13657   0.00324   0.00000   0.05673   0.05318   2.18974
    A8        1.68163   0.00125   0.00000   0.11090   0.11299   1.79462
    A9        2.03172  -0.00538   0.00000  -0.09787  -0.10079   1.93094
   A10        1.84486   0.00061   0.00000   0.00408   0.00542   1.85028
   A11        1.65677   0.00492   0.00000   0.02389   0.02389   1.68067
   A12        1.72169   0.00137   0.00000   0.02550   0.02550   1.74719
   A13        1.71363  -0.00228   0.00000   0.04678   0.04678   1.76041
    D1        1.25726  -0.00655   0.00000   0.31291   0.31042   1.56768
    D2        2.29362   0.00560   0.00000   0.18995   0.19039   2.48401
    D3       -2.70386  -0.00034   0.00000   0.31409   0.31869  -2.38518
    D4       -0.76553  -0.00059   0.00000   0.35220   0.34965  -0.41589
    D5        3.01467  -0.00160   0.00000   0.08855   0.08587   3.10054
    D6        3.11583   0.00074   0.00000  -0.03079  -0.02737   3.08845
    D7        1.01214  -0.00191   0.00000  -0.02546  -0.02617   0.98597
    D8       -1.07783   0.00324   0.00000   0.03592   0.03591  -1.04192
    D9        1.50112   0.00708   0.00000  -0.12283  -0.12488   1.37624
   D10        0.45962  -0.00623   0.00000   0.02084   0.02274   0.48236
   D11       -2.76569   0.00001   0.00000  -0.14550  -0.14466  -2.91035
   D12       -0.92368  -0.00045   0.00000  -0.05247  -0.05315  -0.97683
         Item               Value     Threshold  Converged?
 Maximum Force            0.053885     0.000450     NO 
 RMS     Force            0.010307     0.000300     NO 
 Maximum Displacement     0.569710     0.001800     NO 
 RMS     Displacement     0.165793     0.001200     NO 
 Predicted change in Energy=-3.178961D-03
 GradGradGradGradGradGradGradGradGradGradGradGradGradGradGradGradGradGrad

                          Input orientation:                          
 ---------------------------------------------------------------------
 Center     Atomic      Atomic             Coordinates (Angstroms)
 Number     Number       Type             X           Y           Z
 ---------------------------------------------------------------------
      1         42           0        1.805141    0.451763    0.359563
      2         16           0        0.340542   -1.089503   -0.214768
      3          1           0        0.567120    0.532988   -0.647063
      4         16           0        1.563788    0.760986    2.652454
      5          1           0        2.462418   -0.177607    3.023969
      6         16           0        1.865458    2.625476   -0.449719
      7          1           0        2.904918    3.118213    0.268856
      8         16           0        3.875013   -0.469021   -0.126785
      9          1           0        3.929537   -0.281001   -1.466165
 ---------------------------------------------------------------------
                    Distance matrix (angstroms):
                    1          2          3          4          5
     1  Mo   0.000000
     2  S    2.202365   0.000000
     3  H    1.597683   1.694313   0.000000
     4  S    2.326202   3.625135   3.454293   0.000000
     5  H    2.815524   3.977855   4.192084   1.351487   0.000000
     6  S    2.320260   4.022642   2.470452   3.631915   4.503349
     7  H    2.885774   4.951241   3.603830   3.610635   4.318435
     8  S    2.317056   3.589600   3.495264   3.818226   3.465198
     9  H    2.895390   3.885944   3.555186   4.862666   4.724874
                    6          7          8          9
     6  S    0.000000
     7  H    1.356324   0.000000
     8  S    3.703851   3.737093   0.000000
     9  H    3.706911   3.951556   1.353611   0.000000
 Symmetry turned off by external request.
 Stoichiometry    H4MoS4
 Framework group  C1[X(H4MoS4)]
 Deg. of freedom    21
 Full point group                 C1      NOp   1
 Rotational constants (GHZ):           1.1793455           1.1103108           0.9890484
 Basis read from rwf:  (5D, 7F)
 Pseudo-potential data read from rwf file.
   114 basis functions,   285 primitive gaussians,   120 cartesian basis functions
    41 alpha electrons       41 beta electrons
       nuclear repulsion energy       489.3857454750 Hartrees.
 NAtoms=    9 NActive=    9 NUniq=    9 SFac= 1.00D+00 NAtFMM=   60 NAOKFM=F Big=F
 Integral buffers will be    131072 words long.
 Raffenetti 2 integral format.
 Two-electron integral symmetry is turned off.
 One-electron integrals computed using PRISM.
   1 Symmetry operations used in ECPInt.
 ECPInt:  NShTT=     820 NPrTT=    5722 LenC2=     797 LenP2D=    4212.
 LDataN:  DoStor=T MaxTD1= 5 Len=  102
 NBasis=   114 RedAO= T EigKep=  4.74D-03  NBF=   114
 NBsUse=   114 1.00D-06 EigRej= -1.00D+00 NBFU=   114
 Defaulting to unpruned grid for atomic number  42.
 Initial guess from the checkpoint file:  "/localscratch/chegho/Gau-86245.chk"
 B after Tr=    -0.055004    0.103757   -0.165574
         Rot=    0.999681   -0.014765    0.019210    0.007153 Ang=  -2.90 deg.
 ExpMin= 2.47D-02 ExpMax= 2.19D+04 ExpMxC= 3.30D+03 IAcc=3 IRadAn=         5 AccDes= 0.00D+00
 Harris functional with IExCor=  402 and IRadAn=       5 diagonalized for initial guess.
 HarFok:  IExCor=  402 AccDes= 0.00D+00 IRadAn=         5 IDoV= 1 UseB2=F ITyADJ=14
 ICtDFT=  3500011 ScaDFX=  1.000000  1.000000  1.000000  1.000000
 Defaulting to unpruned grid for atomic number  42.
 FoFCou: FMM=F IPFlag=           0 FMFlag=      100000 FMFlg1=           0
         NFxFlg=           0 DoJE=T BraDBF=F KetDBF=T FulRan=T
         wScrn=  0.000000 ICntrl=       500 IOpCl=  0 I1Cent=   200000004 NGrid=           0
         NMat0=    1 NMatS0=      1 NMatT0=    0 NMatD0=    1 NMtDS0=    0 NMtDT0=    0
 Symmetry not used in FoFCou.
 Keep R1 ints in memory in canonical form, NReq=44221704.
 Requested convergence on RMS density matrix=1.00D-08 within 128 cycles.
 Requested convergence on MAX density matrix=1.00D-06.
 Requested convergence on             energy=1.00D-06.
 No special actions if energy rises.
 Defaulting to unpruned grid for atomic number  42.
 Defaulting to unpruned grid for atomic number  42.
 Defaulting to unpruned grid for atomic number  42.
 Defaulting to unpruned grid for atomic number  42.
 Defaulting to unpruned grid for atomic number  42.
 Defaulting to unpruned grid for atomic number  42.
 Defaulting to unpruned grid for atomic number  42.
 Defaulting to unpruned grid for atomic number  42.
 Defaulting to unpruned grid for atomic number  42.
 Defaulting to unpruned grid for atomic number  42.
 Defaulting to unpruned grid for atomic number  42.
 Defaulting to unpruned grid for atomic number  42.
 Defaulting to unpruned grid for atomic number  42.
 Defaulting to unpruned grid for atomic number  42.
 Defaulting to unpruned grid for atomic number  42.
 Defaulting to unpruned grid for atomic number  42.
 Defaulting to unpruned grid for atomic number  42.
 Defaulting to unpruned grid for atomic number  42.
 Defaulting to unpruned grid for atomic number  42.
 Defaulting to unpruned grid for atomic number  42.
 Defaulting to unpruned grid for atomic number  42.
 Defaulting to unpruned grid for atomic number  42.
 Defaulting to unpruned grid for atomic number  42.
 Defaulting to unpruned grid for atomic number  42.
 SCF Done:  E(RB3LYP) =  -1662.74220215     A.U. after   15 cycles
            NFock= 15  Conv=0.87D-08     -V/T= 2.0300
   1 Symmetry operations used in ECPInt.
 ECPInt:  NShTT=     820 NPrTT=    5722 LenC2=     797 LenP2D=    4212.
 LDataN:  DoStor=T MaxTD1= 6 Len=  172
 Calling FoFJK, ICntrl=      2127 FMM=F ISym2X=0 I1Cent= 0 IOpClX= 0 NMat=1 NMatS=1 NMatT=0.
 Defaulting to unpruned grid for atomic number  42.
 Defaulting to unpruned grid for atomic number  42.
 Defaulting to unpruned grid for atomic number  42.
 Defaulting to unpruned grid for atomic number  42.
 Defaulting to unpruned grid for atomic number  42.
 Defaulting to unpruned grid for atomic number  42.
 Defaulting to unpruned grid for atomic number  42.
 Defaulting to unpruned grid for atomic number  42.
 Defaulting to unpruned grid for atomic number  42.
 Defaulting to unpruned grid for atomic number  42.
 Defaulting to unpruned grid for atomic number  42.
 Defaulting to unpruned grid for atomic number  42.
 Defaulting to unpruned grid for atomic number  42.
 Defaulting to unpruned grid for atomic number  42.
 Defaulting to unpruned grid for atomic number  42.
 Defaulting to unpruned grid for atomic number  42.
 Defaulting to unpruned grid for atomic number  42.
 Defaulting to unpruned grid for atomic number  42.
 Defaulting to unpruned grid for atomic number  42.
 Defaulting to unpruned grid for atomic number  42.
 Defaulting to unpruned grid for atomic number  42.
 Defaulting to unpruned grid for atomic number  42.
 Defaulting to unpruned grid for atomic number  42.
 Defaulting to unpruned grid for atomic number  42.
 -------------------------------------------------------------------
 Center     Atomic                   Forces (Hartrees/Bohr)
 Number     Number              X              Y              Z
 -------------------------------------------------------------------
      1       42           0.023275267   -0.000842235    0.016345705
      2       16          -0.002905362   -0.003608346    0.000581722
      3        1          -0.021552300    0.002745315   -0.019079540
      4       16           0.002407043    0.000280473   -0.000955593
      5        1          -0.000768323   -0.000864208    0.001368210
      6       16          -0.000285466    0.001213514    0.000332520
      7        1           0.000061987   -0.000115925   -0.000288596
      8       16          -0.000296698    0.000167319    0.001974574
      9        1           0.000063852    0.001024092   -0.000279002
 -------------------------------------------------------------------
 Cartesian Forces:  Max     0.023275267 RMS     0.007898434

 GradGradGradGradGradGradGradGradGradGradGradGradGradGradGradGradGradGrad
 Berny optimization.
 FormGI is forming the generalized inverse of G from B-inverse, IUseBI=4.
 Internal  Forces:  Max     0.028861156 RMS     0.005233084
 Search for a saddle point.
 Step number   2 out of a maximum of   43
 All quantities printed in internal units (Hartrees-Bohrs-Radians)
 Swapping is turned off.
 Update second derivatives using D2CorX and points    1    2
 ITU=  0  0
     Eigenvalues ---   -0.00937   0.00095   0.00417   0.01630   0.03413
     Eigenvalues ---    0.04753   0.05781   0.06420   0.07143   0.09301
     Eigenvalues ---    0.09854   0.11174   0.12237   0.12946   0.13894
     Eigenvalues ---    0.14632   0.25487   0.26121   0.26277   0.26548
     Eigenvalues ---    0.27157
 Eigenvectors required to have negative eigenvalues:
                          D1        A1        D4        D3        D9
   1                    0.43873  -0.42196   0.39766   0.29725  -0.26575
                          A3        D10       D11       A6        A8
   1                   -0.24611   0.23801  -0.19505   0.17754   0.17061
 RFO step:  Lambda0=1.277174137D-04 Lambda=-4.35126666D-03.
 Linear search not attempted -- option 19 set.
 Iteration  1 RMS(Cart)=  0.05624377 RMS(Int)=  0.00182233
 Iteration  2 RMS(Cart)=  0.00165868 RMS(Int)=  0.00049596
 Iteration  3 RMS(Cart)=  0.00000213 RMS(Int)=  0.00049596
 Iteration  4 RMS(Cart)=  0.00000000 RMS(Int)=  0.00049596
 Variable       Old X    -DE/DX   Delta X   Delta X   Delta X     New X
                                 (Linear)    (Quad)   (Total)
    R1        4.16187   0.00431   0.00000   0.00125   0.00125   4.16311
    R2        3.01918   0.02886   0.00000   0.10802   0.10802   3.12720
    R3        4.39589   0.00016   0.00000  -0.00566  -0.00566   4.39023
    R4        4.38466   0.00101   0.00000   0.01513   0.01513   4.39978
    R5        4.37860  -0.00104   0.00000  -0.01202  -0.01202   4.36658
    R6        2.55394   0.00047   0.00000   0.00158   0.00158   2.55552
    R7        2.56308  -0.00015   0.00000  -0.00110  -0.00110   2.56199
    R8        2.55795   0.00042   0.00000   0.00238   0.00238   2.56033
    A1        0.87104   0.00197   0.00000   0.02806   0.02843   0.89946
    A2        1.85571  -0.00102   0.00000  -0.00800  -0.00741   1.84830
    A3        2.19192   0.00106   0.00000   0.03605   0.03484   2.22676
    A4        1.83509   0.00156   0.00000   0.03165   0.03071   1.86579
    A5        2.13397   0.00191   0.00000   0.03133   0.03112   2.16509
    A6        1.32096  -0.00094   0.00000   0.00715   0.00788   1.32884
    A7        2.18974   0.00086   0.00000   0.01724   0.01712   2.20686
    A8        1.79462  -0.00000   0.00000  -0.04201  -0.04196   1.75265
    A9        1.93094  -0.00238   0.00000  -0.03958  -0.03994   1.89100
   A10        1.85028   0.00015   0.00000   0.00979   0.00826   1.85854
   A11        1.68067   0.00324   0.00000   0.02517   0.02517   1.70584
   A12        1.74719   0.00005   0.00000   0.00651   0.00651   1.75370
   A13        1.76041  -0.00097   0.00000  -0.00964  -0.00964   1.75077
    D1        1.56768  -0.00127   0.00000  -0.05774  -0.05794   1.50974
    D2        2.48401   0.00028   0.00000  -0.03258  -0.03220   2.45181
    D3       -2.38518  -0.00059   0.00000  -0.04532  -0.04599  -2.43117
    D4       -0.41589  -0.00140   0.00000  -0.07137  -0.07087  -0.48676
    D5        3.10054  -0.00146   0.00000  -0.05896  -0.05981   3.04073
    D6        3.08845   0.00111   0.00000   0.00823   0.00834   3.09679
    D7        0.98597  -0.00077   0.00000  -0.03192  -0.03161   0.95436
    D8       -1.04192   0.00183   0.00000   0.02640   0.02683  -1.01510
    D9        1.37624   0.00239   0.00000   0.11496   0.11538   1.49162
   D10        0.48236  -0.00097   0.00000   0.06178   0.06183   0.54419
   D11       -2.91035   0.00092   0.00000   0.10407   0.10374  -2.80661
   D12       -0.97683  -0.00008   0.00000   0.04256   0.04242  -0.93441
         Item               Value     Threshold  Converged?
 Maximum Force            0.028861     0.000450     NO 
 RMS     Force            0.005233     0.000300     NO 
 Maximum Displacement     0.139696     0.001800     NO 
 RMS     Displacement     0.056447     0.001200     NO 
 Predicted change in Energy=-2.227337D-03
 GradGradGradGradGradGradGradGradGradGradGradGradGradGradGradGradGradGrad

                          Input orientation:                          
 ---------------------------------------------------------------------
 Center     Atomic      Atomic             Coordinates (Angstroms)
 Number     Number       Type             X           Y           Z
 ---------------------------------------------------------------------
      1         42           0        1.793713    0.431167    0.329348
      2         16           0        0.293877   -1.108594   -0.153296
      3          1           0        0.518714    0.529570   -0.720987
      4         16           0        1.623982    0.789585    2.618456
      5          1           0        2.461838   -0.193336    3.019256
      6         16           0        1.870083    2.628577   -0.436403
      7          1           0        2.910202    3.106796    0.289889
      8         16           0        3.866990   -0.489137   -0.110971
      9          1           0        3.974535   -0.222335   -1.434950
 ---------------------------------------------------------------------
                    Distance matrix (angstroms):
                    1          2          3          4          5
     1  Mo   0.000000
     2  S    2.203025   0.000000
     3  H    1.654844   1.748258   0.000000
     4  S    2.323207   3.613153   3.527195   0.000000
     5  H    2.841127   3.950043   4.276417   1.352323   0.000000
     6  S    2.328264   4.065836   2.512571   3.574161   4.500550
     7  H    2.899499   4.981073   3.658303   3.527897   4.305966
     8  S    2.310696   3.626659   3.552581   3.757125   3.443875
     9  H    2.880242   3.996915   3.608019   4.793661   4.704152
                    6          7          8          9
     6  S    0.000000
     7  H    1.355744   0.000000
     8  S    3.716676   3.742574   0.000000
     9  H    3.681509   3.897562   1.354868   0.000000
 Symmetry turned off by external request.
 Stoichiometry    H4MoS4
 Framework group  C1[X(H4MoS4)]
 Deg. of freedom    21
 Full point group                 C1      NOp   1
 Rotational constants (GHZ):           1.1974818           1.0952726           0.9922115
 Basis read from rwf:  (5D, 7F)
 Pseudo-potential data read from rwf file.
   114 basis functions,   285 primitive gaussians,   120 cartesian basis functions
    41 alpha electrons       41 beta electrons
       nuclear repulsion energy       489.3924416463 Hartrees.
 NAtoms=    9 NActive=    9 NUniq=    9 SFac= 1.00D+00 NAtFMM=   60 NAOKFM=F Big=F
 Integral buffers will be    131072 words long.
 Raffenetti 2 integral format.
 Two-electron integral symmetry is turned off.
 One-electron integrals computed using PRISM.
   1 Symmetry operations used in ECPInt.
 ECPInt:  NShTT=     820 NPrTT=    5722 LenC2=     797 LenP2D=    4210.
 LDataN:  DoStor=T MaxTD1= 5 Len=  102
 NBasis=   114 RedAO= T EigKep=  4.82D-03  NBF=   114
 NBsUse=   114 1.00D-06 EigRej= -1.00D+00 NBFU=   114
 Defaulting to unpruned grid for atomic number  42.
 Initial guess from the checkpoint file:  "/localscratch/chegho/Gau-86245.chk"
 B after Tr=    -0.021781    0.000040    0.051159
         Rot=    0.999959    0.004942   -0.006869    0.003353 Ang=   1.04 deg.
 ExpMin= 2.47D-02 ExpMax= 2.19D+04 ExpMxC= 3.30D+03 IAcc=3 IRadAn=         5 AccDes= 0.00D+00
 Harris functional with IExCor=  402 and IRadAn=       5 diagonalized for initial guess.
 HarFok:  IExCor=  402 AccDes= 0.00D+00 IRadAn=         5 IDoV= 1 UseB2=F ITyADJ=14
 ICtDFT=  3500011 ScaDFX=  1.000000  1.000000  1.000000  1.000000
 Defaulting to unpruned grid for atomic number  42.
 FoFCou: FMM=F IPFlag=           0 FMFlag=      100000 FMFlg1=           0
         NFxFlg=           0 DoJE=T BraDBF=F KetDBF=T FulRan=T
         wScrn=  0.000000 ICntrl=       500 IOpCl=  0 I1Cent=   200000004 NGrid=           0
         NMat0=    1 NMatS0=      1 NMatT0=    0 NMatD0=    1 NMtDS0=    0 NMtDT0=    0
 Symmetry not used in FoFCou.
 Keep R1 ints in memory in canonical form, NReq=44221704.
 Requested convergence on RMS density matrix=1.00D-08 within 128 cycles.
 Requested convergence on MAX density matrix=1.00D-06.
 Requested convergence on             energy=1.00D-06.
 No special actions if energy rises.
 Defaulting to unpruned grid for atomic number  42.
 Defaulting to unpruned grid for atomic number  42.
 Defaulting to unpruned grid for atomic number  42.
 Defaulting to unpruned grid for atomic number  42.
 Defaulting to unpruned grid for atomic number  42.
 Defaulting to unpruned grid for atomic number  42.
 Defaulting to unpruned grid for atomic number  42.
 Defaulting to unpruned grid for atomic number  42.
 Defaulting to unpruned grid for atomic number  42.
 Defaulting to unpruned grid for atomic number  42.
 Defaulting to unpruned grid for atomic number  42.
 Defaulting to unpruned grid for atomic number  42.
 Defaulting to unpruned grid for atomic number  42.
 Defaulting to unpruned grid for atomic number  42.
 Defaulting to unpruned grid for atomic number  42.
 Defaulting to unpruned grid for atomic number  42.
 Defaulting to unpruned grid for atomic number  42.
 Defaulting to unpruned grid for atomic number  42.
 Defaulting to unpruned grid for atomic number  42.
 Defaulting to unpruned grid for atomic number  42.
 Defaulting to unpruned grid for atomic number  42.
 Defaulting to unpruned grid for atomic number  42.
 Defaulting to unpruned grid for atomic number  42.
 Defaulting to unpruned grid for atomic number  42.
 SCF Done:  E(RB3LYP) =  -1662.74495679     A.U. after   15 cycles
            NFock= 15  Conv=0.31D-08     -V/T= 2.0300
   1 Symmetry operations used in ECPInt.
 ECPInt:  NShTT=     820 NPrTT=    5722 LenC2=     797 LenP2D=    4210.
 LDataN:  DoStor=T MaxTD1= 6 Len=  172
 Calling FoFJK, ICntrl=      2127 FMM=F ISym2X=0 I1Cent= 0 IOpClX= 0 NMat=1 NMatS=1 NMatT=0.
 Defaulting to unpruned grid for atomic number  42.
 Defaulting to unpruned grid for atomic number  42.
 Defaulting to unpruned grid for atomic number  42.
 Defaulting to unpruned grid for atomic number  42.
 Defaulting to unpruned grid for atomic number  42.
 Defaulting to unpruned grid for atomic number  42.
 Defaulting to unpruned grid for atomic number  42.
 Defaulting to unpruned grid for atomic number  42.
 Defaulting to unpruned grid for atomic number  42.
 Defaulting to unpruned grid for atomic number  42.
 Defaulting to unpruned grid for atomic number  42.
 Defaulting to unpruned grid for atomic number  42.
 Defaulting to unpruned grid for atomic number  42.
 Defaulting to unpruned grid for atomic number  42.
 Defaulting to unpruned grid for atomic number  42.
 Defaulting to unpruned grid for atomic number  42.
 Defaulting to unpruned grid for atomic number  42.
 Defaulting to unpruned grid for atomic number  42.
 Defaulting to unpruned grid for atomic number  42.
 Defaulting to unpruned grid for atomic number  42.
 Defaulting to unpruned grid for atomic number  42.
 Defaulting to unpruned grid for atomic number  42.
 Defaulting to unpruned grid for atomic number  42.
 Defaulting to unpruned grid for atomic number  42.
 -------------------------------------------------------------------
 Center     Atomic                   Forces (Hartrees/Bohr)
 Number     Number              X              Y              Z
 -------------------------------------------------------------------
      1       42           0.009552527    0.000606615    0.007314934
      2       16          -0.000556032    0.000474280   -0.000847639
      3        1          -0.009498171   -0.001147604   -0.006406275
      4       16           0.001324062    0.001145225   -0.000168165
      5        1          -0.001166753   -0.001012704    0.000190460
      6       16          -0.000075778   -0.000212539   -0.000162418
      7        1          -0.000115776    0.000005158    0.000079457
      8       16           0.000315729   -0.000315520   -0.000082096
      9        1           0.000220192    0.000457089    0.000081742
 -------------------------------------------------------------------
 Cartesian Forces:  Max     0.009552527 RMS     0.003249133

 GradGradGradGradGradGradGradGradGradGradGradGradGradGradGradGradGradGrad
 Berny optimization.
 FormGI is forming the generalized inverse of G from B-inverse, IUseBI=4.
 Internal  Forces:  Max     0.011315787 RMS     0.002089329
 Search for a saddle point.
 Step number   3 out of a maximum of   43
 All quantities printed in internal units (Hartrees-Bohrs-Radians)
 Swapping is turned off.
 Update second derivatives using D2CorX and points    2    3
 ITU=  0  0  0
     Eigenvalues ---   -0.00643   0.00185   0.00635   0.01240   0.03449
     Eigenvalues ---    0.04930   0.05759   0.06447   0.06890   0.09357
     Eigenvalues ---    0.09844   0.11151   0.12260   0.12952   0.13908
     Eigenvalues ---    0.14570   0.22821   0.25660   0.26229   0.26540
     Eigenvalues ---    0.27024
 Eigenvectors required to have negative eigenvalues:
                          D10       A1        D1        D4        D12
   1                    0.54003  -0.39929   0.33097   0.27767   0.26093
                          D3        A3        A6        R2        D11
   1                    0.21953  -0.19846   0.19418   0.18007   0.14265
 RFO step:  Lambda0=1.742942861D-03 Lambda=-2.87397072D-03.
 Linear search not attempted -- option 19 set.
 Iteration  1 RMS(Cart)=  0.09772031 RMS(Int)=  0.04786950
 Iteration  2 RMS(Cart)=  0.04907350 RMS(Int)=  0.00380363
 Iteration  3 RMS(Cart)=  0.00326774 RMS(Int)=  0.00103879
 Iteration  4 RMS(Cart)=  0.00001007 RMS(Int)=  0.00103878
 Iteration  5 RMS(Cart)=  0.00000000 RMS(Int)=  0.00103878
 Variable       Old X    -DE/DX   Delta X   Delta X   Delta X     New X
                                 (Linear)    (Quad)   (Total)
    R1        4.16311   0.00023   0.00000  -0.03858  -0.03858   4.12453
    R2        3.12720   0.01132   0.00000   0.03348   0.03348   3.16068
    R3        4.39023   0.00003   0.00000   0.00832   0.00832   4.39854
    R4        4.39978  -0.00017   0.00000   0.01506   0.01506   4.41484
    R5        4.36658   0.00042   0.00000   0.03070   0.03070   4.39728
    R6        2.55552   0.00007   0.00000  -0.00052  -0.00052   2.55500
    R7        2.56199  -0.00004   0.00000   0.00001   0.00001   2.56200
    R8        2.56033   0.00003   0.00000  -0.00143  -0.00143   2.55890
    A1        0.89946  -0.00195   0.00000   0.09637   0.09658   0.99605
    A2        1.84830   0.00076   0.00000  -0.00990  -0.00836   1.83994
    A3        2.22676  -0.00107   0.00000   0.07269   0.07240   2.29916
    A4        1.86579   0.00077   0.00000   0.00395   0.00361   1.86941
    A5        2.16509  -0.00050   0.00000  -0.02365  -0.02693   2.13816
    A6        1.32884   0.00084   0.00000  -0.02253  -0.02275   1.30609
    A7        2.20686   0.00038   0.00000   0.01500   0.01273   2.21959
    A8        1.75265  -0.00013   0.00000  -0.07189  -0.07104   1.68161
    A9        1.89100  -0.00001   0.00000   0.03428   0.03164   1.92264
   A10        1.85854  -0.00025   0.00000  -0.03101  -0.03078   1.82776
   A11        1.70584   0.00028   0.00000   0.00870   0.00870   1.71454
   A12        1.75370  -0.00004   0.00000  -0.00590  -0.00590   1.74780
   A13        1.75077  -0.00001   0.00000  -0.02361  -0.02361   1.72716
    D1        1.50974   0.00002   0.00000  -0.36508  -0.36555   1.14419
    D2        2.45181  -0.00180   0.00000  -0.25092  -0.25226   2.19955
    D3       -2.43117  -0.00090   0.00000  -0.32684  -0.32532  -2.75649
    D4       -0.48676  -0.00124   0.00000  -0.38062  -0.38032  -0.86708
    D5        3.04073   0.00019   0.00000  -0.00659  -0.00795   3.03278
    D6        3.09679  -0.00052   0.00000   0.01832   0.01919   3.11598
    D7        0.95436  -0.00007   0.00000   0.03148   0.03214   0.98649
    D8       -1.01510   0.00007   0.00000   0.03275   0.03259  -0.98251
    D9        1.49162  -0.00074   0.00000  -0.02477  -0.02473   1.46689
   D10        0.54419   0.00124   0.00000  -0.14590  -0.14695   0.39723
   D11       -2.80661   0.00052   0.00000  -0.01789  -0.01711  -2.82372
   D12       -0.93441   0.00027   0.00000  -0.09871  -0.09846  -1.03288
         Item               Value     Threshold  Converged?
 Maximum Force            0.011316     0.000450     NO 
 RMS     Force            0.002089     0.000300     NO 
 Maximum Displacement     0.544177     0.001800     NO 
 RMS     Displacement     0.141583     0.001200     NO 
 Predicted change in Energy=-8.082064D-04
 GradGradGradGradGradGradGradGradGradGradGradGradGradGradGradGradGradGrad

                          Input orientation:                          
 ---------------------------------------------------------------------
 Center     Atomic      Atomic             Coordinates (Angstroms)
 Number     Number       Type             X           Y           Z
 ---------------------------------------------------------------------
      1         42           0        1.831828    0.414234    0.321760
      2         16           0        0.399950   -1.197657   -0.017813
      3          1           0        0.520990    0.564061   -0.706205
      4         16           0        1.698887    0.891285    2.596076
      5          1           0        2.173872   -0.283160    3.068405
      6         16           0        1.876086    2.633897   -0.405650
      7          1           0        2.951106    3.089529    0.283402
      8         16           0        3.939831   -0.421384   -0.200466
      9          1           0        3.921384   -0.218512   -1.539165
 ---------------------------------------------------------------------
                    Distance matrix (angstroms):
                    1          2          3          4          5
     1  Mo   0.000000
     2  S    2.182608   0.000000
     3  H    1.672560   1.895306   0.000000
     4  S    2.327609   3.589336   3.521304   0.000000
     5  H    2.854367   3.675302   4.206838   1.352045   0.000000
     6  S    2.336233   4.124342   2.492155   3.475407   4.546092
     7  H    2.900251   4.997908   3.641809   3.427651   4.442450
     8  S    2.326941   3.628597   3.593793   3.816488   3.717961
     9  H    2.868737   3.959006   3.587327   4.824040   4.928253
                    6          7          8          9
     6  S    0.000000
     7  H    1.355751   0.000000
     8  S    3.692680   3.679431   0.000000
     9  H    3.688406   3.899528   1.354109   0.000000
 Symmetry turned off by external request.
 Stoichiometry    H4MoS4
 Framework group  C1[X(H4MoS4)]
 Deg. of freedom    21
 Full point group                 C1      NOp   1
 Rotational constants (GHZ):           1.2228328           1.1136569           0.9606704
 Basis read from rwf:  (5D, 7F)
 Pseudo-potential data read from rwf file.
   114 basis functions,   285 primitive gaussians,   120 cartesian basis functions
    41 alpha electrons       41 beta electrons
       nuclear repulsion energy       489.4229807135 Hartrees.
 NAtoms=    9 NActive=    9 NUniq=    9 SFac= 1.00D+00 NAtFMM=   60 NAOKFM=F Big=F
 Integral buffers will be    131072 words long.
 Raffenetti 2 integral format.
 Two-electron integral symmetry is turned off.
 One-electron integrals computed using PRISM.
   1 Symmetry operations used in ECPInt.
 ECPInt:  NShTT=     820 NPrTT=    5722 LenC2=     798 LenP2D=    4212.
 LDataN:  DoStor=T MaxTD1= 5 Len=  102
 NBasis=   114 RedAO= T EigKep=  4.47D-03  NBF=   114
 NBsUse=   114 1.00D-06 EigRej= -1.00D+00 NBFU=   114
 Defaulting to unpruned grid for atomic number  42.
 Initial guess from the checkpoint file:  "/localscratch/chegho/Gau-86245.chk"
 B after Tr=     0.098968   -0.105971    0.131726
         Rot=    0.999742    0.009484   -0.014794   -0.014359 Ang=   2.60 deg.
 ExpMin= 2.47D-02 ExpMax= 2.19D+04 ExpMxC= 3.30D+03 IAcc=3 IRadAn=         5 AccDes= 0.00D+00
 Harris functional with IExCor=  402 and IRadAn=       5 diagonalized for initial guess.
 HarFok:  IExCor=  402 AccDes= 0.00D+00 IRadAn=         5 IDoV= 1 UseB2=F ITyADJ=14
 ICtDFT=  3500011 ScaDFX=  1.000000  1.000000  1.000000  1.000000
 Defaulting to unpruned grid for atomic number  42.
 FoFCou: FMM=F IPFlag=           0 FMFlag=      100000 FMFlg1=           0
         NFxFlg=           0 DoJE=T BraDBF=F KetDBF=T FulRan=T
         wScrn=  0.000000 ICntrl=       500 IOpCl=  0 I1Cent=   200000004 NGrid=           0
         NMat0=    1 NMatS0=      1 NMatT0=    0 NMatD0=    1 NMtDS0=    0 NMtDT0=    0
 Symmetry not used in FoFCou.
 Keep R1 ints in memory in canonical form, NReq=44221704.
 Requested convergence on RMS density matrix=1.00D-08 within 128 cycles.
 Requested convergence on MAX density matrix=1.00D-06.
 Requested convergence on             energy=1.00D-06.
 No special actions if energy rises.
 Defaulting to unpruned grid for atomic number  42.
 Defaulting to unpruned grid for atomic number  42.
 Defaulting to unpruned grid for atomic number  42.
 Defaulting to unpruned grid for atomic number  42.
 Defaulting to unpruned grid for atomic number  42.
 Defaulting to unpruned grid for atomic number  42.
 Defaulting to unpruned grid for atomic number  42.
 Defaulting to unpruned grid for atomic number  42.
 Defaulting to unpruned grid for atomic number  42.
 Defaulting to unpruned grid for atomic number  42.
 Defaulting to unpruned grid for atomic number  42.
 Defaulting to unpruned grid for atomic number  42.
 Defaulting to unpruned grid for atomic number  42.
 Defaulting to unpruned grid for atomic number  42.
 Defaulting to unpruned grid for atomic number  42.
 Defaulting to unpruned grid for atomic number  42.
 Defaulting to unpruned grid for atomic number  42.
 Defaulting to unpruned grid for atomic number  42.
 Defaulting to unpruned grid for atomic number  42.
 Defaulting to unpruned grid for atomic number  42.
 Defaulting to unpruned grid for atomic number  42.
 Defaulting to unpruned grid for atomic number  42.
 Defaulting to unpruned grid for atomic number  42.
 Defaulting to unpruned grid for atomic number  42.
 SCF Done:  E(RB3LYP) =  -1662.74631226     A.U. after   15 cycles
            NFock= 15  Conv=0.49D-08     -V/T= 2.0301
   1 Symmetry operations used in ECPInt.
 ECPInt:  NShTT=     820 NPrTT=    5722 LenC2=     798 LenP2D=    4212.
 LDataN:  DoStor=T MaxTD1= 6 Len=  172
 Calling FoFJK, ICntrl=      2127 FMM=F ISym2X=0 I1Cent= 0 IOpClX= 0 NMat=1 NMatS=1 NMatT=0.
 Defaulting to unpruned grid for atomic number  42.
 Defaulting to unpruned grid for atomic number  42.
 Defaulting to unpruned grid for atomic number  42.
 Defaulting to unpruned grid for atomic number  42.
 Defaulting to unpruned grid for atomic number  42.
 Defaulting to unpruned grid for atomic number  42.
 Defaulting to unpruned grid for atomic number  42.
 Defaulting to unpruned grid for atomic number  42.
 Defaulting to unpruned grid for atomic number  42.
 Defaulting to unpruned grid for atomic number  42.
 Defaulting to unpruned grid for atomic number  42.
 Defaulting to unpruned grid for atomic number  42.
 Defaulting to unpruned grid for atomic number  42.
 Defaulting to unpruned grid for atomic number  42.
 Defaulting to unpruned grid for atomic number  42.
 Defaulting to unpruned grid for atomic number  42.
 Defaulting to unpruned grid for atomic number  42.
 Defaulting to unpruned grid for atomic number  42.
 Defaulting to unpruned grid for atomic number  42.
 Defaulting to unpruned grid for atomic number  42.
 Defaulting to unpruned grid for atomic number  42.
 Defaulting to unpruned grid for atomic number  42.
 Defaulting to unpruned grid for atomic number  42.
 Defaulting to unpruned grid for atomic number  42.
 -------------------------------------------------------------------
 Center     Atomic                   Forces (Hartrees/Bohr)
 Number     Number              X              Y              Z
 -------------------------------------------------------------------
      1       42          -0.001863190   -0.001408762   -0.001275321
      2       16           0.000926712   -0.001889596    0.002459734
      3        1           0.001625558    0.002907949   -0.001294924
      4       16           0.000941418    0.000407724    0.000207592
      5        1          -0.000729318   -0.000293101   -0.000123581
      6       16          -0.000606339    0.000397088   -0.000111091
      7        1          -0.000050303   -0.000010913    0.000100550
      8       16          -0.000578327   -0.001219790   -0.000184417
      9        1           0.000333790    0.001109401    0.000221459
 -------------------------------------------------------------------
 Cartesian Forces:  Max     0.002907949 RMS     0.001152523

 GradGradGradGradGradGradGradGradGradGradGradGradGradGradGradGradGradGrad
 Berny optimization.
 FormGI is forming the generalized inverse of G from B-inverse, IUseBI=4.
 Internal  Forces:  Max     0.004391923 RMS     0.001375824
 Search for a saddle point.
 Step number   4 out of a maximum of   43
 All quantities printed in internal units (Hartrees-Bohrs-Radians)
 Swapping is turned off.
 Update second derivatives using D2CorX and points    1    3    4
 ITU=  0  0  0  0
     Eigenvalues ---   -0.01524  -0.00002   0.00470   0.01881   0.03422
     Eigenvalues ---    0.05375   0.05780   0.06461   0.07021   0.09391
     Eigenvalues ---    0.09872   0.11141   0.12275   0.12979   0.13911
     Eigenvalues ---    0.14573   0.21024   0.25647   0.26227   0.26540
     Eigenvalues ---    0.26962
 Eigenvectors required to have negative eigenvalues:
                          D10       D1        A1        D4        D3
   1                    0.44781   0.43133  -0.42120   0.35913   0.27588
                          A3        A6        D12       R2        R1
   1                   -0.22734   0.18499   0.18043   0.14107   0.13401
 RFO step:  Lambda0=1.676990675D-03 Lambda=-2.06573266D-03.
 Linear search not attempted -- option 19 set.
 Iteration  1 RMS(Cart)=  0.09909193 RMS(Int)=  0.07522528
 Iteration  2 RMS(Cart)=  0.07183243 RMS(Int)=  0.00950844
 Iteration  3 RMS(Cart)=  0.00929633 RMS(Int)=  0.00064325
 Iteration  4 RMS(Cart)=  0.00010776 RMS(Int)=  0.00063453
 Iteration  5 RMS(Cart)=  0.00000002 RMS(Int)=  0.00063453
 Variable       Old X    -DE/DX   Delta X   Delta X   Delta X     New X
                                 (Linear)    (Quad)   (Total)
    R1        4.12453   0.00040   0.00000   0.00880   0.00880   4.13333
    R2        3.16068  -0.00022   0.00000   0.04976   0.04976   3.21044
    R3        4.39854   0.00009   0.00000   0.00812   0.00812   4.40667
    R4        4.41484   0.00036   0.00000  -0.02694  -0.02694   4.38790
    R5        4.39728  -0.00019   0.00000   0.00824   0.00824   4.40552
    R6        2.55500  -0.00004   0.00000  -0.00125  -0.00125   2.55375
    R7        2.56200   0.00001   0.00000   0.00148   0.00148   2.56348
    R8        2.55890  -0.00006   0.00000  -0.00077  -0.00077   2.55813
    A1        0.99605   0.00439   0.00000  -0.05050  -0.04926   0.94678
    A2        1.83994  -0.00168   0.00000   0.02123   0.02122   1.86117
    A3        2.29916   0.00199   0.00000  -0.00236  -0.00446   2.29470
    A4        1.86941  -0.00100   0.00000  -0.01327  -0.01379   1.85562
    A5        2.13816   0.00103   0.00000  -0.02927  -0.03029   2.10787
    A6        1.30609  -0.00224   0.00000   0.04057   0.04207   1.34816
    A7        2.21959  -0.00078   0.00000   0.01341   0.01342   2.23302
    A8        1.68161  -0.00011   0.00000   0.03530   0.03572   1.71733
    A9        1.92264  -0.00009   0.00000   0.01247   0.01248   1.93512
   A10        1.82776   0.00069   0.00000  -0.04120  -0.04177   1.78599
   A11        1.71454  -0.00034   0.00000   0.00770   0.00770   1.72224
   A12        1.74780  -0.00011   0.00000   0.02015   0.02015   1.76795
   A13        1.72716  -0.00036   0.00000   0.00949   0.00949   1.73665
    D1        1.14419  -0.00243   0.00000  -0.01956  -0.01999   1.12420
    D2        2.19955   0.00177   0.00000  -0.06597  -0.06530   2.13425
    D3       -2.75649  -0.00100   0.00000   0.00566   0.00561  -2.75088
    D4       -0.86708  -0.00032   0.00000  -0.02140  -0.02160  -0.88868
    D5        3.03278  -0.00141   0.00000   0.07779   0.07738   3.11016
    D6        3.11598   0.00118   0.00000  -0.03004  -0.02893   3.08705
    D7        0.98649   0.00000   0.00000   0.01069   0.00981   0.99631
    D8       -0.98251  -0.00003   0.00000  -0.00471  -0.00453  -0.98704
    D9        1.46689   0.00320   0.00000   0.37533   0.37553   1.84242
   D10        0.39723  -0.00167   0.00000   0.44889   0.44927   0.84650
   D11       -2.82372   0.00064   0.00000   0.39941   0.39928  -2.42444
   D12       -1.03288   0.00078   0.00000   0.42547   0.42502  -0.60786
         Item               Value     Threshold  Converged?
 Maximum Force            0.004392     0.000450     NO 
 RMS     Force            0.001376     0.000300     NO 
 Maximum Displacement     0.663655     0.001800     NO 
 RMS     Displacement     0.165777     0.001200     NO 
 Predicted change in Energy=-7.427158D-04
 GradGradGradGradGradGradGradGradGradGradGradGradGradGradGradGradGradGrad

                          Input orientation:                          
 ---------------------------------------------------------------------
 Center     Atomic      Atomic             Coordinates (Angstroms)
 Number     Number       Type             X           Y           Z
 ---------------------------------------------------------------------
      1         42           0        1.795448    0.385772    0.336586
      2         16           0        0.326496   -1.198285   -0.005572
      3          1           0        0.403002    0.514761   -0.628136
      4         16           0        1.720207    0.885711    2.613028
      5          1           0        2.150531   -0.300547    3.096615
      6         16           0        1.938014    2.553930   -0.482162
      7          1           0        3.051594    3.003503    0.148717
      8         16           0        3.868325   -0.505230   -0.250148
      9          1           0        4.060318    0.132679   -1.428588
 ---------------------------------------------------------------------
                    Distance matrix (angstroms):
                    1          2          3          4          5
     1  Mo   0.000000
     2  S    2.187265   0.000000
     3  H    1.698892   1.824271   0.000000
     4  S    2.331907   3.625263   3.518207   0.000000
     5  H    2.866161   3.708990   4.194325   1.351385   0.000000
     6  S    2.321978   4.111355   2.556517   3.522868   4.582668
     7  H    2.909590   5.010488   3.716501   3.511476   4.518713
     8  S    2.331300   3.617277   3.632040   3.840170   3.767431
     9  H    2.882625   4.211635   3.763332   4.730522   4.930764
                    6          7          8          9
     6  S    0.000000
     7  H    1.356534   0.000000
     8  S    3.624692   3.624549   0.000000
     9  H    3.355943   3.427397   1.353703   0.000000
 Symmetry turned off by external request.
 Stoichiometry    H4MoS4
 Framework group  C1[X(H4MoS4)]
 Deg. of freedom    21
 Full point group                 C1      NOp   1
 Rotational constants (GHZ):           1.2142910           1.1194060           0.9599630
 Basis read from rwf:  (5D, 7F)
 Pseudo-potential data read from rwf file.
   114 basis functions,   285 primitive gaussians,   120 cartesian basis functions
    41 alpha electrons       41 beta electrons
       nuclear repulsion energy       489.2343991138 Hartrees.
 NAtoms=    9 NActive=    9 NUniq=    9 SFac= 1.00D+00 NAtFMM=   60 NAOKFM=F Big=F
 Integral buffers will be    131072 words long.
 Raffenetti 2 integral format.
 Two-electron integral symmetry is turned off.
 One-electron integrals computed using PRISM.
   1 Symmetry operations used in ECPInt.
 ECPInt:  NShTT=     820 NPrTT=    5722 LenC2=     798 LenP2D=    4209.
 LDataN:  DoStor=T MaxTD1= 5 Len=  102
 NBasis=   114 RedAO= T EigKep=  4.56D-03  NBF=   114
 NBsUse=   114 1.00D-06 EigRej= -1.00D+00 NBFU=   114
 Defaulting to unpruned grid for atomic number  42.
 Initial guess from the checkpoint file:  "/localscratch/chegho/Gau-86245.chk"
 B after Tr=    -0.074192    0.028811    0.041869
         Rot=    0.999865    0.006217   -0.006265    0.013890 Ang=   1.89 deg.
 ExpMin= 2.47D-02 ExpMax= 2.19D+04 ExpMxC= 3.30D+03 IAcc=3 IRadAn=         5 AccDes= 0.00D+00
 Harris functional with IExCor=  402 and IRadAn=       5 diagonalized for initial guess.
 HarFok:  IExCor=  402 AccDes= 0.00D+00 IRadAn=         5 IDoV= 1 UseB2=F ITyADJ=14
 ICtDFT=  3500011 ScaDFX=  1.000000  1.000000  1.000000  1.000000
 Defaulting to unpruned grid for atomic number  42.
 FoFCou: FMM=F IPFlag=           0 FMFlag=      100000 FMFlg1=           0
         NFxFlg=           0 DoJE=T BraDBF=F KetDBF=T FulRan=T
         wScrn=  0.000000 ICntrl=       500 IOpCl=  0 I1Cent=   200000004 NGrid=           0
         NMat0=    1 NMatS0=      1 NMatT0=    0 NMatD0=    1 NMtDS0=    0 NMtDT0=    0
 Symmetry not used in FoFCou.
 Keep R1 ints in memory in canonical form, NReq=44221704.
 Requested convergence on RMS density matrix=1.00D-08 within 128 cycles.
 Requested convergence on MAX density matrix=1.00D-06.
 Requested convergence on             energy=1.00D-06.
 No special actions if energy rises.
 Defaulting to unpruned grid for atomic number  42.
 Defaulting to unpruned grid for atomic number  42.
 Defaulting to unpruned grid for atomic number  42.
 Defaulting to unpruned grid for atomic number  42.
 Defaulting to unpruned grid for atomic number  42.
 Defaulting to unpruned grid for atomic number  42.
 Defaulting to unpruned grid for atomic number  42.
 Defaulting to unpruned grid for atomic number  42.
 Defaulting to unpruned grid for atomic number  42.
 Defaulting to unpruned grid for atomic number  42.
 Defaulting to unpruned grid for atomic number  42.
 Defaulting to unpruned grid for atomic number  42.
 Defaulting to unpruned grid for atomic number  42.
 Defaulting to unpruned grid for atomic number  42.
 Defaulting to unpruned grid for atomic number  42.
 Defaulting to unpruned grid for atomic number  42.
 Defaulting to unpruned grid for atomic number  42.
 Defaulting to unpruned grid for atomic number  42.
 Defaulting to unpruned grid for atomic number  42.
 Defaulting to unpruned grid for atomic number  42.
 Defaulting to unpruned grid for atomic number  42.
 Defaulting to unpruned grid for atomic number  42.
 Defaulting to unpruned grid for atomic number  42.
 Defaulting to unpruned grid for atomic number  42.
 SCF Done:  E(RB3LYP) =  -1662.74581206     A.U. after   16 cycles
            NFock= 16  Conv=0.49D-08     -V/T= 2.0301
   1 Symmetry operations used in ECPInt.
 ECPInt:  NShTT=     820 NPrTT=    5722 LenC2=     798 LenP2D=    4209.
 LDataN:  DoStor=T MaxTD1= 6 Len=  172
 Calling FoFJK, ICntrl=      2127 FMM=F ISym2X=0 I1Cent= 0 IOpClX= 0 NMat=1 NMatS=1 NMatT=0.
 Defaulting to unpruned grid for atomic number  42.
 Defaulting to unpruned grid for atomic number  42.
 Defaulting to unpruned grid for atomic number  42.
 Defaulting to unpruned grid for atomic number  42.
 Defaulting to unpruned grid for atomic number  42.
 Defaulting to unpruned grid for atomic number  42.
 Defaulting to unpruned grid for atomic number  42.
 Defaulting to unpruned grid for atomic number  42.
 Defaulting to unpruned grid for atomic number  42.
 Defaulting to unpruned grid for atomic number  42.
 Defaulting to unpruned grid for atomic number  42.
 Defaulting to unpruned grid for atomic number  42.
 Defaulting to unpruned grid for atomic number  42.
 Defaulting to unpruned grid for atomic number  42.
 Defaulting to unpruned grid for atomic number  42.
 Defaulting to unpruned grid for atomic number  42.
 Defaulting to unpruned grid for atomic number  42.
 Defaulting to unpruned grid for atomic number  42.
 Defaulting to unpruned grid for atomic number  42.
 Defaulting to unpruned grid for atomic number  42.
 Defaulting to unpruned grid for atomic number  42.
 Defaulting to unpruned grid for atomic number  42.
 Defaulting to unpruned grid for atomic number  42.
 Defaulting to unpruned grid for atomic number  42.
 -------------------------------------------------------------------
 Center     Atomic                   Forces (Hartrees/Bohr)
 Number     Number              X              Y              Z
 -------------------------------------------------------------------
      1       42          -0.003435921   -0.003578624   -0.001024935
      2       16           0.001381597   -0.000821803    0.001907205
      3        1           0.002338564    0.002308891   -0.001487437
      4       16           0.000481148   -0.000012599   -0.000085485
[...]
 Vib (Bot)    9  0.494128D+00         -0.306160         -0.704960
 Vib (Bot)   10  0.471601D+00         -0.326426         -0.751623
 Vib (Bot)   11  0.414763D+00         -0.382200         -0.880047
 Vib (Bot)   12  0.314372D+00         -0.502556         -1.157177
 Vib (V=0)       0.279766D+03          2.446795          5.633954
 Vib (V=0)    1  0.366295D+01          0.563831          1.298269
 Vib (V=0)    2  0.238351D+01          0.377217          0.868573
 Vib (V=0)    3  0.210528D+01          0.323309          0.744446
 Vib (V=0)    4  0.198766D+01          0.298342          0.686957
 Vib (V=0)    5  0.168203D+01          0.225834          0.520001
 Vib (V=0)    6  0.143583D+01          0.157103          0.361744
 Vib (V=0)    7  0.126152D+01          0.100894          0.232317
 Vib (V=0)    8  0.120454D+01          0.080820          0.186095
 Vib (V=0)    9  0.120297D+01          0.080254          0.184791
 Vib (V=0)   10  0.118732D+01          0.074567          0.171698
 Vib (V=0)   11  0.114964D+01          0.060561          0.139447
 Vib (V=0)   12  0.109062D+01          0.037673          0.086745
 Electronic      0.100000D+01          0.000000          0.000000
 Translational   0.136946D+09          8.136550         18.735099
 Rotational      0.758117D+06          5.879736         13.538592
 -------------------------------------------------------------------
 Center     Atomic                   Forces (Hartrees/Bohr)
 Number     Number              X              Y              Z
 -------------------------------------------------------------------
      1       42          -0.000030840    0.000014102   -0.000049528
      2       16          -0.000009567   -0.000002439    0.000004241
      3        1           0.000038543   -0.000010130    0.000031381
      4       16          -0.000002413   -0.000006347    0.000002265
      5        1           0.000003743    0.000002794    0.000000929
      6       16           0.000004678   -0.000003227    0.000002366
      7        1          -0.000002049    0.000002264    0.000002046
      8       16          -0.000000977   -0.000001735    0.000007628
      9        1          -0.000001118    0.000004719   -0.000001329
 -------------------------------------------------------------------
 Cartesian Forces:  Max     0.000049528 RMS     0.000015521
 FormGI is forming the generalized inverse of G from B-inverse, IUseBI=4.

 GradGradGradGradGradGradGradGradGradGradGradGradGradGradGradGradGradGrad
 Berny optimization.
 Internal  Forces:  Max     0.000050095 RMS     0.000009946
 Search for a saddle point.
 Step number   1 out of a maximum of    2
 All quantities printed in internal units (Hartrees-Bohrs-Radians)
 Swapping is turned off.
 Second derivative matrix not updated -- analytic derivatives used.
 ITU=  0
     Eigenvalues ---   -0.06511   0.00298   0.00497   0.00570   0.04096
     Eigenvalues ---    0.04792   0.05492   0.05957   0.06855   0.09371
     Eigenvalues ---    0.09979   0.10940   0.12633   0.12703   0.13836
     Eigenvalues ---    0.14653   0.15284   0.23896   0.25497   0.25708
     Eigenvalues ---    0.26124
 Eigenvectors required to have negative eigenvalues:
                          A1        D10       D1        R2        D2
   1                   -0.54552   0.31381   0.29935   0.29224  -0.28505
                          A3        D9        A6        R1        A4
   1                   -0.28133  -0.28069   0.25585   0.15076   0.12904
 Angle between quadratic step and forces=  66.66 degrees.
 Linear search not attempted -- option 19 set.
 Iteration  1 RMS(Cart)=  0.00039973 RMS(Int)=  0.00000008
 Iteration  2 RMS(Cart)=  0.00000007 RMS(Int)=  0.00000001
 Variable       Old X    -DE/DX   Delta X   Delta X   Delta X     New X
                                 (Linear)    (Quad)   (Total)
    R1        4.14455   0.00001   0.00000   0.00003   0.00003   4.14457
    R2        3.21828  -0.00005   0.00000  -0.00038  -0.00038   3.21790
    R3        4.39532   0.00000   0.00000   0.00001   0.00001   4.39533
    R4        4.39885  -0.00000   0.00000   0.00000   0.00000   4.39885
    R5        4.38084  -0.00000   0.00000  -0.00003  -0.00003   4.38082
    R6        2.55508  -0.00000   0.00000  -0.00000  -0.00000   2.55508
    R7        2.56290   0.00000   0.00000  -0.00000  -0.00000   2.56290
    R8        2.56046   0.00000   0.00000   0.00001   0.00001   2.56047
    A1        0.92201  -0.00000   0.00000  -0.00004  -0.00004   0.92197
    A2        1.84456  -0.00001   0.00000  -0.00011  -0.00011   1.84445
    A3        2.26076   0.00000   0.00000  -0.00009  -0.00009   2.26068
    A4        1.88890   0.00001   0.00000   0.00014   0.00014   1.88904
    A5        2.15624   0.00000   0.00000   0.00010   0.00010   2.15633
    A6        1.34658   0.00001   0.00000   0.00000   0.00000   1.34659
    A7        2.20716   0.00000   0.00000   0.00000   0.00000   2.20716
    A8        1.67040   0.00000   0.00000  -0.00011  -0.00011   1.67029
    A9        1.90975  -0.00001   0.00000  -0.00010  -0.00010   1.90965
   A10        1.86037  -0.00000   0.00000   0.00019   0.00019   1.86056
   A11        1.71745   0.00000   0.00000  -0.00003  -0.00003   1.71742
   A12        1.77244   0.00000   0.00000   0.00002   0.00002   1.77245
   A13        1.72596  -0.00001   0.00000  -0.00011  -0.00011   1.72585
    D1        1.19227   0.00001   0.00000   0.00069   0.00069   1.19296
    D2        2.16044  -0.00000   0.00000   0.00057   0.00057   2.16100
    D3       -2.75519   0.00001   0.00000   0.00050   0.00050  -2.75469
    D4       -0.83799   0.00000   0.00000   0.00064   0.00064  -0.83735
    D5        2.94874  -0.00001   0.00000  -0.00077  -0.00077   2.94797
    D6        3.07749   0.00000   0.00000  -0.00035  -0.00035   3.07714
    D7        0.92817  -0.00000   0.00000  -0.00047  -0.00047   0.92770
    D8       -1.03075   0.00000   0.00000  -0.00036  -0.00036  -1.03111
    D9        1.62018   0.00001   0.00000   0.00030   0.00030   1.62048
   D10        0.62892   0.00001   0.00000   0.00025   0.00025   0.62918
   D11       -2.66108  -0.00000   0.00000   0.00019   0.00019  -2.66088
   D12       -0.87352  -0.00000   0.00000   0.00011   0.00011  -0.87341
         Item               Value     Threshold  Converged?
 Maximum Force            0.000050     0.000450     YES
 RMS     Force            0.000010     0.000300     YES
 Maximum Displacement     0.001143     0.001800     YES
 RMS     Displacement     0.000400     0.001200     YES
 Predicted change in Energy=-1.958947D-08
 Optimization completed.
    -- Stationary point found.
                           ----------------------------
                           !   Optimized Parameters   !
                           ! (Angstroms and Degrees)  !
 --------------------------                            --------------------------
 ! Name  Definition              Value          Derivative Info.                !
 --------------------------------------------------------------------------------
 ! R1    R(1,2)                  2.1932         -DE/DX =    0.0                 !
 ! R2    R(1,3)                  1.703          -DE/DX =   -0.0001              !
 ! R3    R(1,4)                  2.3259         -DE/DX =    0.0                 !
 ! R4    R(1,6)                  2.3278         -DE/DX =    0.0                 !
 ! R5    R(1,8)                  2.3182         -DE/DX =    0.0                 !
 ! R6    R(4,5)                  1.3521         -DE/DX =    0.0                 !
 ! R7    R(6,7)                  1.3562         -DE/DX =    0.0                 !
 ! R8    R(8,9)                  1.3549         -DE/DX =    0.0                 !
 ! A1    A(2,1,3)               52.8274         -DE/DX =    0.0                 !
 ! A2    A(2,1,4)              105.6854         -DE/DX =    0.0                 !
 ! A3    A(2,1,6)              129.5321         -DE/DX =    0.0                 !
 ! A4    A(2,1,8)              108.226          -DE/DX =    0.0                 !
 ! A5    A(3,1,4)              123.5432         -DE/DX =    0.0                 !
 ! A6    A(3,1,6)               77.1536         -DE/DX =    0.0                 !
 ! A7    A(3,1,8)              126.4609         -DE/DX =    0.0                 !
 ! A8    A(4,1,6)               95.7071         -DE/DX =    0.0                 !
 ! A9    A(4,1,8)              109.4208         -DE/DX =    0.0                 !
 ! A10   A(6,1,8)              106.5914         -DE/DX =    0.0                 !
 ! A11   A(1,4,5)               98.4027         -DE/DX =    0.0                 !
 ! A12   A(1,6,7)              101.5531         -DE/DX =    0.0                 !
 ! A13   A(1,8,9)               98.8903         -DE/DX =    0.0                 !
 ! D1    D(2,1,4,5)             68.3121         -DE/DX =    0.0                 !
 ! D2    D(3,1,4,5)            123.7838         -DE/DX =    0.0                 !
 ! D3    D(6,1,4,5)           -157.8605         -DE/DX =    0.0                 !
 ! D4    D(8,1,4,5)            -48.0132         -DE/DX =    0.0                 !
 ! D5    D(2,1,6,7)            168.9502         -DE/DX =    0.0                 !
 ! D6    D(3,1,6,7)            176.3271         -DE/DX =    0.0                 !
 ! D7    D(4,1,6,7)             53.1804         -DE/DX =    0.0                 !
 ! D8    D(8,1,6,7)            -59.0575         -DE/DX =    0.0                 !
 ! D9    D(2,1,8,9)             92.8294         -DE/DX =    0.0                 !
 ! D10   D(3,1,8,9)             36.0347         -DE/DX =    0.0                 !
 ! D11   D(4,1,8,9)           -152.4684         -DE/DX =    0.0                 !
 ! D12   D(6,1,8,9)            -50.0488         -DE/DX =    0.0                 !
 --------------------------------------------------------------------------------
 GradGradGradGradGradGradGradGradGradGradGradGradGradGradGradGradGradGrad


 ----------------------------------------------------------------------

 Electric dipole moment (input orientation):
 (Debye = 10**-18 statcoulomb cm , SI units = C m)
                  (au)            (Debye)         (10**-30 SI)
   Tot        0.601616D+00      0.152916D+01      0.510072D+01
   x          0.558825D+00      0.142039D+01      0.473791D+01
   y          0.184492D+00      0.468931D+00      0.156419D+01
   z         -0.124979D+00     -0.317666D+00     -0.105962D+01

 Dipole polarizability, Alpha (input orientation).
 (esu units = cm**3 , SI units = C**2 m**2 J**-1)
 Alpha(0;0):
               (au)            (10**-24 esu)      (10**-40 SI)
   iso        0.125857D+03      0.186501D+02      0.207510D+02
   aniso      0.253981D+02      0.376360D+01      0.418757D+01
   xx         0.124528D+03      0.184531D+02      0.205319D+02
   yx         0.108350D+02      0.160558D+01      0.178645D+01
   yy         0.135327D+03      0.200534D+02      0.223124D+02
   zx        -0.224498D+01     -0.332671D+00     -0.370147D+00
   zy         0.370463D+01      0.548970D+00      0.610812D+00
   zz         0.117716D+03      0.174437D+02      0.194088D+02

 ----------------------------------------------------------------------

 Dipole orientation:
    42          1.35659678         -0.05983012          3.33517060
    16          0.64793113          2.14397644         -0.10260496
     1         -1.23327383         -0.20700762          1.43037877
    16          5.06355306         -2.29445539          2.57109946
     1          6.68807216         -0.32259198          2.53779502
    16         -0.87819409         -3.47072375          4.98482346
     1          0.71756361         -4.29369412          6.81369152
    16          1.99712914          2.73546618          6.64694318
     1         -0.40569938          2.87057573          7.52107205

 Electric dipole moment (dipole orientation):
 (Debye = 10**-18 statcoulomb cm , SI units = C m)
                  (au)            (Debye)         (10**-30 SI)
   Tot        0.601616D+00      0.152916D+01      0.510072D+01
   x          0.000000D+00      0.000000D+00      0.000000D+00
   y          0.000000D+00      0.000000D+00      0.000000D+00
   z          0.601616D+00      0.152916D+01      0.510072D+01

 Dipole polarizability, Alpha (dipole orientation).
 (esu units = cm**3 , SI units = C**2 m**2 J**-1)
 Alpha(0;0):
               (au)            (10**-24 esu)      (10**-40 SI)
   iso        0.125857D+03      0.186501D+02      0.207510D+02
   aniso      0.253981D+02      0.376360D+01      0.418757D+01
   xx         0.114977D+03      0.170379D+02      0.189572D+02
   yx        -0.236777D+01     -0.350868D+00     -0.390393D+00
   yy         0.130777D+03      0.193792D+02      0.215622D+02
   zx        -0.145842D+01     -0.216115D+00     -0.240460D+00
   zy        -0.108740D+02     -0.161136D+01     -0.179288D+01
   zz         0.131816D+03      0.195332D+02      0.217336D+02

 ----------------------------------------------------------------------
 Unable to Open any file for archive entry.
 1\1\GINC-NODE7\Freq\RB3LYP\Gen\H4Mo1S4\CHEGHO\07-Jul-2023\0\\#N Geom=A
 llCheck Guess=TCheck SCRF=Check GenChk RB3LYP/ChkBas Freq\\Title Card 
 Required\\0,1\Mo,1.8369256978,0.4011050853,0.3098899615\S,0.3150756786
 ,-1.1437196859,-0.0181569477\H,0.4908585099,0.4870545383,-0.7298511705
 \S,1.7427086153,0.9048934144,2.5786247931\H,2.2179638915,-0.2654795471
 ,3.0608098774\S,1.884331725,2.6121494795,-0.4164312209\H,2.9217521571,
 3.1113581175,0.3004451056\S,3.9104696126,-0.5054407905,-0.1929438002\H
 ,3.9938481122,-0.1296276114,-1.4920445983\\Version=ES64L-G16RevC.01\HF
 =-1662.746163\RMSD=1.196e-09\RMSF=1.552e-05\ZeroPoint=0.0358424\Therma
 l=0.0449632\ETot=-1662.7011998\HTot=-1662.7002556\GTot=-1662.7461124\D
 ipole=0.5588248,0.1844917,-0.1249793\DipoleDeriv=0.9979599,0.1573119,-
 0.1848453,0.0891234,0.9291418,0.1587109,-0.1263736,0.3966646,0.8530231
 ,-0.5820774,-0.4068793,-0.1635109,-0.7385337,-0.4625189,-0.3304449,-0.
 0553073,-0.1594468,-0.0463858,0.1969735,0.1036092,0.0593225,0.2770743,
 0.2114991,0.1156607,0.0023995,0.037825,-0.0137247,-0.1101208,-0.114226
 9,-0.0268782,0.0359233,0.1573427,-0.1298284,0.0117158,-0.1021093,-0.73
 81507,0.1071896,0.074579,0.0064522,0.0345473,-0.0406317,-0.0009509,-0.
 0287558,-0.0820074,0.0296059,0.020539,-0.1262329,0.1824393,0.0005994,-
 0.7357558,0.195647,0.0987206,0.1168688,-0.0510767,0.0165903,-0.0084193
 ,-0.0606094,0.002632,-0.039717,0.0655032,-0.0782483,-0.0056042,0.01012
 7,-0.6885667,0.206442,0.2411016,0.2826131,-0.0878532,-0.1158933,0.1710
 638,-0.2535482,-0.0339809,0.0415128,0.1138164,-0.0534718,0.0160208,0.0
 68493,0.0415958,0.0047852,0.0513576,-0.0094372\Polar=124.5278134,10.83
 49816,135.326936,-2.2449775,3.7046347,117.7162317\Quadrupole=1.2125867
 ,-2.3187782,1.1061915,2.1449537,-0.6934772,-1.1038735\PG=C01 [X(H4Mo1S
 4)]\NImag=1\\0.26252437,0.00127993,0.28556365,0.03464747,-0.02809111,0
 .25377134,-0.07419570,-0.08189483,-0.00399437,0.09988827,-0.10506652,-
 0.12568566,-0.01450943,0.10980249,0.13102641,0.00628507,0.00433387,-0.
 00341819,0.00618393,0.01891796,0.00857551,-0.05120869,0.03409181,-0.04
 011295,-0.01591963,0.00527959,-0.00979423,0.06193659,0.06018415,0.0057
 0827,0.02973237,-0.01535674,-0.00590662,-0.01116179,-0.03409854,0.0063
 1514,-0.05160180,0.00646553,-0.06251198,0.00096016,0.00649906,-0.00649
 930,0.04777543,-0.01679624,0.06206545,-0.01694468,0.01129161,0.0043374
 0,-0.00025381,-0.00240871,-0.00545617,0.00511347,-0.00287921,-0.001207
 93,0.05020554,0.01078383,-0.02661232,-0.01135350,0.00037599,0.00068940
 ,-0.01091931,-0.00661090,-0.00130497,0.00342487,-0.08419082,0.22444802
 ,0.01072577,-0.02688206,-0.11017741,-0.00729737,-0.00391427,-0.0038913
 7,-0.00486942,-0.00227333,-0.00207079,0.02687385,-0.04936307,0.1558728
 4,-0.00227464,-0.00552623,-0.00313229,0.00164844,0.00024251,0.00196206
 ,0.00009535,0.00288098,-0.00110051,-0.03698573,0.08081340,-0.03054371,
 0.03537126,-0.00366739,0.00174791,-0.00243581,-0.00052941,-0.00084003,
 0.00051862,0.00110160,0.00145054,-0.00090942,0.08010987,-0.20088410,0.
 07600680,-0.07842646,0.19869654,-0.00724123,0.01104456,-0.01226815,-0.
 00057982,-0.00158889,0.00174218,0.00300005,0.00064051,-0.00100729,-0.0
 2724277,0.06720359,-0.03676894,0.03119850,-0.07488320,0.04758304,-0.02
 434500,0.00509610,-0.01615357,-0.00045738,-0.00720607,0.00364943,0.003
 06101,-0.00548426,0.00717369,-0.00152986,-0.00018980,0.00201109,0.0010
 1600,0.00008224,-0.00031571,0.17556421,0.01422580,-0.09723092,0.043889
 07,-0.01129141,-0.00295218,-0.00718034,-0.00486483,-0.00799148,-0.0005
 6312,-0.00059888,0.00312663,0.00691217,-0.00078323,-0.00029706,-0.0019
 3295,0.06046248,0.14629810,-0.01569777,0.03853053,-0.03421486,0.001923
 87,-0.00410648,0.00266926,0.00554128,-0.00486745,0.00154437,-0.0037423
 4,0.00360768,-0.00479247,0.00259017,0.00168258,0.00018403,0.11049254,0
 .00697457,0.11548388,0.00103205,-0.00522087,0.00094966,-0.00027673,0.0
 0141315,0.00008476,0.00106131,-0.00134395,-0.00191118,-0.00066886,0.00
 029965,-0.00152910,0.00077801,0.00041985,0.00023415,-0.15431263,-0.063
 45523,-0.10041908,0.15209355,-0.01358035,-0.00532825,-0.01019065,-0.00
 002441,-0.00375459,0.00166279,0.00288831,-0.00071637,0.00328415,-0.001
 03013,-0.00041821,0.00175637,0.00056518,0.00041736,0.00006111,-0.05759
 154,-0.03760927,-0.03985136,0.06828448,0.04713873,0.00257025,0.0001050
 0,0.00404182,0.00061522,-0.00028349,-0.00042948,-0.00121869,0.00100110
 ,0.00236552,0.00185105,-0.00039354,0.00038213,-0.00060035,-0.00023539,
 0.00016661,-0.10288961,-0.04531790,-0.08431288,0.10068643,0.04400447,0
 .07898274,-0.09235614,0.04421390,0.00828382,-0.00915186,-0.00229782,-0
 .00375284,-0.00581484,-0.00338267,0.00178253,0.00168750,-0.00238277,0.
 00664864,0.00047750,0.00136801,0.00124001,0.00098094,0.00402818,0.0010
 4089,0.00112460,0.00052480,-0.00194257,0.11297986,0.03205822,-0.042892
 60,-0.00292076,0.00102233,0.00799250,0.00460624,0.00179986,0.00338024,
 -0.00314519,-0.00107545,0.00201130,-0.00141310,0.00031647,-0.00016141,
 -0.00082548,0.00692835,-0.00332437,-0.00064953,-0.00075699,0.00128956,
 0.00127568,-0.04112968,0.05681405,0.01172741,-0.00552385,-0.03173692,0
 .00311533,-0.00131785,0.00215480,0.00084331,0.00533860,0.00571778,0.00
 437518,-0.00183204,0.00144885,-0.00034028,0.00014607,0.00019639,-0.002
 73526,-0.00399939,0.00334836,0.00180036,-0.00027664,-0.00108499,-0.025
 31533,-0.06447379,0.25222093,-0.00223156,-0.00333142,0.01517484,-0.001
 28159,0.00024138,0.00083800,0.00167543,-0.00051976,-0.00187038,-0.0006
 2358,0.00110142,-0.00201975,-0.00012618,-0.00045829,-0.00029317,0.0000
 2270,0.00227712,-0.00172956,-0.00083130,-0.00003634,0.00092827,-0.0099
 2757,0.00083690,0.00652928,0.01332365,0.00378234,0.00472992,-0.0041201
 8,-0.00210400,-0.00056923,-0.00077805,0.00041311,-0.00093476,0.0017403
 5,0.00078173,-0.00105576,-0.00082951,-0.00008262,-0.00012974,0.0002807
 5,-0.00209750,-0.00001946,-0.00132053,0.00035992,-0.00101895,-0.000155
 94,-0.00094196,-0.02510928,0.07193888,-0.00011102,0.02410726,0.0085848
 4,0.00001752,-0.00348564,-0.00092695,0.00030339,-0.00090342,-0.0011647
 8,-0.00161377,0.00039624,0.00021173,-0.00037469,-0.00000285,-0.0000336
 0,0.00010975,0.00017214,-0.00123258,0.00121789,0.00009030,0.00010400,-
 0.00045024,-0.00011147,0.01201487,0.06754592,-0.23226521,-0.01755753,-
 0.06675577,0.23610990\\0.00003084,-0.00001410,0.00004953,0.00000957,0.
 00000244,-0.00000424,-0.00003854,0.00001013,-0.00003138,0.00000241,0.0
 0000635,-0.00000227,-0.00000374,-0.00000279,-0.00000093,-0.00000468,0.
 00000323,-0.00000237,0.00000205,-0.00000226,-0.00000205,0.00000098,0.0
 0000174,-0.00000763,0.00000112,-0.00000472,0.00000133\\\@
 The archive entry for this job was punched.


 AND ALL THIS SCIENCE I DON'T UNDERSTAND
 IT'S JUST MY JOB FIVE DAYS A WEEK

                           -- ELTON JOHN, "ROCKET MAN"
 Job cpu time:       0 days  0 hours  4 minutes  1.3 seconds.
 Elapsed time:       0 days  0 hours  0 minutes 10.7 seconds.
 File lengths (MBytes):  RWF=     97 Int=      0 D2E=      0 Chk=      3 Scr=      2
 Normal termination of Gaussian 16 at Fri Jul  7 10:55:51 2023.
