 Entering Gaussian System, Link 0=/mnt/lustre/che2/chegho/softwares/G16_AVX2/g16/g16
 Initial command:
 /mnt/lustre/che2/chegho/softwares/G16_AVX2/g16/l1.exe "/mnt/lustre/che2/chegho/scratch/Gau-29171.inp" -scrdir="/mnt/lustre/che2/chegho/scratch/"
 Entering Link 1 = /mnt/lustre/che2/chegho/softwares/G16_AVX2/g16/l1.exe PID=     29172.
  
 Copyright (c) 1988-2019, Gaussian, Inc.  All Rights Reserved.
  
 This is part of the Gaussian(R) 16 program.  It is based on
 the Gaussian(R) 09 system (copyright 2009, Gaussian, Inc.),
 the Gaussian(R) 03 system (copyright 2003, Gaussian, Inc.),
 the Gaussian(R) 98 system (copyright 1998, Gaussian, Inc.),
 the Gaussian(R) 94 system (copyright 1995, Gaussian, Inc.),
 the Gaussian 92(TM) system (copyright 1992, Gaussian, Inc.),
 the Gaussian 90(TM) system (copyright 1990, Gaussian, Inc.),
 the Gaussian 88(TM) system (copyright 1988, Gaussian, Inc.),
 the Gaussian 86(TM) system (copyright 1986, Carnegie Mellon
 University), and the Gaussian 82(TM) system (copyright 1983,
 Carnegie Mellon University). Gaussian is a federally registered
 trademark of Gaussian, Inc.
  
 This software contains proprietary and confidential information,
 including trade secrets, belonging to Gaussian, Inc.
  
 This software is provided under written license and may be
 used, copied, transmitted, or stored only in accord with that
 written license.
  
 The following legend is applicable only to US Government
 contracts under FAR:
  
                    RESTRICTED RIGHTS LEGEND
  
 Use, reproduction and disclosure by the US Government is
 subject to restrictions as set forth in subparagraphs (a)
 and (c) of the Commercial Computer Software - Restricted
 Rights clause in FAR 52.227-19.
  
 Gaussian, Inc.
 340 Quinnipiac St., Bldg. 40, Wallingford CT 06492
  
  
 ---------------------------------------------------------------
 Warning -- This program may not be used in any manner that
 competes with the business of Gaussian, Inc. or will provide
 assistance to any competitor of Gaussian, Inc.  The licensee
 of this program is prohibited from giving any competitor of
 Gaussian, Inc. access to this program.  By using this program,
 the user acknowledges that Gaussian, Inc. is engaged in the
 business of creating and licensing software in the field of
 computational chemistry and represents and warrants to the
 licensee that it is not a competitor of Gaussian, Inc. and that
 it will not use this program in any manner prohibited above.
 ---------------------------------------------------------------
  

 Cite this work as:
 Gaussian 16, Revision C.01,
 M. J. Frisch, G. W. Trucks, H. B. Schlegel, G. E. Scuseria, 
 M. A. Robb, J. R. Cheeseman, G. Scalmani, V. Barone, 
 G. A. Petersson, H. Nakatsuji, X. Li, M. Caricato, A. V. Marenich, 
 J. Bloino, B. G. Janesko, R. Gomperts, B. Mennucci, H. P. Hratchian, 
 J. V. Ortiz, A. F. Izmaylov, J. L. Sonnenberg, D. Williams-Young, 
 F. Ding, F. Lipparini, F. Egidi, J. Goings, B. Peng, A. Petrone, 
 T. Henderson, D. Ranasinghe, V. G. Zakrzewski, J. Gao, N. Rega, 
 G. Zheng, W. Liang, M. Hada, M. Ehara, K. Toyota, R. Fukuda, 
 J. Hasegawa, M. Ishida, T. Nakajima, Y. Honda, O. Kitao, H. Nakai, 
 T. Vreven, K. Throssell, J. A. Montgomery, Jr., J. E. Peralta, 
 F. Ogliaro, M. J. Bearpark, J. J. Heyd, E. N. Brothers, K. N. Kudin, 
 V. N. Staroverov, T. A. Keith, R. Kobayashi, J. Normand, 
 K. Raghavachari, A. P. Rendell, J. C. Burant, S. S. Iyengar, 
 J. Tomasi, M. Cossi, J. M. Millam, M. Klene, C. Adamo, R. Cammi, 
 J. W. Ochterski, R. L. Martin, K. Morokuma, O. Farkas, 
 J. B. Foresman, and D. J. Fox, Gaussian, Inc., Wallingford CT, 2019.
 
 ******************************************
 Gaussian 16:  ES64L-G16RevC.01  3-Jul-2019
                 2-Jan-2022 
 ******************************************
 %nprocshared=24
 Will use up to   24 processors via shared memory.
 %chk=Mo2_S2_SH_4.chk
 %mem=4GB
 ---------------------------------------
 # opt freq b3lyp/gen nosymm pseudo=read
 ---------------------------------------
 1/18=20,19=15,26=3,38=1/1,3;
 2/9=110,12=2,15=1,17=6,18=5,40=1/2;
 3/5=7,11=2,16=1,17=8,25=1,30=1,71=1,74=-5/1,2,3;
 4//1;
 5/5=2,38=5/2;
 6/7=2,8=2,9=2,10=2,28=1/1;
 7/30=1/1,2,3,16;
 1/18=20,19=15,26=3/3(2);
 2/9=110,15=1/2;
 99//99;
 2/9=110,15=1/2;
 3/5=7,6=1,11=2,16=1,17=8,25=1,30=1,71=1,74=-5,82=7/1,2,3;
 4/5=5,16=3,69=1/1;
 5/5=2,38=5/2;
 7/30=1/1,2,3,16;
 1/18=20,19=15,26=3/3(-5);
 2/9=110,15=1/2;
 6/7=2,8=2,9=2,10=2,19=2,28=1/1;
 99/9=1/99;
 -------------------
 Title Card Required
 -------------------
 Symbolic Z-matrix:
 Charge =  0 Multiplicity = 1
 42                   -0.34459   1.8332    10.94231 
 16                    1.20554   3.53649   10.63237 
 16                   -2.19479   2.78705   11.62956 
 16                   -0.67227   0.7989    8.9606 
 16                    0.2049    0.23287   12.53473 
 1                     0.99924  -0.52898   11.74546 
 1                     2.01244   2.87675   9.76769 
 42                   -2.74973   1.7443    9.50949 
 16                   -4.41943   0.48365   10.57156 
 1                    -4.93501  -0.30238   9.59945 
 16                   -3.39601   3.83123   8.65502 
 1                    -3.74318   3.59011   7.37049 
 

 GradGradGradGradGradGradGradGradGradGradGradGradGradGradGradGradGradGrad
 Berny optimization.
 Initialization pass.
                           ----------------------------
                           !    Initial Parameters    !
                           ! (Angstroms and Degrees)  !
 --------------------------                            --------------------------
 ! Name  Definition              Value          Derivative Info.                !
 --------------------------------------------------------------------------------
 ! R1    R(1,2)                  2.3238         estimate D2E/DX2                !
 ! R2    R(1,3)                  2.1921         estimate D2E/DX2                !
 ! R3    R(1,4)                  2.2593         estimate D2E/DX2                !
 ! R4    R(1,5)                  2.3235         estimate D2E/DX2                !
 ! R5    R(1,8)                  2.801          estimate D2E/DX2                !
 ! R6    R(2,7)                  1.3543         estimate D2E/DX2                !
 ! R7    R(3,8)                  2.4269         estimate D2E/DX2                !
 ! R8    R(4,8)                  2.3475         estimate D2E/DX2                !
 ! R9    R(5,6)                  1.3544         estimate D2E/DX2                !
 ! R10   R(8,9)                  2.3463         estimate D2E/DX2                !
 ! R11   R(8,11)                 2.3459         estimate D2E/DX2                !
 ! R12   R(9,10)                 1.3523         estimate D2E/DX2                !
 ! R13   R(11,12)                1.3523         estimate D2E/DX2                !
 ! A1    A(2,1,3)              106.6122         estimate D2E/DX2                !
 ! A2    A(2,1,4)              108.3799         estimate D2E/DX2                !
 ! A3    A(2,1,5)              116.0076         estimate D2E/DX2                !
 ! A4    A(2,1,8)              121.8584         estimate D2E/DX2                !
 ! A5    A(3,1,4)              110.596          estimate D2E/DX2                !
 ! A6    A(3,1,5)              106.525          estimate D2E/DX2                !
 ! A7    A(4,1,5)              108.6711         estimate D2E/DX2                !
 ! A8    A(5,1,8)              122.1262         estimate D2E/DX2                !
 ! A9    A(1,2,7)               97.2119         estimate D2E/DX2                !
 ! A10   A(1,5,6)               97.2811         estimate D2E/DX2                !
 ! A11   A(1,8,9)              113.3632         estimate D2E/DX2                !
 ! A12   A(1,8,11)             113.2446         estimate D2E/DX2                !
 ! A13   A(3,8,4)              100.0746         estimate D2E/DX2                !
 ! A14   A(3,8,9)               89.894          estimate D2E/DX2                !
 ! A15   A(3,8,11)              89.9401         estimate D2E/DX2                !
 ! A16   A(4,8,9)              121.2798         estimate D2E/DX2                !
 ! A17   A(4,8,11)             121.1251         estimate D2E/DX2                !
 ! A18   A(9,8,11)             116.5394         estimate D2E/DX2                !
 ! A19   A(8,9,10)             104.9651         estimate D2E/DX2                !
 ! A20   A(8,11,12)            104.9573         estimate D2E/DX2                !
 ! D1    D(3,1,2,7)           -157.6315         estimate D2E/DX2                !
 ! D2    D(4,1,2,7)            -38.556          estimate D2E/DX2                !
 ! D3    D(5,1,2,7)             83.9552         estimate D2E/DX2                !
 ! D4    D(8,1,2,7)            -97.0405         estimate D2E/DX2                !
 ! D5    D(2,1,5,6)            -82.7678         estimate D2E/DX2                !
 ! D6    D(3,1,5,6)            158.771          estimate D2E/DX2                !
 ! D7    D(4,1,5,6)             39.5899         estimate D2E/DX2                !
 ! D8    D(8,1,5,6)             98.2308         estimate D2E/DX2                !
 ! D9    D(2,1,8,9)           -157.3499         estimate D2E/DX2                !
 ! D10   D(2,1,8,11)           -21.6854         estimate D2E/DX2                !
 ! D11   D(5,1,8,9)             21.5934         estimate D2E/DX2                !
 ! D12   D(5,1,8,11)           157.2579         estimate D2E/DX2                !
 ! D13   D(1,8,9,10)          -133.56           estimate D2E/DX2                !
 ! D14   D(3,8,9,10)          -177.8097         estimate D2E/DX2                !
 ! D15   D(4,8,9,10)           -76.0646         estimate D2E/DX2                !
 ! D16   D(11,8,9,10)           92.3101         estimate D2E/DX2                !
 ! D17   D(1,8,11,12)          133.4197         estimate D2E/DX2                !
 ! D18   D(3,8,11,12)          177.7505         estimate D2E/DX2                !
 ! D19   D(4,8,11,12)           75.9961         estimate D2E/DX2                !
 ! D20   D(9,8,11,12)          -92.3979         estimate D2E/DX2                !
 --------------------------------------------------------------------------------
 Trust Radius=3.00D-01 FncErr=1.00D-07 GrdErr=1.00D-06 EigMax=2.50D+02 EigMin=1.00D-04
 Number of steps in this run=     63 maximum allowed number of steps=    100.
 GradGradGradGradGradGradGradGradGradGradGradGradGradGradGradGradGradGrad

                          Input orientation:                          
 ---------------------------------------------------------------------
 Center     Atomic      Atomic             Coordinates (Angstroms)
 Number     Number       Type             X           Y           Z
 ---------------------------------------------------------------------
      1         42           0       -0.344587    1.833199   10.942312
      2         16           0        1.205538    3.536488   10.632374
      3         16           0       -2.194791    2.787052   11.629561
      4         16           0       -0.672272    0.798900    8.960604
      5         16           0        0.204896    0.232868   12.534729
      6          1           0        0.999241   -0.528975   11.745458
      7          1           0        2.012441    2.876752    9.767688
      8         42           0       -2.749732    1.744304    9.509490
      9         16           0       -4.419429    0.483651   10.571558
     10          1           0       -4.935008   -0.302375    9.599452
     11         16           0       -3.396014    3.831225    8.655020
     12          1           0       -3.743175    3.590106    7.370489
 ---------------------------------------------------------------------
                    Distance matrix (angstroms):
                    1          2          3          4          5
     1  Mo   0.000000
     2  S    2.323821   0.000000
     3  S    2.192123   3.621916   0.000000
     4  S    2.259274   3.716904   3.659801   0.000000
     5  S    2.323528   3.941338   3.619625   3.723464   0.000000
     6  H    2.833864   4.220131   4.605574   3.508934   1.354377
     7  H    2.832724   1.354262   4.601676   3.489490   4.232477
     8  Mo   2.801000   4.485193   2.426929   2.347532   4.490694
     9  S    4.308489   6.400294   3.372542   4.090934   5.030041
    10  H    5.237930   7.315060   4.601597   4.448803   5.943143
    11  S    4.305232   5.017079   3.373593   4.087438   6.400537
    12  H    5.234027   5.927270   4.602400   4.444068   7.316262
                    6          7          8          9         10
     6  H    0.000000
     7  H    4.066586   0.000000
     8  Mo   4.921600   4.901775   0.000000
     9  S    5.636083   6.909565   2.346300   0.000000
    10  H    6.314428   7.642133   2.995400   1.352275   0.000000
    11  S    6.919568   5.603609   2.345856   3.990833   4.510776
    12  H    7.654913   6.275552   2.994869   4.511566   4.641137
                   11         12
    11  S    0.000000
    12  H    1.352287   0.000000
 Symmetry turned off by external request.
 Stoichiometry    H4Mo2S6
 Framework group  C1[X(H4Mo2S6)]
 Deg. of freedom    30
 Full point group                 C1      NOp   1
 Rotational constants (GHZ):           0.6648563           0.3450165           0.2889684
 General basis read from cards:  (5D, 7F)
 ======================================================================================================
                                       Pseudopotential Parameters
 ======================================================================================================
  Center     Atomic      Valence      Angular      Power
  Number     Number     Electrons     Momentum     of R      Exponent        Coefficient   SO-Coeffient
 ======================================================================================================
    1         42           14
                                      F and up 
                                                     0      537.9667807       -0.04694920    0.00000000
                                                     1      147.8982938      -20.20800840    0.00000000
                                                     2       45.7358898     -106.21163020    0.00000000
                                                     2       13.2911467      -41.81073680    0.00000000
                                                     2        4.7059961       -4.20541030    0.00000000
                                      S - F
                                                     0      110.2991760        2.80637170    0.00000000
                                                     1       23.2014645       44.51620120    0.00000000
                                                     2        5.3530131       82.77852270    0.00000000
                                      P - F
                                                     0       63.2901397        4.94208760    0.00000000
                                                     1       23.3315302       25.86049760    0.00000000
                                                     2       24.6759423      132.47087420    0.00000000
                                                     2        4.6493040       57.31497940    0.00000000
                                      D - F
                                                     0      104.4839977        3.00545910    0.00000000
                                                     1       66.2307245       26.36378510    0.00000000
                                                     2       39.1283176      183.38491990    0.00000000
                                                     2       13.1164437       98.44530680    0.00000000
                                                     2        3.6280263       22.49013770    0.00000000
    2         16
                                   No pseudopotential on this center.
    3         16
                                   No pseudopotential on this center.
    4         16
                                   No pseudopotential on this center.
    5         16
                                   No pseudopotential on this center.
    6          1
                                   No pseudopotential on this center.
    7          1
                                   No pseudopotential on this center.
    8         42           14
                                      F and up 
                                                     0      537.9667807       -0.04694920    0.00000000
                                                     1      147.8982938      -20.20800840    0.00000000
                                                     2       45.7358898     -106.21163020    0.00000000
                                                     2       13.2911467      -41.81073680    0.00000000
                                                     2        4.7059961       -4.20541030    0.00000000
                                      S - F
                                                     0      110.2991760        2.80637170    0.00000000
                                                     1       23.2014645       44.51620120    0.00000000
                                                     2        5.3530131       82.77852270    0.00000000
                                      P - F
                                                     0       63.2901397        4.94208760    0.00000000
                                                     1       23.3315302       25.86049760    0.00000000
                                                     2       24.6759423      132.47087420    0.00000000
                                                     2        4.6493040       57.31497940    0.00000000
                                      D - F
                                                     0      104.4839977        3.00545910    0.00000000
                                                     1       66.2307245       26.36378510    0.00000000
                                                     2       39.1283176      183.38491990    0.00000000
                                                     2       13.1164437       98.44530680    0.00000000
                                                     2        3.6280263       22.49013770    0.00000000
    9         16
                                   No pseudopotential on this center.
   10          1
                                   No pseudopotential on this center.
   11         16
                                   No pseudopotential on this center.
   12          1
                                   No pseudopotential on this center.
 ======================================================================================================
   172 basis functions,   438 primitive gaussians,   182 cartesian basis functions
    64 alpha electrons       64 beta electrons
       nuclear repulsion energy      1125.6810097773 Hartrees.
 NAtoms=   12 NActive=   12 NUniq=   12 SFac= 1.00D+00 NAtFMM=   60 NAOKFM=F Big=F
 Integral buffers will be    131072 words long.
 Raffenetti 2 integral format.
 Two-electron integral symmetry is turned off.
 One-electron integrals computed using PRISM.
   1 Symmetry operations used in ECPInt.
 ECPInt:  NShTT=    1711 NPrTT=   12482 LenC2=    1595 LenP2D=    8218.
 LDataN:  DoStor=T MaxTD1= 5 Len=  102
 NBasis=   172 RedAO= T EigKep=  1.66D-03  NBF=   172
 NBsUse=   172 1.00D-06 EigRej= -1.00D+00 NBFU=   172
 Defaulting to unpruned grid for atomic number  42.
 Defaulting to unpruned grid for atomic number  42.
 ExpMin= 2.47D-02 ExpMax= 2.19D+04 ExpMxC= 3.30D+03 IAcc=3 IRadAn=         5 AccDes= 0.00D+00
 Harris functional with IExCor=  402 and IRadAn=       5 diagonalized for initial guess.
 HarFok:  IExCor=  402 AccDes= 0.00D+00 IRadAn=         5 IDoV= 1 UseB2=F ITyADJ=14
 ICtDFT=  3500011 ScaDFX=  1.000000  1.000000  1.000000  1.000000
 Defaulting to unpruned grid for atomic number  42.
 FoFCou: FMM=F IPFlag=           0 FMFlag=      100000 FMFlg1=           0
         NFxFlg=           0 DoJE=T BraDBF=F KetDBF=T FulRan=T
         wScrn=  0.000000 ICntrl=       500 IOpCl=  0 I1Cent=   200000004 NGrid=           0
         NMat0=    1 NMatS0=      1 NMatT0=    0 NMatD0=    1 NMtDS0=    0 NMtDT0=    0
 Symmetry not used in FoFCou.
 Keep R1 ints in memory in canonical form, NReq=134915607.
 Requested convergence on RMS density matrix=1.00D-08 within 128 cycles.
 Requested convergence on MAX density matrix=1.00D-06.
 Requested convergence on             energy=1.00D-06.
 No special actions if energy rises.
 Defaulting to unpruned grid for atomic number  42.
 Defaulting to unpruned grid for atomic number  42.
 Defaulting to unpruned grid for atomic number  42.
 Defaulting to unpruned grid for atomic number  42.
 Defaulting to unpruned grid for atomic number  42.
 Defaulting to unpruned grid for atomic number  42.
 Defaulting to unpruned grid for atomic number  42.
 Defaulting to unpruned grid for atomic number  42.
 Defaulting to unpruned grid for atomic number  42.
 Defaulting to unpruned grid for atomic number  42.
 Defaulting to unpruned grid for atomic number  42.
 Defaulting to unpruned grid for atomic number  42.
 Defaulting to unpruned grid for atomic number  42.
 Defaulting to unpruned grid for atomic number  42.
 Defaulting to unpruned grid for atomic number  42.
 Defaulting to unpruned grid for atomic number  42.
 Defaulting to unpruned grid for atomic number  42.
 Defaulting to unpruned grid for atomic number  42.
 Defaulting to unpruned grid for atomic number  42.
 Defaulting to unpruned grid for atomic number  42.
 Defaulting to unpruned grid for atomic number  42.
 Defaulting to unpruned grid for atomic number  42.
 Defaulting to unpruned grid for atomic number  42.
 Defaulting to unpruned grid for atomic number  42.
 EnCoef did     3 forward-backward iterations
 EnCoef did     3 forward-backward iterations
 EnCoef did     8 forward-backward iterations
 SCF Done:  E(RB3LYP) =  -2526.80401213     A.U. after   21 cycles
            NFock= 21  Conv=0.48D-08     -V/T= 2.0392

 **********************************************************************

            Population analysis using the SCF Density.

 **********************************************************************

 Alpha  occ. eigenvalues --  -88.90417 -88.88602 -88.88282 -88.88279 -88.87066
 Alpha  occ. eigenvalues --  -88.87058  -7.98182  -7.96523  -7.96163  -7.96161
 Alpha  occ. eigenvalues --   -7.94837  -7.94827  -5.94227  -5.94108  -5.94051
 Alpha  occ. eigenvalues --   -5.92516  -5.92438  -5.92427  -5.92425  -5.92423
 Alpha  occ. eigenvalues --   -5.92071  -5.92068  -5.91815  -5.91812  -5.91123
 Alpha  occ. eigenvalues --   -5.91114  -5.90703  -5.90693  -5.90526  -5.90517
 Alpha  occ. eigenvalues --   -2.55017  -2.52882  -1.58308  -1.57248  -1.56913
 Alpha  occ. eigenvalues --   -1.55697  -1.55081  -1.54106  -0.74387  -0.73621
 Alpha  occ. eigenvalues --   -0.72992  -0.72063  -0.71853  -0.71334  -0.43870
 Alpha  occ. eigenvalues --   -0.43607  -0.42823  -0.42449  -0.38753  -0.37636
 Alpha  occ. eigenvalues --   -0.37247  -0.36912  -0.34509  -0.33980  -0.33565
 Alpha  occ. eigenvalues --   -0.32549  -0.32158  -0.31190  -0.30682  -0.29229
 Alpha  occ. eigenvalues --   -0.27249  -0.26186  -0.25337  -0.22722
 Alpha virt. eigenvalues --   -0.14516  -0.14352  -0.12261  -0.10950  -0.10273
 Alpha virt. eigenvalues --   -0.08907  -0.08153  -0.05981  -0.01681  -0.00966
 Alpha virt. eigenvalues --    0.00619   0.01234   0.01901   0.04340   0.05004
 Alpha virt. eigenvalues --    0.05932   0.06377   0.06525   0.08910   0.11051
 Alpha virt. eigenvalues --    0.14988   0.16647   0.16760   0.19614   0.20681
 Alpha virt. eigenvalues --    0.24336   0.28548   0.28664   0.30192   0.30260
 Alpha virt. eigenvalues --    0.31179   0.31888   0.32924   0.33354   0.34056
 Alpha virt. eigenvalues --    0.35355   0.35580   0.36923   0.37030   0.37042
 Alpha virt. eigenvalues --    0.37930   0.40656   0.41873   0.42376   0.43586
 Alpha virt. eigenvalues --    0.44318   0.45527   0.46822   0.48359   0.49040
 Alpha virt. eigenvalues --    0.49664   0.54006   0.54378   0.56055   0.56654
 Alpha virt. eigenvalues --    0.57967   0.59628   0.61338   0.63388   0.64818
 Alpha virt. eigenvalues --    0.70723   0.72303   0.72472   0.73038   0.73123
 Alpha virt. eigenvalues --    0.73662   0.74671   0.75749   0.75804   0.77090
 Alpha virt. eigenvalues --    0.77988   0.79526   0.80192   0.80316   0.81922
 Alpha virt. eigenvalues --    0.83255   0.85915   0.86339   0.88130   0.90484
 Alpha virt. eigenvalues --    0.92074   0.94963   0.96838   0.97303   0.98487
 Alpha virt. eigenvalues --    0.99148   0.99545   1.01568   1.05117   1.06850
 Alpha virt. eigenvalues --    1.13344   1.14482   1.15545   1.18283   2.05888
 Alpha virt. eigenvalues --    2.05976   2.07177   2.07359   2.07503   2.07661
 Alpha virt. eigenvalues --    2.08645   2.09709   2.70446   2.70557   2.72151
 Alpha virt. eigenvalues --    2.72350   5.94356   7.40983
          Condensed to atoms (all electrons):
               1          2          3          4          5          6
     1  Mo  12.989098   0.274253   0.222786   0.204586   0.273936  -0.023697
     2  S    0.274253  15.583155   0.006457  -0.000827   0.014042  -0.000029
     3  S    0.222786   0.006457  15.504854  -0.014048   0.006214  -0.000127
     4  S    0.204586  -0.000827  -0.014048  15.682940  -0.000278  -0.000765
     5  S    0.273936   0.014042   0.006214  -0.000278  15.584612   0.253430
     6  H   -0.023697  -0.000029  -0.000127  -0.000765   0.253430   0.673845
     7  H   -0.024029   0.253827  -0.000133  -0.000908   0.000003  -0.000237
     8  Mo  -0.117009  -0.002270   0.256451   0.204567  -0.002357   0.002167
     9  S    0.000097   0.000003  -0.017685   0.005645   0.000932  -0.000001
    10  H   -0.000310   0.000000   0.000664   0.000171  -0.000007   0.000000
    11  S    0.000062   0.000969  -0.017708   0.005636   0.000003   0.000000
    12  H   -0.000312  -0.000008   0.000664   0.000167   0.000000   0.000000
               7          8          9         10         11         12
     1  Mo  -0.024029  -0.117009   0.000097  -0.000310   0.000062  -0.000312
     2  S    0.253827  -0.002270   0.000003   0.000000   0.000969  -0.000008
     3  S   -0.000133   0.256451  -0.017685   0.000664  -0.017708   0.000664
     4  S   -0.000908   0.204567   0.005645   0.000171   0.005636   0.000167
     5  S    0.000003  -0.002357   0.000932  -0.000007   0.000003   0.000000
     6  H   -0.000237   0.002167  -0.000001   0.000000   0.000000   0.000000
     7  H    0.673518   0.002227   0.000000   0.000000  -0.000001   0.000000
     8  Mo   0.002227  13.136720   0.267506  -0.017564   0.267631  -0.017617
     9  S    0.000000   0.267506  15.626889   0.229400   0.010205   0.000169
    10  H    0.000000  -0.017564   0.229400   0.722429   0.000167  -0.000055
    11  S   -0.000001   0.267631   0.010205   0.000167  15.626580   0.229413
    12  H    0.000000  -0.017617   0.000169  -0.000055   0.229413   0.722427
 Mulliken charges:
               1
     1  Mo   0.200540
     2  S   -0.129572
     3  S    0.051611
     4  S   -0.086888
     5  S   -0.130531
     6  H    0.095413
     7  H    0.095734
     8  Mo   0.019546
     9  S   -0.123158
    10  H    0.065106
    11  S   -0.122954
    12  H    0.065153
 Sum of Mulliken charges =   0.00000
 Mulliken charges with hydrogens summed into heavy atoms:
               1
     1  Mo   0.200540
     2  S   -0.033838
     3  S    0.051611
     4  S   -0.086888
     5  S   -0.035118
     8  Mo   0.019546
     9  S   -0.058053
    11  S   -0.057802
 Electronic spatial extent (au):  <R**2>=          55752.8892
 Charge=              0.0000 electrons
 Dipole moment (field-independent basis, Debye):
    X=              1.2353    Y=             -1.7837    Z=             -2.4845  Tot=              3.2985
 Quadrupole moment (field-independent basis, Debye-Ang):
   XX=           -125.4399   YY=           -135.8179   ZZ=           -175.1263
   XY=              4.5849   XZ=             20.7601   YZ=            -20.2487
 Traceless Quadrupole moment (field-independent basis, Debye-Ang):
   XX=             20.0215   YY=              9.6435   ZZ=            -29.6649
   XY=              4.5849   XZ=             20.7601   YZ=            -20.2487
 Octapole moment (field-independent basis, Debye-Ang**2):
  XXX=            602.0764  YYY=           -765.3928  ZZZ=          -4675.7524  XYY=            213.5980
  XXY=           -261.2559  XXZ=          -1348.7176  XZZ=            465.7081  YZZ=           -450.8247
  YYZ=          -1408.0402  XYZ=             46.6674
 Hexadecapole moment (field-independent basis, Debye-Ang**3):
 XXXX=          -4444.3754 YYYY=          -4211.1004 ZZZZ=         -93253.2549 XXXY=           1222.8460
 XXXZ=           6081.4090 YYYX=           1150.6071 YYYZ=          -7746.0602 ZZZX=           8904.9881
 ZZZY=          -9366.8235 XXYY=          -1463.5908 XXZZ=         -15326.7722 YYZZ=         -15420.5426
 XXYZ=          -2702.1280 YYXZ=           2094.9196 ZZXY=            761.7574
 N-N= 1.125681009777D+03 E-N=-8.211634783825D+03  KE= 2.431392105452D+03
   1 Symmetry operations used in ECPInt.
 ECPInt:  NShTT=    1711 NPrTT=   12482 LenC2=    1595 LenP2D=    8218.
 LDataN:  DoStor=T MaxTD1= 6 Len=  172
 Calling FoFJK, ICntrl=      2127 FMM=F ISym2X=0 I1Cent= 0 IOpClX= 0 NMat=1 NMatS=1 NMatT=0.
 Defaulting to unpruned grid for atomic number  42.
 Defaulting to unpruned grid for atomic number  42.
 Defaulting to unpruned grid for atomic number  42.
 Defaulting to unpruned grid for atomic number  42.
 Defaulting to unpruned grid for atomic number  42.
 Defaulting to unpruned grid for atomic number  42.
 Defaulting to unpruned grid for atomic number  42.
 Defaulting to unpruned grid for atomic number  42.
 Defaulting to unpruned grid for atomic number  42.
 Defaulting to unpruned grid for atomic number  42.
 Defaulting to unpruned grid for atomic number  42.
 Defaulting to unpruned grid for atomic number  42.
 Defaulting to unpruned grid for atomic number  42.
 Defaulting to unpruned grid for atomic number  42.
 Defaulting to unpruned grid for atomic number  42.
 Defaulting to unpruned grid for atomic number  42.
 Defaulting to unpruned grid for atomic number  42.
 Defaulting to unpruned grid for atomic number  42.
 Defaulting to unpruned grid for atomic number  42.
 Defaulting to unpruned grid for atomic number  42.
 Defaulting to unpruned grid for atomic number  42.
 Defaulting to unpruned grid for atomic number  42.
 Defaulting to unpruned grid for atomic number  42.
 Defaulting to unpruned grid for atomic number  42.
 -------------------------------------------------------------------
 Center     Atomic                   Forces (Hartrees/Bohr)
 Number     Number              X              Y              Z
 -------------------------------------------------------------------
      1       42           0.009305499   -0.001490539    0.002110777
      2       16           0.000020131   -0.000501496   -0.000301055
      3       16          -0.013471590   -0.007019191   -0.019488103
      4       16          -0.009912362   -0.000843132   -0.006637600
      5       16           0.000126811   -0.000157464   -0.000539321
      6        1           0.000053550   -0.000382308    0.000123767
      7        1           0.000248746    0.000268034   -0.000255308
      8       42           0.007839939    0.017652142    0.035127148
      9       16           0.004276792    0.002606645   -0.004672473
     10        1           0.000433820   -0.000537141   -0.003741398
     11       16           0.001372959   -0.006621061    0.000616055
     12        1          -0.000294296   -0.002974489   -0.002342490
 -------------------------------------------------------------------
 Cartesian Forces:  Max     0.035127148 RMS     0.008460308

 GradGradGradGradGradGradGradGradGradGradGradGradGradGradGradGradGradGrad
 Berny optimization.
 FormGI is forming the generalized inverse of G from B-inverse, IUseBI=4.
 Internal  Forces:  Max     0.021272645 RMS     0.004931749
 Search for a local minimum.
 Step number   1 out of a maximum of   63
 All quantities printed in internal units (Hartrees-Bohrs-Radians)
 Mixed Optimization -- RFO/linear search
 Second derivative matrix not updated -- first step.
 ITU=  0
     Eigenvalues ---    0.00230   0.00230   0.00230   0.00230   0.05103
     Eigenvalues ---    0.05180   0.06116   0.08828   0.11660   0.13606
     Eigenvalues ---    0.13932   0.13947   0.14727   0.14738   0.16000
     Eigenvalues ---    0.16000   0.16000   0.16000   0.16068   0.19611
     Eigenvalues ---    0.20007   0.20754   0.21836   0.22906   0.24277
     Eigenvalues ---    0.24629   0.25305   0.25313   0.25463   0.25464
 RFO step:  Lambda=-1.15471367D-02 EMin= 2.30000000D-03
 Linear search not attempted -- first point.
 Iteration  1 RMS(Cart)=  0.06828061 RMS(Int)=  0.00327546
 Iteration  2 RMS(Cart)=  0.00401883 RMS(Int)=  0.00141785
 Iteration  3 RMS(Cart)=  0.00000250 RMS(Int)=  0.00141785
 Iteration  4 RMS(Cart)=  0.00000001 RMS(Int)=  0.00141785
 Variable       Old X    -DE/DX   Delta X   Delta X   Delta X     New X
                                 (Linear)    (Quad)   (Total)
    R1        4.39138   0.00008   0.00000   0.00052   0.00052   4.39190
    R2        4.14251   0.00711   0.00000   0.04113   0.04062   4.18314
    R3        4.26941   0.00458   0.00000   0.03173   0.03231   4.30172
    R4        4.39083   0.00013   0.00000   0.00082   0.00082   4.39165
    R5        5.29312  -0.00303   0.00000  -0.05665  -0.05671   5.23642
    R6        2.55918   0.00018   0.00000   0.00069   0.00069   2.55987
    R7        4.58623  -0.02127   0.00000  -0.17533  -0.17524   4.41099
    R8        4.43619  -0.00562   0.00000  -0.03891  -0.03901   4.39718
    R9        2.55940   0.00017   0.00000   0.00066   0.00066   2.56006
   R10        4.43386  -0.00827   0.00000  -0.05484  -0.05484   4.37903
   R11        4.43302  -0.00820   0.00000  -0.05433  -0.05433   4.37870
   R12        2.55543   0.00284   0.00000   0.01065   0.01065   2.56608
   R13        2.55545   0.00283   0.00000   0.01063   0.01063   2.56609
    A1        1.86073   0.00224   0.00000   0.01213   0.01192   1.87265
    A2        1.89159   0.00059   0.00000   0.00308   0.00312   1.89471
    A3        2.02471   0.00039   0.00000   0.00668   0.00658   2.03129
    A4        2.12683  -0.00011   0.00000  -0.00304  -0.00301   2.12382
    A5        1.93026  -0.00650   0.00000  -0.04019  -0.04019   1.89007
    A6        1.85921   0.00232   0.00000   0.01258   0.01235   1.87156
    A7        1.89667   0.00046   0.00000   0.00252   0.00256   1.89923
    A8        2.13151  -0.00028   0.00000  -0.00378  -0.00374   2.12777
    A9        1.69667   0.00096   0.00000   0.00561   0.00561   1.70228
   A10        1.69787   0.00087   0.00000   0.00510   0.00510   1.70297
   A11        1.97856   0.00468   0.00000   0.04899   0.04726   2.02582
   A12        1.97649   0.00476   0.00000   0.04925   0.04752   2.02401
   A13        1.74663   0.00510   0.00000   0.04455   0.04528   1.79191
   A14        1.56895   0.00392   0.00000   0.05921   0.05831   1.62726
   A15        1.56975   0.00388   0.00000   0.05913   0.05820   1.62796
   A16        2.11673  -0.00040   0.00000  -0.02169  -0.02517   2.09156
   A17        2.11403  -0.00033   0.00000  -0.02142  -0.02491   2.08912
   A18        2.03400  -0.00196   0.00000   0.01006   0.00283   2.03682
   A19        1.83199  -0.00647   0.00000  -0.03772  -0.03772   1.79427
   A20        1.83185  -0.00646   0.00000  -0.03765  -0.03765   1.79420
    D1       -2.75119   0.00408   0.00000   0.03341   0.03342  -2.71777
    D2       -0.67293  -0.00204   0.00000  -0.00569  -0.00581  -0.67874
    D3        1.46530  -0.00070   0.00000   0.00478   0.00478   1.47008
    D4       -1.69368  -0.00095   0.00000  -0.00395  -0.00384  -1.69752
    D5       -1.44457   0.00068   0.00000  -0.00386  -0.00386  -1.44844
    D6        2.77108  -0.00405   0.00000  -0.03223  -0.03225   2.73883
    D7        0.69097   0.00210   0.00000   0.00693   0.00705   0.69803
    D8        1.71445   0.00093   0.00000   0.00488   0.00477   1.71922
    D9       -2.74627  -0.00336   0.00000  -0.05490  -0.05617  -2.80244
   D10       -0.37848   0.00364   0.00000   0.06424   0.06535  -0.31313
   D11        0.37688  -0.00362   0.00000  -0.06406  -0.06516   0.31171
   D12        2.74467   0.00338   0.00000   0.05508   0.05635   2.80102
   D13       -2.33106   0.00254   0.00000   0.03119   0.03292  -2.29814
   D14       -3.10336  -0.00166   0.00000  -0.01550  -0.01581  -3.11917
   D15       -1.32758   0.00673   0.00000   0.07094   0.06889  -1.25869
   D16        1.61112  -0.00796   0.00000  -0.11114  -0.11051   1.50060
   D17        2.32861  -0.00252   0.00000  -0.03174  -0.03347   2.29514
   D18        3.10233   0.00162   0.00000   0.01463   0.01495   3.11728
   D19        1.32638  -0.00673   0.00000  -0.07149  -0.06946   1.25692
   D20       -1.61265   0.00794   0.00000   0.11033   0.10972  -1.50293
         Item               Value     Threshold  Converged?
 Maximum Force            0.021273     0.000450     NO 
 RMS     Force            0.004932     0.000300     NO 
 Maximum Displacement     0.284373     0.001800     NO 
 RMS     Displacement     0.069593     0.001200     NO 
 Predicted change in Energy=-6.472134D-03
 GradGradGradGradGradGradGradGradGradGradGradGradGradGradGradGradGradGrad

                          Input orientation:                          
 ---------------------------------------------------------------------
 Center     Atomic      Atomic             Coordinates (Angstroms)
 Number     Number       Type             X           Y           Z
 ---------------------------------------------------------------------
      1         42           0       -0.332267    1.843008   10.965842
      2         16           0        1.227473    3.532813   10.629422
      3         16           0       -2.205430    2.803268   11.650880
      4         16           0       -0.739316    0.825074    8.970850
      5         16           0        0.223988    0.221570   12.535018
      6          1           0        0.989157   -0.552466   11.728378
      7          1           0        2.009290    2.877934    9.737849
      8         42           0       -2.750309    1.803769    9.613092
      9         16           0       -4.420302    0.498702   10.549958
     10          1           0       -4.873010   -0.217916    9.489089
     11         16           0       -3.409343    3.807816    8.654731
     12          1           0       -3.752823    3.439622    7.393626
 ---------------------------------------------------------------------
                    Distance matrix (angstroms):
                    1          2          3          4          5
     1  Mo   0.000000
     2  S    2.324093   0.000000
     3  S    2.213620   3.655193   0.000000
     4  S    2.276373   3.735100   3.639410   0.000000
     5  S    2.323961   3.950014   3.653620   3.741052   0.000000
     6  H    2.840056   4.237217   4.633826   3.534006   1.354726
     7  H    2.839354   1.354625   4.629161   3.515303   4.250615
     8  Mo   2.770992   4.454803   2.334196   2.326889   4.459535
     9  S    4.323442   6.411670   3.380638   4.018677   5.058330
    10  H    5.200630   7.251497   4.573497   4.294627   5.954009
    11  S    4.320892   5.047286   3.381632   4.015685   6.412401
    12  H    5.197125   5.939900   4.574231   4.290073   7.252917
                    6          7          8          9         10
     6  H    0.000000
     7  H    4.095183   0.000000
     8  Mo   4.899988   4.880899   0.000000
     9  S    5.635236   6.903617   2.317282   0.000000
    10  H    6.284213   7.550643   2.934015   1.357913   0.000000
    11  S    6.914201   5.603518   2.317108   3.945144   4.364057
    12  H    7.563942   6.246025   2.933783   4.365429   4.361579
                   11         12
    11  S    0.000000
    12  H    1.357914   0.000000
 Symmetry turned off by external request.
 Stoichiometry    H4Mo2S6
 Framework group  C1[X(H4Mo2S6)]
 Deg. of freedom    30
 Full point group                 C1      NOp   1
 Rotational constants (GHZ):           0.6778846           0.3464852           0.2895154
 Basis read from rwf:  (5D, 7F)
 Pseudo-potential data read from rwf file.
   172 basis functions,   438 primitive gaussians,   182 cartesian basis functions
    64 alpha electrons       64 beta electrons
       nuclear repulsion energy      1129.3664547275 Hartrees.
 NAtoms=   12 NActive=   12 NUniq=   12 SFac= 1.00D+00 NAtFMM=   60 NAOKFM=F Big=F
 Integral buffers will be    131072 words long.
 Raffenetti 2 integral format.
 Two-electron integral symmetry is turned off.
 One-electron integrals computed using PRISM.
   1 Symmetry operations used in ECPInt.
 ECPInt:  NShTT=    1711 NPrTT=   12482 LenC2=    1595 LenP2D=    8236.
 LDataN:  DoStor=T MaxTD1= 5 Len=  102
 NBasis=   172 RedAO= T EigKep=  1.57D-03  NBF=   172
 NBsUse=   172 1.00D-06 EigRej= -1.00D+00 NBFU=   172
 Defaulting to unpruned grid for atomic number  42.
 Defaulting to unpruned grid for atomic number  42.
 Initial guess from the checkpoint file:  "Mo2_S2_SH_4.chk"
 B after Tr=    -0.175311    0.066398    0.023560
         Rot=    0.999989   -0.001209   -0.003990    0.002306 Ang=  -0.55 deg.
 ExpMin= 2.47D-02 ExpMax= 2.19D+04 ExpMxC= 3.30D+03 IAcc=3 IRadAn=         5 AccDes= 0.00D+00
 Harris functional with IExCor=  402 and IRadAn=       5 diagonalized for initial guess.
 HarFok:  IExCor=  402 AccDes= 0.00D+00 IRadAn=         5 IDoV= 1 UseB2=F ITyADJ=14
 ICtDFT=  3500011 ScaDFX=  1.000000  1.000000  1.000000  1.000000
 Defaulting to unpruned grid for atomic number  42.
 FoFCou: FMM=F IPFlag=           0 FMFlag=      100000 FMFlg1=           0
         NFxFlg=           0 DoJE=T BraDBF=F KetDBF=T FulRan=T
         wScrn=  0.000000 ICntrl=       500 IOpCl=  0 I1Cent=   200000004 NGrid=           0
         NMat0=    1 NMatS0=      1 NMatT0=    0 NMatD0=    1 NMtDS0=    0 NMtDT0=    0
 Symmetry not used in FoFCou.
 Keep R1 ints in memory in canonical form, NReq=134915607.
 Requested convergence on RMS density matrix=1.00D-08 within 128 cycles.
 Requested convergence on MAX density matrix=1.00D-06.
 Requested convergence on             energy=1.00D-06.
 No special actions if energy rises.
 Defaulting to unpruned grid for atomic number  42.
 Defaulting to unpruned grid for atomic number  42.
 Defaulting to unpruned grid for atomic number  42.
 Defaulting to unpruned grid for atomic number  42.
 Defaulting to unpruned grid for atomic number  42.
 Defaulting to unpruned grid for atomic number  42.
 Defaulting to unpruned grid for atomic number  42.
 Defaulting to unpruned grid for atomic number  42.
 Defaulting to unpruned grid for atomic number  42.
 Defaulting to unpruned grid for atomic number  42.
 Defaulting to unpruned grid for atomic number  42.
 Defaulting to unpruned grid for atomic number  42.
 Defaulting to unpruned grid for atomic number  42.
 Defaulting to unpruned grid for atomic number  42.
 Defaulting to unpruned grid for atomic number  42.
 Defaulting to unpruned grid for atomic number  42.
 Defaulting to unpruned grid for atomic number  42.
 Defaulting to unpruned grid for atomic number  42.
 Defaulting to unpruned grid for atomic number  42.
 Defaulting to unpruned grid for atomic number  42.
 Defaulting to unpruned grid for atomic number  42.
 Defaulting to unpruned grid for atomic number  42.
 Defaulting to unpruned grid for atomic number  42.
 Defaulting to unpruned grid for atomic number  42.
 SCF Done:  E(RB3LYP) =  -2526.81281309     A.U. after   16 cycles
            NFock= 16  Conv=0.43D-08     -V/T= 2.0392
   1 Symmetry operations used in ECPInt.
 ECPInt:  NShTT=    1711 NPrTT=   12482 LenC2=    1595 LenP2D=    8236.
 LDataN:  DoStor=T MaxTD1= 6 Len=  172
 Calling FoFJK, ICntrl=      2127 FMM=F ISym2X=0 I1Cent= 0 IOpClX= 0 NMat=1 NMatS=1 NMatT=0.
 Defaulting to unpruned grid for atomic number  42.
 Defaulting to unpruned grid for atomic number  42.
 Defaulting to unpruned grid for atomic number  42.
 Defaulting to unpruned grid for atomic number  42.
 Defaulting to unpruned grid for atomic number  42.
 Defaulting to unpruned grid for atomic number  42.
 Defaulting to unpruned grid for atomic number  42.
 Defaulting to unpruned grid for atomic number  42.
 Defaulting to unpruned grid for atomic number  42.
 Defaulting to unpruned grid for atomic number  42.
 Defaulting to unpruned grid for atomic number  42.
 Defaulting to unpruned grid for atomic number  42.
 Defaulting to unpruned grid for atomic number  42.
 Defaulting to unpruned grid for atomic number  42.
 Defaulting to unpruned grid for atomic number  42.
 Defaulting to unpruned grid for atomic number  42.
 Defaulting to unpruned grid for atomic number  42.
 Defaulting to unpruned grid for atomic number  42.
 Defaulting to unpruned grid for atomic number  42.
 Defaulting to unpruned grid for atomic number  42.
 Defaulting to unpruned grid for atomic number  42.
 Defaulting to unpruned grid for atomic number  42.
 Defaulting to unpruned grid for atomic number  42.
 Defaulting to unpruned grid for atomic number  42.
 -------------------------------------------------------------------
 Center     Atomic                   Forces (Hartrees/Bohr)
 Number     Number              X              Y              Z
 -------------------------------------------------------------------
      1       42           0.009659661   -0.002066224    0.001356791
      2       16          -0.000236639   -0.000726872    0.000071225
      3       16          -0.006730394   -0.002993612   -0.008828164
      4       16          -0.007383292    0.001519608   -0.001168761
      5       16           0.000079144    0.000405677   -0.000617162
      6        1          -0.000082602   -0.000370959    0.000117504
      7        1           0.000104797    0.000298944   -0.000265771
      8       42           0.005348155    0.007100627    0.015280253
      9       16          -0.001702288   -0.001326989   -0.002085897
     10        1           0.001538693    0.000383189   -0.001262288
     11       16          -0.001463117   -0.000385317   -0.002605282
     12        1           0.000867883   -0.001838071    0.000007553
 -------------------------------------------------------------------
 Cartesian Forces:  Max     0.015280253 RMS     0.004183658

 GradGradGradGradGradGradGradGradGradGradGradGradGradGradGradGradGradGrad
 Berny optimization.
 Using GEDIIS/GDIIS optimizer.
 FormGI is forming the generalized inverse of G from B-inverse, IUseBI=4.
 Internal  Forces:  Max     0.009301075 RMS     0.002691961
 Search for a local minimum.
 Step number   2 out of a maximum of   63
 All quantities printed in internal units (Hartrees-Bohrs-Radians)
 Mixed Optimization -- RFO/linear search
 Update second derivatives using D2CorX and points    1    2
 DE= -8.80D-03 DEPred=-6.47D-03 R= 1.36D+00
 TightC=F SS=  1.41D+00  RLast= 3.43D-01 DXNew= 5.0454D-01 1.0282D+00
 Trust test= 1.36D+00 RLast= 3.43D-01 DXMaxT set to 5.05D-01
 ITU=  1  0
 Use linear search instead of GDIIS.
     Eigenvalues ---    0.00229   0.00230   0.00230   0.00231   0.03614
     Eigenvalues ---    0.05092   0.05146   0.08814   0.10282   0.13057
     Eigenvalues ---    0.13939   0.14678   0.14733   0.14887   0.15646
     Eigenvalues ---    0.16000   0.16000   0.16000   0.16367   0.19736
     Eigenvalues ---    0.19892   0.21516   0.22111   0.22743   0.24232
     Eigenvalues ---    0.24565   0.25304   0.25313   0.25464   0.25578
 RFO step:  Lambda=-2.62225342D-03 EMin= 2.29080305D-03
 Quartic linear search produced a step of  0.81463.
 Iteration  1 RMS(Cart)=  0.09511728 RMS(Int)=  0.00855417
 Iteration  2 RMS(Cart)=  0.00808591 RMS(Int)=  0.00326779
 Iteration  3 RMS(Cart)=  0.00004214 RMS(Int)=  0.00326755
 Iteration  4 RMS(Cart)=  0.00000009 RMS(Int)=  0.00326755
 Variable       Old X    -DE/DX   Delta X   Delta X   Delta X     New X
                                 (Linear)    (Quad)   (Total)
    R1        4.39190  -0.00037   0.00042  -0.00484  -0.00442   4.38748
    R2        4.18314   0.00442   0.03309   0.02319   0.05535   4.23849
    R3        4.30172   0.00087   0.02632  -0.00395   0.02440   4.32612
    R4        4.39165  -0.00036   0.00067  -0.00492  -0.00425   4.38740
    R5        5.23642   0.00195  -0.04620   0.05599   0.00951   5.24593
    R6        2.55987   0.00009   0.00056   0.00021   0.00077   2.56064
    R7        4.41099  -0.00930  -0.14275  -0.02093  -0.16382   4.24718
    R8        4.39718  -0.00510  -0.03178  -0.03823  -0.07064   4.32654
    R9        2.56006   0.00010   0.00054   0.00026   0.00079   2.56086
   R10        4.37903  -0.00070  -0.04467   0.02890  -0.01577   4.36326
   R11        4.37870  -0.00068  -0.04426   0.02888  -0.01537   4.36333
   R12        2.56608   0.00027   0.00868  -0.00486   0.00382   2.56991
   R13        2.56609   0.00027   0.00866  -0.00484   0.00382   2.56991
    A1        1.87265   0.00125   0.00971   0.00661   0.01562   1.88827
    A2        1.89471   0.00073   0.00254   0.00606   0.00849   1.90320
    A3        2.03129   0.00016   0.00536   0.00446   0.00952   2.04081
    A4        2.12382  -0.00002  -0.00245  -0.00191  -0.00424   2.11958
    A5        1.89007  -0.00447  -0.03274  -0.03276  -0.06495   1.82512
    A6        1.87156   0.00127   0.01006   0.00656   0.01589   1.88745
    A7        1.89923   0.00061   0.00209   0.00553   0.00750   1.90673
    A8        2.12777  -0.00015  -0.00304  -0.00251  -0.00540   2.12236
    A9        1.70228   0.00081   0.00457   0.00521   0.00978   1.71206
   A10        1.70297   0.00079   0.00415   0.00534   0.00949   1.71247
   A11        2.02582   0.00312   0.03850   0.02124   0.05507   2.08089
   A12        2.02401   0.00317   0.03871   0.02136   0.05543   2.07944
   A13        1.79191   0.00160   0.03689  -0.00718   0.03048   1.82239
   A14        1.62726   0.00306   0.04750   0.03379   0.07948   1.70674
   A15        1.62796   0.00303   0.04742   0.03364   0.07920   1.70715
   A16        2.09156  -0.00037  -0.02051  -0.01023  -0.03734   2.05422
   A17        2.08912  -0.00030  -0.02029  -0.00979  -0.03672   2.05240
   A18        2.03682  -0.00232   0.00230  -0.00251  -0.01620   2.02062
   A19        1.79427  -0.00499  -0.03072  -0.02996  -0.06069   1.73358
   A20        1.79420  -0.00500  -0.03067  -0.03012  -0.06079   1.73340
    D1       -2.71777   0.00257   0.02722   0.04383   0.07086  -2.64692
    D2       -0.67874  -0.00165  -0.00473   0.01199   0.00716  -0.67158
    D3        1.47008  -0.00012   0.00390   0.02750   0.03142   1.50149
    D4       -1.69752  -0.00017  -0.00313   0.02919   0.02634  -1.67118
    D5       -1.44844   0.00011  -0.00315  -0.02841  -0.03156  -1.48000
    D6        2.73883  -0.00256  -0.02627  -0.04475  -0.07084   2.66799
    D7        0.69803   0.00170   0.00575  -0.01258  -0.00674   0.69129
    D8        1.71922   0.00016   0.00389  -0.03011  -0.02650   1.69272
    D9       -2.80244  -0.00240  -0.04575  -0.02945  -0.07866  -2.88109
   D10       -0.31313   0.00245   0.05323   0.02745   0.08380  -0.22934
   D11        0.31171  -0.00245  -0.05308  -0.02756  -0.08374   0.22797
   D12        2.80102   0.00241   0.04590   0.02934   0.07871   2.87972
   D13       -2.29814   0.00228   0.02682   0.16182   0.19209  -2.10605
   D14       -3.11917   0.00001  -0.01288   0.15013   0.13635  -2.98282
   D15       -1.25869   0.00369   0.05612   0.16013   0.21021  -1.04848
   D16        1.50060  -0.00471  -0.09003   0.09534   0.00879   1.50939
   D17        2.29514  -0.00226  -0.02727  -0.16017  -0.19089   2.10425
   D18        3.11728  -0.00003   0.01218  -0.14868  -0.13559   2.98168
   D19        1.25692  -0.00369  -0.05659  -0.15859  -0.20921   1.04771
   D20       -1.50293   0.00471   0.08938  -0.09379  -0.00785  -1.51078
         Item               Value     Threshold  Converged?
 Maximum Force            0.009301     0.000450     NO 
 RMS     Force            0.002692     0.000300     NO 
 Maximum Displacement     0.319022     0.001800     NO 
 RMS     Displacement     0.096994     0.001200     NO 
 Predicted change in Energy=-4.665955D-03
 GradGradGradGradGradGradGradGradGradGradGradGradGradGradGradGradGradGrad

                          Input orientation:                          
 ---------------------------------------------------------------------
 Center     Atomic      Atomic             Coordinates (Angstroms)
 Number     Number       Type             X           Y           Z
 ---------------------------------------------------------------------
      1         42           0       -0.315057    1.857176   10.998688
      2         16           0        1.257777    3.522474   10.619849
      3         16           0       -2.212526    2.831034   11.692850
      4         16           0       -0.865436    0.881322    9.002290
      5         16           0        0.250866    0.204603   12.528092
      6          1           0        0.938997   -0.606042   11.688002
      7          1           0        1.979292    2.889428    9.663406
      8         42           0       -2.787302    1.886023    9.736353
      9         16           0       -4.474460    0.524274   10.530281
     10          1           0       -4.704190   -0.216211    9.412994
     11         16           0       -3.473070    3.804846    8.650444
     12          1           0       -3.627781    3.304268    7.395488
 ---------------------------------------------------------------------
                    Distance matrix (angstroms):
                    1          2          3          4          5
     1  Mo   0.000000
     2  S    2.321755   0.000000
     3  S    2.242911   3.697624   0.000000
     4  S    2.289282   3.755026   3.585407   0.000000
     5  S    2.321711   3.957718   3.696494   3.759702   0.000000
     6  H    2.848727   4.276356   4.663220   3.561078   1.355147
     7  H    2.848256   1.355033   4.657617   3.544298   4.289775
     8  Mo   2.776026   4.452101   2.247508   2.289507   4.455496
     9  S    4.392796   6.469603   3.433519   3.935389   5.140247
    10  H    5.106647   7.139980   4.548828   4.013638   5.868007
    11  S    4.390981   5.132173   3.434168   3.933261   6.470363
    12  H    5.104044   5.857712   4.549090   4.010365   7.141110
                    6          7          8          9         10
     6  H    0.000000
     7  H    4.171273   0.000000
     8  Mo   4.889236   4.871608   0.000000
     9  S    5.650083   6.927939   2.308936   0.000000
    10  H    6.096982   7.374052   2.863286   1.359935   0.000000
    11  S    6.938950   5.620706   2.308973   3.911358   4.273878
    12  H    7.387264   6.062575   2.863123   4.274595   4.197947
                   11         12
    11  S    0.000000
    12  H    1.359937   0.000000
 Symmetry turned off by external request.
 Stoichiometry    H4Mo2S6
 Framework group  C1[X(H4Mo2S6)]
 Deg. of freedom    30
 Full point group                 C1      NOp   1
 Rotational constants (GHZ):           0.6921024           0.3427585           0.2856119
 Basis read from rwf:  (5D, 7F)
 Pseudo-potential data read from rwf file.
   172 basis functions,   438 primitive gaussians,   182 cartesian basis functions
    64 alpha electrons       64 beta electrons
       nuclear repulsion energy      1129.7324358252 Hartrees.
 NAtoms=   12 NActive=   12 NUniq=   12 SFac= 1.00D+00 NAtFMM=   60 NAOKFM=F Big=F
 Integral buffers will be    131072 words long.
 Raffenetti 2 integral format.
 Two-electron integral symmetry is turned off.
 One-electron integrals computed using PRISM.
   1 Symmetry operations used in ECPInt.
 ECPInt:  NShTT=    1711 NPrTT=   12482 LenC2=    1595 LenP2D=    8245.
 LDataN:  DoStor=T MaxTD1= 5 Len=  102
 NBasis=   172 RedAO= T EigKep=  1.53D-03  NBF=   172
 NBsUse=   172 1.00D-06 EigRej= -1.00D+00 NBFU=   172
 Defaulting to unpruned grid for atomic number  42.
 Defaulting to unpruned grid for atomic number  42.
 Initial guess from the checkpoint file:  "Mo2_S2_SH_4.chk"
 B after Tr=    -0.358151    0.115861    0.014586
         Rot=    0.999961   -0.002204   -0.007375    0.004274 Ang=  -1.01 deg.
 ExpMin= 2.47D-02 ExpMax= 2.19D+04 ExpMxC= 3.30D+03 IAcc=3 IRadAn=         5 AccDes= 0.00D+00
 Harris functional with IExCor=  402 and IRadAn=       5 diagonalized for initial guess.
 HarFok:  IExCor=  402 AccDes= 0.00D+00 IRadAn=         5 IDoV= 1 UseB2=F ITyADJ=14
 ICtDFT=  3500011 ScaDFX=  1.000000  1.000000  1.000000  1.000000
 Defaulting to unpruned grid for atomic number  42.
 FoFCou: FMM=F IPFlag=           0 FMFlag=      100000 FMFlg1=           0
         NFxFlg=           0 DoJE=T BraDBF=F KetDBF=T FulRan=T
         wScrn=  0.000000 ICntrl=       500 IOpCl=  0 I1Cent=   200000004 NGrid=           0
         NMat0=    1 NMatS0=      1 NMatT0=    0 NMatD0=    1 NMtDS0=    0 NMtDT0=    0
 Symmetry not used in FoFCou.
 Keep R1 ints in memory in canonical form, NReq=134915607.
 Requested convergence on RMS density matrix=1.00D-08 within 128 cycles.
 Requested convergence on MAX density matrix=1.00D-06.
 Requested convergence on             energy=1.00D-06.
 No special actions if energy rises.
 Defaulting to unpruned grid for atomic number  42.
 Defaulting to unpruned grid for atomic number  42.
 Defaulting to unpruned grid for atomic number  42.
 Defaulting to unpruned grid for atomic number  42.
 Defaulting to unpruned grid for atomic number  42.
 Defaulting to unpruned grid for atomic number  42.
 Defaulting to unpruned grid for atomic number  42.
 Defaulting to unpruned grid for atomic number  42.
 Defaulting to unpruned grid for atomic number  42.
 Defaulting to unpruned grid for atomic number  42.
 Defaulting to unpruned grid for atomic number  42.
 Defaulting to unpruned grid for atomic number  42.
 Defaulting to unpruned grid for atomic number  42.
 Defaulting to unpruned grid for atomic number  42.
 Defaulting to unpruned grid for atomic number  42.
 Defaulting to unpruned grid for atomic number  42.
 Defaulting to unpruned grid for atomic number  42.
 Defaulting to unpruned grid for atomic number  42.
 Defaulting to unpruned grid for atomic number  42.
 Defaulting to unpruned grid for atomic number  42.
 Defaulting to unpruned grid for atomic number  42.
 Defaulting to unpruned grid for atomic number  42.
 Defaulting to unpruned grid for atomic number  42.
 Defaulting to unpruned grid for atomic number  42.
 SCF Done:  E(RB3LYP) =  -2526.81705143     A.U. after   16 cycles
            NFock= 16  Conv=0.58D-08     -V/T= 2.0392
   1 Symmetry operations used in ECPInt.
 ECPInt:  NShTT=    1711 NPrTT=   12482 LenC2=    1595 LenP2D=    8245.
 LDataN:  DoStor=T MaxTD1= 6 Len=  172
 Calling FoFJK, ICntrl=      2127 FMM=F ISym2X=0 I1Cent= 0 IOpClX= 0 NMat=1 NMatS=1 NMatT=0.
 Defaulting to unpruned grid for atomic number  42.
 Defaulting to unpruned grid for atomic number  42.
 Defaulting to unpruned grid for atomic number  42.
 Defaulting to unpruned grid for atomic number  42.
 Defaulting to unpruned grid for atomic number  42.
 Defaulting to unpruned grid for atomic number  42.
 Defaulting to unpruned grid for atomic number  42.
 Defaulting to unpruned grid for atomic number  42.
 Defaulting to unpruned grid for atomic number  42.
 Defaulting to unpruned grid for atomic number  42.
 Defaulting to unpruned grid for atomic number  42.
 Defaulting to unpruned grid for atomic number  42.
 Defaulting to unpruned grid for atomic number  42.
 Defaulting to unpruned grid for atomic number  42.
 Defaulting to unpruned grid for atomic number  42.
 Defaulting to unpruned grid for atomic number  42.
 Defaulting to unpruned grid for atomic number  42.
 Defaulting to unpruned grid for atomic number  42.
 Defaulting to unpruned grid for atomic number  42.
 Defaulting to unpruned grid for atomic number  42.
 Defaulting to unpruned grid for atomic number  42.
 Defaulting to unpruned grid for atomic number  42.
 Defaulting to unpruned grid for atomic number  42.
 Defaulting to unpruned grid for atomic number  42.
 -------------------------------------------------------------------
 Center     Atomic                   Forces (Hartrees/Bohr)
 Number     Number              X              Y              Z
 -------------------------------------------------------------------
      1       42           0.005288951   -0.002602187   -0.001791626
      2       16          -0.000183433   -0.000264969    0.000168499
      3       16           0.001406062    0.003498806    0.006862872
      4       16          -0.000735425    0.001459634    0.002229627
      5       16          -0.000032383    0.000334877   -0.000238167
      6        1           0.000066902   -0.000007979    0.000182643
      7        1           0.000103917    0.000097990    0.000105956
      8       42          -0.003369501   -0.000560437   -0.002792762
      9       16          -0.002026665   -0.004015435   -0.001691576
     10        1           0.000153456    0.001037612    0.000469364
     11       16          -0.000475649    0.001128167   -0.004636367
     12        1          -0.000196233   -0.000106078    0.001131536
 -------------------------------------------------------------------
 Cartesian Forces:  Max     0.006862872 RMS     0.002207886

 GradGradGradGradGradGradGradGradGradGradGradGradGradGradGradGradGradGrad
 Berny optimization.
 Using GEDIIS/GDIIS optimizer.
 FormGI is forming the generalized inverse of G from B-inverse, IUseBI=4.
 Internal  Forces:  Max     0.006980054 RMS     0.001661352
 Search for a local minimum.
 Step number   3 out of a maximum of   63
 All quantities printed in internal units (Hartrees-Bohrs-Radians)
 Mixed Optimization -- RFO/linear search
 Update second derivatives using D2CorX and points    2    3
 DE= -4.24D-03 DEPred=-4.67D-03 R= 9.08D-01
 TightC=F SS=  1.41D+00  RLast= 5.56D-01 DXNew= 8.4853D-01 1.6694D+00
 Trust test= 9.08D-01 RLast= 5.56D-01 DXMaxT set to 8.49D-01
 ITU=  1  1  0
 Use linear search instead of GDIIS.
     Eigenvalues ---    0.00230   0.00230   0.00230   0.00290   0.02609
     Eigenvalues ---    0.04926   0.05103   0.08642   0.12366   0.13009
     Eigenvalues ---    0.13939   0.14717   0.14734   0.15296   0.15619
     Eigenvalues ---    0.16000   0.16000   0.16002   0.16770   0.19718
     Eigenvalues ---    0.19780   0.22308   0.22460   0.22558   0.24205
     Eigenvalues ---    0.24603   0.25305   0.25313   0.25464   0.25658
 RFO step:  Lambda=-2.01152275D-03 EMin= 2.29999638D-03
 Quartic linear search produced a step of  0.09411.
 Iteration  1 RMS(Cart)=  0.06786895 RMS(Int)=  0.00292706
 Iteration  2 RMS(Cart)=  0.00262264 RMS(Int)=  0.00098857
 Iteration  3 RMS(Cart)=  0.00000160 RMS(Int)=  0.00098857
 Iteration  4 RMS(Cart)=  0.00000000 RMS(Int)=  0.00098857
 Variable       Old X    -DE/DX   Delta X   Delta X   Delta X     New X
                                 (Linear)    (Quad)   (Total)
    R1        4.38748  -0.00022  -0.00042  -0.00232  -0.00273   4.38475
    R2        4.23849   0.00195   0.00521   0.02880   0.03386   4.27235
    R3        4.32612  -0.00184   0.00230  -0.00482  -0.00170   4.32441
    R4        4.38740  -0.00026  -0.00040  -0.00257  -0.00297   4.38443
    R5        5.24593   0.00405   0.00090   0.04383   0.04439   5.29032
    R6        2.56064  -0.00007   0.00007  -0.00012  -0.00005   2.56060
    R7        4.24718   0.00698  -0.01542   0.02900   0.01355   4.26072
    R8        4.32654  -0.00131  -0.00665  -0.02426  -0.03114   4.29540
    R9        2.56086  -0.00007   0.00007  -0.00015  -0.00008   2.56078
   R10        4.36326   0.00270  -0.00148   0.01546   0.01397   4.37723
   R11        4.36333   0.00270  -0.00145   0.01549   0.01404   4.37737
   R12        2.56991  -0.00098   0.00036  -0.00293  -0.00257   2.56733
   R13        2.56991  -0.00098   0.00036  -0.00297  -0.00261   2.56730
    A1        1.88827  -0.00027   0.00147   0.00116   0.00255   1.89082
    A2        1.90320   0.00048   0.00080   0.00488   0.00565   1.90885
    A3        2.04081  -0.00044   0.00090  -0.00008   0.00078   2.04159
    A4        2.11958   0.00028  -0.00040   0.00046   0.00007   2.11965
    A5        1.82512   0.00019  -0.00611  -0.01308  -0.01908   1.80604
    A6        1.88745  -0.00030   0.00150   0.00108   0.00249   1.88994
    A7        1.90673   0.00039   0.00071   0.00431   0.00498   1.91171
    A8        2.12236   0.00016  -0.00051  -0.00033  -0.00082   2.12155
    A9        1.71206   0.00034   0.00092   0.00427   0.00519   1.71725
   A10        1.71247   0.00040   0.00089   0.00455   0.00545   1.71791
   A11        2.08089   0.00117   0.00518   0.02281   0.02603   2.10692
   A12        2.07944   0.00121   0.00522   0.02310   0.02635   2.10579
   A13        1.82239  -0.00148   0.00287  -0.00721  -0.00424   1.81815
   A14        1.70674   0.00229   0.00748   0.04975   0.05656   1.76329
   A15        1.70715   0.00226   0.00745   0.04952   0.05629   1.76345
   A16        2.05422  -0.00057  -0.00351  -0.02606  -0.03073   2.02349
   A17        2.05240  -0.00052  -0.00346  -0.02562  -0.03024   2.02216
   A18        2.02062  -0.00065  -0.00152  -0.00014  -0.00636   2.01427
   A19        1.73358  -0.00106  -0.00571  -0.01933  -0.02504   1.70855
   A20        1.73340  -0.00105  -0.00572  -0.01928  -0.02501   1.70840
    D1       -2.64692  -0.00062   0.00667  -0.01457  -0.00797  -2.65488
    D2       -0.67158  -0.00030   0.00067  -0.02683  -0.02618  -0.69775
    D3        1.50149   0.00030   0.00296  -0.01688  -0.01390   1.48759
    D4       -1.67118   0.00037   0.00248  -0.01538  -0.01284  -1.68401
    D5       -1.48000  -0.00031  -0.00297   0.01556   0.01257  -1.46742
    D6        2.66799   0.00060  -0.00667   0.01321   0.00661   2.67460
    D7        0.69129   0.00033  -0.00063   0.02582   0.02520   0.71649
    D8        1.69272  -0.00039  -0.00249   0.01405   0.01149   1.70422
    D9       -2.88109  -0.00188  -0.00740  -0.05199  -0.06053  -2.94163
   D10       -0.22934   0.00181   0.00789   0.05026   0.05924  -0.17010
   D11        0.22797  -0.00182  -0.00788  -0.05042  -0.05939   0.16858
   D12        2.87972   0.00187   0.00741   0.05183   0.06038   2.94010
   D13       -2.10605   0.00109   0.01808  -0.04375  -0.02469  -2.13074
   D14       -2.98282   0.00065   0.01283  -0.06628  -0.05339  -3.03621
   D15       -1.04848   0.00011   0.01978  -0.05329  -0.03557  -1.08405
   D16        1.50939  -0.00297   0.00083  -0.14874  -0.14687   1.36252
   D17        2.10425  -0.00107  -0.01797   0.04340   0.02445   2.12869
   D18        2.98168  -0.00066  -0.01276   0.06562   0.05282   3.03450
   D19        1.04771  -0.00012  -0.01969   0.05271   0.03507   1.08279
   D20       -1.51078   0.00297  -0.00074   0.14822   0.14646  -1.36432
         Item               Value     Threshold  Converged?
 Maximum Force            0.006980     0.000450     NO 
 RMS     Force            0.001661     0.000300     NO 
 Maximum Displacement     0.233685     0.001800     NO 
 RMS     Displacement     0.067481     0.001200     NO 
 Predicted change in Energy=-1.136849D-03
 GradGradGradGradGradGradGradGradGradGradGradGradGradGradGradGradGradGrad

                          Input orientation:                          
 ---------------------------------------------------------------------
 Center     Atomic      Atomic             Coordinates (Angstroms)
 Number     Number       Type             X           Y           Z
 ---------------------------------------------------------------------
      1         42           0       -0.287123    1.863193   11.022932
      2         16           0        1.294032    3.514366   10.626180
      3         16           0       -2.184783    2.855213   11.748279
      4         16           0       -0.907758    0.913481    9.035585
      5         16           0        0.286646    0.197704   12.532890
      6          1           0        0.968178   -0.611724   11.686335
      7          1           0        2.008538    2.877555    9.667014
      8         42           0       -2.800161    1.921141    9.790628
      9         16           0       -4.493415    0.503230   10.489057
     10          1           0       -4.716572   -0.119535    9.302430
     11         16           0       -3.492142    3.787964    8.606627
     12          1           0       -3.708331    3.180607    7.410778
 ---------------------------------------------------------------------
                    Distance matrix (angstroms):
                    1          2          3          4          5
     1  Mo   0.000000
     2  S    2.320310   0.000000
     3  S    2.260828   3.714262   0.000000
     4  S    2.288381   3.760649   3.572089   0.000000
     5  S    2.320138   3.956086   3.712941   3.764316   0.000000
     6  H    2.853261   4.272555   4.686646   3.587738   1.355106
     7  H    2.852631   1.355009   4.681464   3.572264   4.284829
     8  Mo   2.799516   4.472016   2.254678   2.273029   4.474217
     9  S    4.452799   6.525358   3.528065   3.890736   5.207647
    10  H    5.148918   7.147371   4.608824   3.955425   5.963951
    11  S    4.451451   5.202011   3.528340   3.889177   6.525699
    12  H    5.146639   5.955992   4.608795   3.952602   7.147977
                    6          7          8          9         10
     6  H    0.000000
     7  H    4.163540   0.000000
     8  Mo   4.920314   4.904446   0.000000
     9  S    5.701369   6.970550   2.316330   0.000000
    10  H    6.183983   7.371742   2.841713   1.358573   0.000000
    11  S    6.981140   5.675451   2.316403   3.916065   4.153543
    12  H    7.384571   6.153456   2.841604   4.154577   3.935205
                   11         12
    11  S    0.000000
    12  H    1.358557   0.000000
 Symmetry turned off by external request.
 Stoichiometry    H4Mo2S6
 Framework group  C1[X(H4Mo2S6)]
 Deg. of freedom    30
 Full point group                 C1      NOp   1
 Rotational constants (GHZ):           0.6969863           0.3367541           0.2808576
 Basis read from rwf:  (5D, 7F)
 Pseudo-potential data read from rwf file.
   172 basis functions,   438 primitive gaussians,   182 cartesian basis functions
    64 alpha electrons       64 beta electrons
       nuclear repulsion energy      1125.3096573178 Hartrees.
 NAtoms=   12 NActive=   12 NUniq=   12 SFac= 1.00D+00 NAtFMM=   60 NAOKFM=F Big=F
 Integral buffers will be    131072 words long.
 Raffenetti 2 integral format.
 Two-electron integral symmetry is turned off.
 One-electron integrals computed using PRISM.
   1 Symmetry operations used in ECPInt.
 ECPInt:  NShTT=    1711 NPrTT=   12482 LenC2=    1595 LenP2D=    8221.
 LDataN:  DoStor=T MaxTD1= 5 Len=  102
 NBasis=   172 RedAO= T EigKep=  1.58D-03  NBF=   172
 NBsUse=   172 1.00D-06 EigRej= -1.00D+00 NBFU=   172
 Defaulting to unpruned grid for atomic number  42.
 Defaulting to unpruned grid for atomic number  42.
 Initial guess from the checkpoint file:  "Mo2_S2_SH_4.chk"
 B after Tr=    -0.060326    0.031406    0.022532
         Rot=    0.999998   -0.000474   -0.001608    0.000876 Ang=  -0.22 deg.
 ExpMin= 2.47D-02 ExpMax= 2.19D+04 ExpMxC= 3.30D+03 IAcc=3 IRadAn=         5 AccDes= 0.00D+00
 Harris functional with IExCor=  402 and IRadAn=       5 diagonalized for initial guess.
 HarFok:  IExCor=  402 AccDes= 0.00D+00 IRadAn=         5 IDoV= 1 UseB2=F ITyADJ=14
 ICtDFT=  3500011 ScaDFX=  1.000000  1.000000  1.000000  1.000000
 Defaulting to unpruned grid for atomic number  42.
 FoFCou: FMM=F IPFlag=           0 FMFlag=      100000 FMFlg1=           0
         NFxFlg=           0 DoJE=T BraDBF=F KetDBF=T FulRan=T
         wScrn=  0.000000 ICntrl=       500 IOpCl=  0 I1Cent=   200000004 NGrid=           0
         NMat0=    1 NMatS0=      1 NMatT0=    0 NMatD0=    1 NMtDS0=    0 NMtDT0=    0
 Symmetry not used in FoFCou.
 Keep R1 ints in memory in canonical form, NReq=134915607.
 Requested convergence on RMS density matrix=1.00D-08 within 128 cycles.
 Requested convergence on MAX density matrix=1.00D-06.
 Requested convergence on             energy=1.00D-06.
 No special actions if energy rises.
 Defaulting to unpruned grid for atomic number  42.
 Defaulting to unpruned grid for atomic number  42.
 Defaulting to unpruned grid for atomic number  42.
 Defaulting to unpruned grid for atomic number  42.
 Defaulting to unpruned grid for atomic number  42.
 Defaulting to unpruned grid for atomic number  42.
 Defaulting to unpruned grid for atomic number  42.
 Defaulting to unpruned grid for atomic number  42.
 Defaulting to unpruned grid for atomic number  42.
 Defaulting to unpruned grid for atomic number  42.
 Defaulting to unpruned grid for atomic number  42.
 Defaulting to unpruned grid for atomic number  42.
 Defaulting to unpruned grid for atomic number  42.
 Defaulting to unpruned grid for atomic number  42.
 Defaulting to unpruned grid for atomic number  42.
 Defaulting to unpruned grid for atomic number  42.
 Defaulting to unpruned grid for atomic number  42.
 Defaulting to unpruned grid for atomic number  42.
 Defaulting to unpruned grid for atomic number  42.
 Defaulting to unpruned grid for atomic number  42.
 Defaulting to unpruned grid for atomic number  42.
 Defaulting to unpruned grid for atomic number  42.
 Defaulting to unpruned grid for atomic number  42.
 Defaulting to unpruned grid for atomic number  42.
 EnCoef did     3 forward-backward iterations
 EnCoef did     6 forward-backward iterations
 EnCoef did   100 forward-backward iterations
 SCF Done:  E(RB3LYP) =  -2526.81799248     A.U. after   16 cycles
            NFock= 16  Conv=0.38D-08     -V/T= 2.0392
   1 Symmetry operations used in ECPInt.
 ECPInt:  NShTT=    1711 NPrTT=   12482 LenC2=    1595 LenP2D=    8221.
 LDataN:  DoStor=T MaxTD1= 6 Len=  172
 Calling FoFJK, ICntrl=      2127 FMM=F ISym2X=0 I1Cent= 0 IOpClX= 0 NMat=1 NMatS=1 NMatT=0.
 Defaulting to unpruned grid for atomic number  42.
 Defaulting to unpruned grid for atomic number  42.
 Defaulting to unpruned grid for atomic number  42.
 Defaulting to unpruned grid for atomic number  42.
 Defaulting to unpruned grid for atomic number  42.
 Defaulting to unpruned grid for atomic number  42.
 Defaulting to unpruned grid for atomic number  42.
 Defaulting to unpruned grid for atomic number  42.
 Defaulting to unpruned grid for atomic number  42.
 Defaulting to unpruned grid for atomic number  42.
 Defaulting to unpruned grid for atomic number  42.
 Defaulting to unpruned grid for atomic number  42.
 Defaulting to unpruned grid for atomic number  42.
 Defaulting to unpruned grid for atomic number  42.
 Defaulting to unpruned grid for atomic number  42.
 Defaulting to unpruned grid for atomic number  42.
 Defaulting to unpruned grid for atomic number  42.
 Defaulting to unpruned grid for atomic number  42.
 Defaulting to unpruned grid for atomic number  42.
 Defaulting to unpruned grid for atomic number  42.
 Defaulting to unpruned grid for atomic number  42.
 Defaulting to unpruned grid for atomic number  42.
 Defaulting to unpruned grid for atomic number  42.
 Defaulting to unpruned grid for atomic number  42.
 -------------------------------------------------------------------
 Center     Atomic                   Forces (Hartrees/Bohr)
 Number     Number              X              Y              Z
 -------------------------------------------------------------------
      1       42          -0.000676310   -0.001373920   -0.002820415
      2       16          -0.000171243    0.000054411    0.000738906
      3       16           0.002839375    0.000721400    0.002781616
      4       16           0.002805561   -0.000459469    0.000738317
      5       16          -0.000005625    0.000655757    0.000362876
      6        1          -0.000033639    0.000000675   -0.000089023
      7        1          -0.000052209   -0.000076121   -0.000051602
      8       42          -0.004833563    0.000678742   -0.001405501
      9       16          -0.001067394   -0.000143722   -0.000295930
     10        1           0.001004996   -0.000393227    0.000417431
     11       16          -0.000963689    0.000259695   -0.000524724
     12        1           0.001153740    0.000075779    0.000148050
 -------------------------------------------------------------------
 Cartesian Forces:  Max     0.004833563 RMS     0.001368530

 GradGradGradGradGradGradGradGradGradGradGradGradGradGradGradGradGradGrad
 Berny optimization.
 Using GEDIIS/GDIIS optimizer.
 FormGI is forming the generalized inverse of G from B-inverse, IUseBI=4.
 Internal  Forces:  Max     0.003048022 RMS     0.000808102
 Search for a local minimum.
 Step number   4 out of a maximum of   63
 All quantities printed in internal units (Hartrees-Bohrs-Radians)
 Mixed Optimization -- En-DIIS/RFO-DIIS
 Update second derivatives using D2CorX and points    3    4
 DE= -9.41D-04 DEPred=-1.14D-03 R= 8.28D-01
 TightC=F SS=  1.41D+00  RLast= 2.91D-01 DXNew= 1.4270D+00 8.7403D-01
 Trust test= 8.28D-01 RLast= 2.91D-01 DXMaxT set to 8.74D-01
 ITU=  1  1  1  0
 Use linear search instead of GDIIS.
     Eigenvalues ---    0.00230   0.00230   0.00230   0.00415   0.02532
     Eigenvalues ---    0.04998   0.05061   0.08682   0.10702   0.13058
     Eigenvalues ---    0.13939   0.14729   0.14740   0.14971   0.15482
     Eigenvalues ---    0.16000   0.16000   0.16054   0.16210   0.19760
     Eigenvalues ---    0.19795   0.22261   0.22587   0.22771   0.24215
     Eigenvalues ---    0.24730   0.25305   0.25314   0.25464   0.25545
 RFO step:  Lambda=-1.14422332D-03 EMin= 2.29618348D-03
 Quartic linear search produced a step of -0.06914.
 Iteration  1 RMS(Cart)=  0.06177681 RMS(Int)=  0.00418092
 Iteration  2 RMS(Cart)=  0.00351765 RMS(Int)=  0.00018424
 Iteration  3 RMS(Cart)=  0.00000502 RMS(Int)=  0.00018418
 Iteration  4 RMS(Cart)=  0.00000000 RMS(Int)=  0.00018418
 Variable       Old X    -DE/DX   Delta X   Delta X   Delta X     New X
                                 (Linear)    (Quad)   (Total)
    R1        4.38475  -0.00029   0.00019  -0.00285  -0.00266   4.38209
    R2        4.27235  -0.00099  -0.00234   0.01494   0.01259   4.28493
    R3        4.32441  -0.00158   0.00012  -0.01172  -0.01150   4.31291
    R4        4.38443  -0.00030   0.00021  -0.00311  -0.00290   4.38152
    R5        5.29032   0.00084  -0.00307   0.03147   0.02832   5.31863
    R6        2.56060   0.00004   0.00000   0.00008   0.00008   2.56068
    R7        4.26072   0.00305  -0.00094   0.04001   0.03910   4.29982
    R8        4.29540   0.00224   0.00215   0.00362   0.00576   4.30116
    R9        2.56078   0.00004   0.00001   0.00003   0.00003   2.56081
   R10        4.37723   0.00041  -0.00097   0.00824   0.00727   4.38450
   R11        4.37737   0.00041  -0.00097   0.00825   0.00728   4.38465
   R12        2.56733  -0.00035   0.00018  -0.00241  -0.00223   2.56510
   R13        2.56730  -0.00035   0.00018  -0.00243  -0.00225   2.56505
    A1        1.89082  -0.00036  -0.00018  -0.00519  -0.00539   1.88543
    A2        1.90885   0.00026  -0.00039   0.00724   0.00685   1.91570
    A3        2.04159  -0.00067  -0.00005  -0.00413  -0.00422   2.03736
    A4        2.11965   0.00036   0.00000   0.00226   0.00225   2.12190
    A5        1.80604   0.00117   0.00132   0.00108   0.00237   1.80842
    A6        1.88994  -0.00039  -0.00017  -0.00543  -0.00563   1.88431
    A7        1.91171   0.00020  -0.00034   0.00669   0.00635   1.91806
    A8        2.12155   0.00029   0.00006   0.00153   0.00157   2.12312
    A9        1.71725  -0.00023  -0.00036   0.00116   0.00080   1.71805
   A10        1.71791  -0.00019  -0.00038   0.00156   0.00119   1.71910
   A11        2.10692  -0.00021  -0.00180   0.01193   0.00962   2.11654
   A12        2.10579  -0.00020  -0.00182   0.01218   0.00984   2.11564
   A13        1.81815  -0.00117   0.00029  -0.01104  -0.01066   1.80750
   A14        1.76329   0.00045  -0.00391   0.03696   0.03280   1.79610
[...]
   D16        1.45340   0.00000   0.00000   0.00047   0.00047   1.45387
   D17        1.86970   0.00000   0.00000   0.00095   0.00095   1.87065
   D18        2.80633  -0.00001   0.00000   0.00078   0.00078   2.80711
   D19        0.85687   0.00000   0.00000   0.00078   0.00078   0.85765
   D20       -1.45999   0.00000   0.00000   0.00059   0.00059  -1.45939
         Item               Value     Threshold  Converged?
 Maximum Force            0.000058     0.000450     YES
 RMS     Force            0.000018     0.000300     YES
 Maximum Displacement     0.002900     0.001800     NO 
 RMS     Displacement     0.000843     0.001200     YES
 Predicted change in Energy=-1.174469D-07
                           ----------------------------
                           ! Non-Optimized Parameters !
                           ! (Angstroms and Degrees)  !
 --------------------------                            --------------------------
 ! Name  Definition              Value          Derivative Info.                !
 --------------------------------------------------------------------------------
 ! R1    R(1,2)                  2.3182         -DE/DX =    0.0                 !
 ! R2    R(1,3)                  2.2603         -DE/DX =   -0.0001              !
 ! R3    R(1,4)                  2.2787         -DE/DX =    0.0                 !
 ! R4    R(1,5)                  2.3181         -DE/DX =    0.0                 !
 ! R5    R(1,8)                  2.8185         -DE/DX =    0.0                 !
 ! R6    R(2,7)                  1.3565         -DE/DX =    0.0                 !
 ! R7    R(3,8)                  2.2603         -DE/DX =    0.0                 !
 ! R8    R(4,8)                  2.2786         -DE/DX =    0.0                 !
 ! R9    R(5,6)                  1.3566         -DE/DX =    0.0                 !
 ! R10   R(8,9)                  2.3181         -DE/DX =    0.0                 !
 ! R11   R(8,11)                 2.3182         -DE/DX =    0.0                 !
 ! R12   R(9,10)                 1.3566         -DE/DX =    0.0                 !
 ! R13   R(11,12)                1.3565         -DE/DX =    0.0                 !
 ! A1    A(2,1,3)              104.9774         -DE/DX =    0.0                 !
 ! A2    A(2,1,4)              112.8425         -DE/DX =    0.0                 !
 ! A3    A(2,1,5)              116.3508         -DE/DX =    0.0                 !
 ! A4    A(2,1,8)              121.3549         -DE/DX =    0.0                 !
 ! A5    A(3,1,4)              103.224          -DE/DX =    0.0                 !
 ! A6    A(3,1,5)              104.9625         -DE/DX =    0.0                 !
 ! A7    A(4,1,5)              112.8722         -DE/DX =    0.0                 !
 ! A8    A(5,1,8)              121.3738         -DE/DX =    0.0                 !
 ! A9    A(1,2,7)               97.8213         -DE/DX =    0.0                 !
 ! A10   A(1,5,6)               97.8261         -DE/DX =    0.0                 !
 ! A11   A(1,8,9)              121.3765         -DE/DX =    0.0                 !
 ! A12   A(1,8,11)             121.3532         -DE/DX =    0.0                 !
 ! A13   A(3,8,4)              103.2255         -DE/DX =    0.0                 !
 ! A14   A(3,8,9)              104.9755         -DE/DX =    0.0                 !
 ! A15   A(3,8,11)             104.9947         -DE/DX =    0.0                 !
 ! A16   A(4,8,9)              112.861          -DE/DX =    0.0                 !
 ! A17   A(4,8,11)             112.8218         -DE/DX =    0.0                 !
 ! A18   A(9,8,11)             116.3567         -DE/DX =   -0.0001              !
 ! A19   A(8,9,10)              97.8352         -DE/DX =    0.0                 !
 ! A20   A(8,11,12)             97.8216         -DE/DX =    0.0                 !
 ! D1    D(3,1,2,7)           -160.9346         -DE/DX =    0.0                 !
 ! D2    D(4,1,2,7)            -49.2407         -DE/DX =    0.0                 !
 ! D3    D(5,1,2,7)             83.5489         -DE/DX =    0.0                 !
 ! D4    D(8,1,2,7)           -107.2891         -DE/DX =    0.0                 !
 ! D5    D(2,1,5,6)            -83.3364         -DE/DX =    0.0                 !
 ! D6    D(3,1,5,6)            161.1387         -DE/DX =    0.0                 !
 ! D7    D(4,1,5,6)             49.4397         -DE/DX =    0.0                 !
 ! D8    D(8,1,5,6)            107.5038         -DE/DX =    0.0                 !
 ! D9    D(2,1,8,9)           -168.6346         -DE/DX =    0.0                 !
 ! D10   D(2,1,8,11)             0.0265         -DE/DX =    0.0                 !
 ! D11   D(5,1,8,9)             -0.0166         -DE/DX =    0.0                 !
 ! D12   D(5,1,8,11)           168.6446         -DE/DX =    0.0                 !
 ! D13   D(1,8,9,10)          -107.4994         -DE/DX =    0.0                 !
 ! D14   D(3,8,9,10)          -161.1412         -DE/DX =    0.0                 !
 ! D15   D(4,8,9,10)           -49.4382         -DE/DX =    0.0                 !
 ! D16   D(11,8,9,10)           83.3005         -DE/DX =    0.0                 !
 ! D17   D(1,8,11,12)          107.1803         -DE/DX =    0.0                 !
 ! D18   D(3,8,11,12)          160.8355         -DE/DX =    0.0                 !
 ! D19   D(4,8,11,12)           49.1397         -DE/DX =    0.0                 !
 ! D20   D(9,8,11,12)          -83.6169         -DE/DX =    0.0                 !
 --------------------------------------------------------------------------------
 GradGradGradGradGradGradGradGradGradGradGradGradGradGradGradGradGradGrad


 ----------------------------------------------------------------------

 Electric dipole moment (input orientation):
 (Debye = 10**-18 statcoulomb cm , SI units = C m)
                  (au)            (Debye)         (10**-30 SI)
   Tot        0.132913D+01      0.337832D+01      0.112689D+02
   x          0.392971D+00      0.998832D+00      0.333175D+01
   y         -0.718167D+00     -0.182540D+01     -0.608888D+01
   z         -0.104709D+01     -0.266145D+01     -0.887764D+01

 Dipole polarizability, Alpha (input orientation).
 (esu units = cm**3 , SI units = C**2 m**2 J**-1)
 Alpha(0;0):
               (au)            (10**-24 esu)      (10**-40 SI)
   iso        0.212014D+03      0.314172D+02      0.349564D+02
   aniso      0.103696D+03      0.153661D+02      0.170971D+02
   xx         0.256042D+03      0.379415D+02      0.422157D+02
   yx         0.753000D+01      0.111583D+01      0.124153D+01
   yy         0.196704D+03      0.291486D+02      0.324321D+02
   zx         0.343880D+02      0.509577D+01      0.566981D+01
   zy        -0.290896D+02     -0.431063D+01     -0.479622D+01
   zz         0.183295D+03      0.271615D+02      0.302213D+02

 ----------------------------------------------------------------------

 Dipole orientation:
    42          5.89073558          8.34160230        -18.30436532
    16          8.78660260          5.07486024        -18.66835412
    16          3.27092321          7.87441397        -21.64602356
    16          3.26506904          7.87936717        -14.92243085
    16          7.48832463         12.40313463        -18.67885638
     1          8.28417724         12.68963091        -16.25883036
     1          9.62078241          5.07753721        -16.24435355
    42          0.64633868          7.41192678        -18.30817191
    16         -2.24760747         10.67915222        -18.68346290
     1         -3.09598861         10.67466180        -16.26439516
    16         -0.94610187          3.34714904        -18.67351735
     1         -1.73011216          3.06019264        -16.24980824

 Electric dipole moment (dipole orientation):
 (Debye = 10**-18 statcoulomb cm , SI units = C m)
                  (au)            (Debye)         (10**-30 SI)
   Tot        0.132913D+01      0.337832D+01      0.112689D+02
   x          0.000000D+00      0.000000D+00      0.000000D+00
   y          0.000000D+00      0.000000D+00      0.000000D+00
   z          0.132913D+01      0.337832D+01      0.112689D+02

 Dipole polarizability, Alpha (dipole orientation).
 (esu units = cm**3 , SI units = C**2 m**2 J**-1)
 Alpha(0;0):
               (au)            (10**-24 esu)      (10**-40 SI)
   iso        0.212014D+03      0.314172D+02      0.349564D+02
   aniso      0.103696D+03      0.153661D+02      0.170971D+02
   xx         0.268292D+03      0.397568D+02      0.442354D+02
   yx         0.931775D+01      0.138075D+01      0.153629D+01
   yy         0.217371D+03      0.322110D+02      0.358396D+02
   zx         0.731505D-01      0.108398D-01      0.120609D-01
   zy        -0.126243D+00     -0.187073D-01     -0.208146D-01
   zz         0.150379D+03      0.222838D+02      0.247941D+02

 ----------------------------------------------------------------------
 Unable to Open any file for archive entry.
 1\1\GINC-NID01338\Freq\RB3LYP\Gen\H4Mo2S6\UNKNOWN\02-Jan-2022\0\\#N Ge
 om=AllCheck Guess=TCheck SCRF=Check GenChk RB3LYP/ChkBas Freq\\Title C
 ard Required\\0,1\Mo,-0.2934430106,1.8189566939,10.9375968741\S,1.2615
 779193,3.5063506821,10.6083595598\S,-2.1127344197,2.8574061172,11.7872
 222349\S,-1.0639677487,0.9324674067,8.9847445985\S,0.2599847319,0.2032
 89496,12.5049789845\H,1.0256205851,-0.577882572,11.702535307\H,2.06054
 64184,2.8515186296,9.7291033553\Mo,-2.8895996899,1.9836841393,9.852844
 7302\S,-4.5593415511,0.5075483488,10.4907168787\H,-4.607644138,-0.2222
 609153,9.3482207581\S,-3.5560346708,3.8125722981,8.5937683524\H,-3.557
 8564259,3.2095446755,7.3786433666\\Version=ES64L-G16RevC.01\HF=-2526.8
 188945\RMSD=7.216e-09\RMSF=1.768e-05\ZeroPoint=0.0412349\Thermal=0.056
 5486\ETot=-2526.7623459\HTot=-2526.7614017\GTot=-2526.823177\Dipole=0.
 3929708,-0.7181673,-1.0470948\DipoleDeriv=0.2119932,0.2597407,-0.17468
 72,0.3496085,1.099167,-0.3368356,-0.0184705,-0.3841706,0.7206651,-0.47
 20412,-0.4374716,0.0773985,-0.4839572,-0.3606858,0.1544435,0.0806273,0
 .186304,-0.0690293,0.3909863,0.0152012,0.2862633,0.0149017,-0.1865837,
 -0.1415628,0.2860635,-0.1419485,-0.1969375,0.0173297,0.0397802,0.17251
 83,0.0397987,-0.2747279,-0.1504137,0.1721192,-0.1501443,-0.348294,-0.0
 86445,0.1402121,-0.2011566,0.1593306,-0.5171733,0.4223884,-0.2506072,0
 .4049099,-0.2985157,0.0532047,0.057978,0.0178453,0.0707374,0.0367952,0
 .0450224,0.0742408,-0.0218536,-0.0543965,0.0134991,-0.0407833,0.022555
 ,0.0141045,-0.0362974,-0.0820878,0.0844822,-0.0509116,0.0581488,0.3908
 022,0.1791588,-0.2221998,0.0895187,1.1211962,-0.4377888,-0.3776634,-0.
 3903659,0.5206224,-0.5066397,-0.3920305,0.0787555,-0.4203718,-0.445639
 4,0.1513825,0.1269454,0.1474359,0.0494673,0.033272,-0.0282516,0.079159
 7,-0.0821584,0.0520217,-0.0233842,0.0165405,-0.0547983,-0.0492902,-0.1
 464582,0.1564569,-0.1412545,0.2120788,-0.4445191,0.4681364,-0.1433238,
 0.4576116,-0.3110881,0.1004971,0.0500092,0.0048024,0.0364085,-0.043553
 5,-0.0693004,-0.050954,-0.0020686,-0.0213525\Polar=256.0422679,7.53000
 43,196.7042207,34.3879562,-29.0895524,183.295005\Quadrupole=15.3966259
 ,8.7017548,-24.0983807,2.1366653,11.4885443,-15.0892366\PG=C01 [X(H4Mo
 2S6)]\NImag=0\\0.26724602,-0.00258821,0.22248187,0.01915341,-0.0009221
 5,0.23084601,-0.05733958,-0.05272098,0.00452631,0.14392970,-0.04850480
 ,-0.07783881,0.00812090,-0.01165329,0.14520529,0.00758975,0.00899094,-
 0.01811934,-0.10311912,0.07099229,0.12224809,-0.08993935,0.04897475,0.
 04693456,-0.00452520,-0.00220884,0.00296893,0.11541846,0.05020298,-0.0
 4716320,-0.02551741,-0.00073933,0.00529925,0.00333002,-0.03301538,0.08
 019766,0.04918099,-0.02615563,-0.03697431,0.00098841,0.00208063,-0.000
 03493,-0.01117573,0.07417070,0.15107882,-0.01803210,-0.01848321,-0.031
 05037,-0.00236851,-0.00399294,-0.00084638,-0.00028891,0.00359065,0.001
 18151,0.10714794,-0.01490285,-0.04040079,-0.04341480,-0.00156871,0.000
 12721,-0.00303866,0.00358786,0.00360489,-0.00805481,-0.03214976,0.0778
 3616,-0.02497422,-0.04531173,-0.11213331,-0.00435962,0.00071615,0.0036
 0618,0.00117718,-0.00806149,-0.00409045,-0.01331305,0.07290117,0.14634
 198,-0.02038411,0.01274017,-0.01729678,0.00538028,0.00226964,0.0038437
 8,-0.00111976,0.00180982,-0.00227738,-0.00032286,-0.00150225,-0.003615
 63,0.09415600,0.01269377,-0.06248763,0.05128435,-0.00287747,-0.0037091
 4,0.00327248,0.00388240,-0.00361609,0.00126177,0.00359590,0.00354130,0
 .00141385,-0.09564840,0.14978894,-0.01292739,0.04821446,-0.07044395,0.
 00692265,0.00372658,0.00317361,-0.00317853,-0.00030341,0.00543249,-0.0
 0253907,0.00375540,-0.00184107,-0.06729208,0.02877331,0.16800008,-0.00
 531996,0.00724765,0.00033962,-0.00036472,-0.00143133,-0.00229277,0.000
 66608,0.00049745,-0.00077800,0.00076681,0.00002597,0.00145406,-0.07885
 044,0.07731940,0.08137560,0.08246657,0.00697712,-0.00697357,-0.0007764
 6,0.00023946,-0.00030958,-0.00086223,-0.00129729,0.00059129,0.00119073
 ,-0.00117085,0.00081623,0.00138715,0.07826184,-0.08510699,-0.08117417,
 -0.08369159,0.09187136,-0.00463064,0.00307191,0.00575286,-0.00040918,-
 0.00014920,-0.00130966,0.00039405,0.00063886,-0.00136776,-0.00009822,-
 0.00088999,-0.00024267,0.08524753,-0.08421049,-0.09982940,-0.08092166,
 0.08058368,0.09530819,-0.01136345,0.00127828,0.00710327,-0.08511099,0.
 06567433,0.09060914,0.00054425,-0.00189217,-0.00023880,0.00138717,0.00
 022679,0.00015953,-0.00043856,-0.00086855,-0.00212858,0.00134189,0.000
 17135,0.00099592,0.09463469,-0.00347343,0.00478950,0.00336488,0.069020
 16,-0.06908653,-0.08067194,0.00015684,-0.00128474,-0.00049661,0.000161
 90,-0.00072050,-0.00158779,-0.00043705,0.00009514,0.00058070,0.0002395
 1,0.00015860,0.00004234,-0.06503317,0.06563663,0.00315230,0.00217539,0
 .00001331,0.09428082,-0.07990536,-0.10907123,-0.00097897,-0.00006464,0
 .00062608,-0.00045643,0.00134603,0.00066735,-0.00027459,-0.00123821,-0
 .00164478,0.00104485,0.00037802,0.00101382,-0.09681530,0.07734530,0.10
 888864,-0.06529967,0.00231315,-0.03040385,0.00050187,0.00034516,0.0012
 9014,-0.01882245,-0.01859287,-0.03324729,-0.08416090,0.04428566,0.0433
 7641,0.00121621,0.00135335,0.00041675,-0.00058193,0.00059202,-0.000607
 45,-0.00110224,-0.00069180,0.00001229,0.26795901,-0.00335411,0.0083386
 9,0.01320201,0.00044336,-0.00121143,-0.00190841,-0.01737319,-0.0389172
 3,-0.04683139,0.04787278,-0.04814014,-0.02370370,0.00248987,0.00098925
 ,-0.00404138,0.00010914,-0.00125963,0.00111677,0.00028901,0.00069547,-
 0.00040081,-0.00328624,0.22269823,-0.04020074,0.01619520,0.00680133,0.
 00138902,-0.00628141,-0.00124544,-0.03101609,-0.04750176,-0.11652312,0
 .04942613,-0.02557674,-0.03848931,0.00244473,-0.00031452,-0.00414454,-
 0.00041912,-0.00121470,0.00075684,0.00069885,0.00167406,-0.00067331,0.
 01832652,-0.00109980,0.23025838,-0.00001911,0.00116750,0.00161103,-0.0
 0048540,-0.00044243,0.00016459,-0.00105489,-0.00115192,-0.00401078,-0.
 00463521,-0.00078887,0.00104083,0.00046402,0.00032591,-0.00076105,-0.0
 0008355,-0.00014445,0.00010542,0.00016879,-0.00002277,0.00000947,-0.07
 040488,-0.04373316,0.02770332,0.07521421,-0.00075468,0.00121561,-0.001
 17847,-0.00034954,-0.00072912,0.00008526,-0.00376358,-0.00294269,-0.00
 182493,-0.00266250,0.00391009,-0.00161035,0.00022797,0.00123049,-0.000
 52777,-0.00023784,-0.00008578,-0.00011492,0.00021151,0.00015284,-0.000
 00860,-0.04572170,-0.05504965,0.02269376,0.05585642,0.13060750,0.00315
 498,-0.00479105,-0.00313495,-0.00015227,0.00094405,-0.00011511,-0.0031
 8372,-0.00153447,0.00469686,0.00045239,0.00374059,0.00209458,-0.000246
 61,-0.00051585,0.00137264,-0.00008591,0.00021223,-0.00007802,-0.000026
 46,-0.00031234,0.00035458,0.02303645,0.02098677,-0.02782232,-0.0259196
 4,0.08895388,0.20563251,-0.00046860,-0.00091201,-0.00094457,0.00020317
 ,0.00009409,-0.00013319,-0.00062504,-0.00075268,0.00174336,0.00097841,
 0.00059870,-0.00004169,-0.00005038,0.00023816,0.00012973,-0.00005949,0
 .00003052,-0.00007345,-0.00007233,0.00002560,0.00003426,-0.00312443,-0
 .00728938,-0.00894402,-0.00607961,-0.00279832,0.00163074,0.00919845,0.
 00038230,-0.00118025,-0.00126635,-0.00012750,0.00044644,0.00000785,0.0
 0017363,0.00058343,0.00161431,-0.00023946,0.00071810,0.00187351,-0.000
 04911,-0.00012162,0.00023890,-0.00003751,0.00007268,0.00001813,-0.0000
 5993,-0.00021856,0.00016252,-0.00458803,-0.00533107,-0.00496194,-0.005
 44566,-0.07493246,-0.10913244,0.00995236,0.08021692,-0.00048465,0.0006
 8299,0.00056823,0.00014457,-0.00012809,0.00002844,0.00044124,0.0000761
 1,-0.00006847,0.00120414,-0.00072590,-0.00035627,-0.00009103,0.0000964
 0,-0.00007453,0.00005152,0.00003869,-0.00003345,-0.00004410,0.00008540
 ,-0.00011432,-0.00359521,-0.00300016,0.00191618,-0.00250973,-0.1101695
 7,-0.18233013,0.00508269,0.11228465,0.17978340,0.00149693,0.00074203,0
 .00037758,0.00034364,-0.00004121,-0.00029063,-0.00038888,-0.00119255,-
 0.00094415,-0.00131294,0.00346824,-0.00076053,-0.00031518,0.00013622,0
 .00008533,0.00013516,0.00011971,-0.00006293,0.00005250,0.00010880,0.00
 003743,-0.02553310,0.02537632,-0.01232296,0.00899435,-0.00165920,-0.00
 032110,-0.00200787,0.00064574,-0.00036178,0.02200724,0.00388931,-0.001
 47305,-0.00470157,0.00042654,0.00197375,-0.00009869,0.00081307,0.00512
 178,0.00358337,0.00266333,-0.00062929,0.00328884,-0.00039426,-0.000761
 17,0.00095495,0.00004860,0.00043418,-0.00013674,-0.00007208,-0.0001835
 4,0.00020227,0.02322556,-0.08744810,0.04004845,-0.00576617,-0.00328306
 ,0.00090861,0.00123109,-0.00049698,0.00091797,-0.02992267,0.14794382,0
 .00093555,-0.00173817,-0.00198831,-0.00016367,-0.00030370,0.00075454,-
 0.00284376,0.00362413,-0.00400005,-0.00474630,-0.00066051,0.00329425,-
 0.00032524,0.00032534,-0.00025338,0.00023730,0.00008502,0.00010897,-0.
 00025628,0.00002156,-0.00011551,-0.01511960,0.04397537,-0.04027559,0.0
 0293352,0.00392046,-0.00085611,0.00135973,-0.00096483,0.00052259,0.013
 58276,0.05266164,0.24163712,-0.00057702,0.00024088,-0.00035020,-0.0001
 6427,-0.00010836,0.00021576,0.00013569,0.00123598,-0.00042211,0.000841
 10,-0.00128078,-0.00014325,0.00026477,-0.00015068,-0.00010335,-0.00011
 643,-0.00008783,0.00006061,-0.00004173,-0.00005458,-0.00004613,-0.0006
 4750,-0.00154440,-0.00708566,-0.00207873,0.00165148,0.00166117,0.00210
 771,-0.00060682,0.00016232,-0.00347186,0.00385767,0.00440599,0.0037482
 7,-0.00056739,0.00069163,0.00180508,-0.00009269,-0.00016733,-0.0000989
 0,0.00006974,-0.00147434,-0.00053813,0.00081416,-0.00066325,-0.0013056
 1,0.00023174,0.00015751,-0.00019759,-0.00008944,-0.00020878,0.00002964
 ,0.00007466,-0.00003430,0.00000810,0.00076574,0.00463562,0.00633940,0.
 00014558,-0.00009376,0.00054003,-0.00041811,0.00024339,-0.00015849,0.0
 0221857,-0.06119834,-0.10094632,-0.00315255,0.05811195,0.00005066,-0.0
 0041216,-0.00118757,-0.00004793,0.00018716,0.00008485,0.00046084,0.001
 14337,0.00122484,0.00078565,0.00061822,0.00114876,-0.00011668,-0.00014
 844,0.00025282,-0.00000549,0.00015203,-0.00007971,-0.00005717,-0.00004
 556,0.00005536,-0.00348515,0.00170474,-0.01055909,-0.00036697,-0.00021
 874,0.00018547,0.00015642,0.00012570,0.00015833,0.00098098,-0.09762911
 ,-0.19882854,0.00164485,0.09452280,0.20754447\\0.00003770,-0.00001338,
 -0.00000819,0.00001225,-0.00000625,0.00001826,-0.00006242,0.00002632,0
 .00002335,-0.00003292,-0.00000473,-0.00003301,0.00001273,0.00001550,0.
 00000545,-0.00000111,0.00000012,-0.00000295,-0.00000320,-0.00000720,-0
 .00000185,0.00000104,-0.00000351,-0.00000350,0.00001370,-0.00001740,0.
 00000739,-0.00000139,0.,0.00000241,0.00002288,0.00000709,-0.00000772,0
 .00000073,0.00000343,0.00000036\\\@
 The archive entry for this job was punched.


 Sacred cows make the best hamburger.
                               -- Mark Twain
 Job cpu time:       0 days  0 hours 18 minutes  7.0 seconds.
 Elapsed time:       0 days  0 hours  0 minutes 49.7 seconds.
 File lengths (MBytes):  RWF=     63 Int=      0 D2E=      0 Chk=      4 Scr=      1
 Normal termination of Gaussian 16 at Sun Jan  2 12:17:40 2022.
Application 1179008 resources: utime ~5487s, stime ~40s, Rss ~2042160, inblocks ~1241176, outblocks ~616680
