 Entering Gaussian System, Link 0=/apps/GAU16/avx2/g16/g16
 Initial command:
 /apps/GAU16/avx2//g16/l1.exe "/localscratch/chegho/Gau-137947.inp" -scrdir="/localscratch/chegho/"
 Entering Link 1 = /apps/GAU16/avx2//g16/l1.exe PID=    137948.
  
 Copyright (c) 1988-2019, Gaussian, Inc.  All Rights Reserved.
  
 This is part of the Gaussian(R) 16 program.  It is based on
 the Gaussian(R) 09 system (copyright 2009, Gaussian, Inc.),
 the Gaussian(R) 03 system (copyright 2003, Gaussian, Inc.),
 the Gaussian(R) 98 system (copyright 1998, Gaussian, Inc.),
 the Gaussian(R) 94 system (copyright 1995, Gaussian, Inc.),
 the Gaussian 92(TM) system (copyright 1992, Gaussian, Inc.),
 the Gaussian 90(TM) system (copyright 1990, Gaussian, Inc.),
 the Gaussian 88(TM) system (copyright 1988, Gaussian, Inc.),
 the Gaussian 86(TM) system (copyright 1986, Carnegie Mellon
 University), and the Gaussian 82(TM) system (copyright 1983,
 Carnegie Mellon University). Gaussian is a federally registered
 trademark of Gaussian, Inc.
  
 This software contains proprietary and confidential information,
 including trade secrets, belonging to Gaussian, Inc.
  
 This software is provided under written license and may be
 used, copied, transmitted, or stored only in accord with that
 written license.
  
 The following legend is applicable only to US Government
 contracts under FAR:
  
                    RESTRICTED RIGHTS LEGEND
  
 Use, reproduction and disclosure by the US Government is
 subject to restrictions as set forth in subparagraphs (a)
 and (c) of the Commercial Computer Software - Restricted
 Rights clause in FAR 52.227-19.
  
 Gaussian, Inc.
 340 Quinnipiac St., Bldg. 40, Wallingford CT 06492
  
  
 ---------------------------------------------------------------
 Warning -- This program may not be used in any manner that
 competes with the business of Gaussian, Inc. or will provide
 assistance to any competitor of Gaussian, Inc.  The licensee
 of this program is prohibited from giving any competitor of
 Gaussian, Inc. access to this program.  By using this program,
 the user acknowledges that Gaussian, Inc. is engaged in the
 business of creating and licensing software in the field of
 computational chemistry and represents and warrants to the
 licensee that it is not a competitor of Gaussian, Inc. and that
 it will not use this program in any manner prohibited above.
 ---------------------------------------------------------------
  

 Cite this work as:
 Gaussian 16, Revision C.01,
 M. J. Frisch, G. W. Trucks, H. B. Schlegel, G. E. Scuseria, 
 M. A. Robb, J. R. Cheeseman, G. Scalmani, V. Barone, 
 G. A. Petersson, H. Nakatsuji, X. Li, M. Caricato, A. V. Marenich, 
 J. Bloino, B. G. Janesko, R. Gomperts, B. Mennucci, H. P. Hratchian, 
 J. V. Ortiz, A. F. Izmaylov, J. L. Sonnenberg, D. Williams-Young, 
 F. Ding, F. Lipparini, F. Egidi, J. Goings, B. Peng, A. Petrone, 
 T. Henderson, D. Ranasinghe, V. G. Zakrzewski, J. Gao, N. Rega, 
 G. Zheng, W. Liang, M. Hada, M. Ehara, K. Toyota, R. Fukuda, 
 J. Hasegawa, M. Ishida, T. Nakajima, Y. Honda, O. Kitao, H. Nakai, 
 T. Vreven, K. Throssell, J. A. Montgomery, Jr., J. E. Peralta, 
 F. Ogliaro, M. J. Bearpark, J. J. Heyd, E. N. Brothers, K. N. Kudin, 
 V. N. Staroverov, T. A. Keith, R. Kobayashi, J. Normand, 
 K. Raghavachari, A. P. Rendell, J. C. Burant, S. S. Iyengar, 
 J. Tomasi, M. Cossi, J. M. Millam, M. Klene, C. Adamo, R. Cammi, 
 J. W. Ochterski, R. L. Martin, K. Morokuma, O. Farkas, 
 J. B. Foresman, and D. J. Fox, Gaussian, Inc., Wallingford CT, 2019.
 
 ******************************************
 Gaussian 16:  ES64L-G16RevC.01  3-Jul-2019
                25-Oct-2022 
 ******************************************
 %nprocshared=48
 Will use up to   48 processors via shared memory.
 %chk=Mo2_MoCO.chk
 %mem=100GB
 ---------------------------------------
 # opt freq b3lyp/gen nosymm pseudo=read
 ---------------------------------------
 1/18=20,19=15,26=3,38=1/1,3;
 2/9=110,12=2,15=1,17=6,18=5,40=1/2;
 3/5=7,11=2,16=1,17=8,25=1,30=1,71=1,74=-5/1,2,3;
 4//1;
 5/5=2,38=5/2;
 6/7=2,8=2,9=2,10=2,28=1/1;
 7/30=1/1,2,3,16;
 1/18=20,19=15,26=3/3(2);
 2/9=110,15=1/2;
 99//99;
 2/9=110,15=1/2;
 3/5=7,6=1,11=2,16=1,17=8,25=1,30=1,71=1,74=-5,82=7/1,2,3;
 4/5=5,16=3,69=1/1;
 5/5=2,38=5/2;
 7/30=1/1,2,3,16;
 1/18=20,19=15,26=3/3(-5);
 2/9=110,15=1/2;
 6/7=2,8=2,9=2,10=2,19=2,28=1/1;
 99/9=1/99;
 -------------------
 Title Card Required
 -------------------
 Symbolic Z-matrix:
 Charge =  0 Multiplicity = 1
 42                    0.07553   1.8045    11.02143 
 16                    1.03502   4.00727   11.08871 
 16                   -1.84878   2.13102   12.15985 
 16                   -0.43449   1.63622   8.71148 
 16                    1.1523   -0.04451   11.95706 
 1                     1.58549  -0.73376   10.87532 
 42                   -2.37567   2.24212   9.91509 
 16                   -4.22646   0.84939   9.54861 
 1                    -4.43376   1.17178   8.24852 
 16                   -2.82511   4.61163   10.17726 
 1                    -3.6601    4.80426   9.12998 
 1                     2.16231   3.9229    10.34281 
 42                   -0.7144    4.07677   8.87816 
 6                    -1.79469   4.33426   7.25909 
 8                    -2.45364   4.51168   6.31415 
 

 GradGradGradGradGradGradGradGradGradGradGradGradGradGradGradGradGradGrad
 Berny optimization.
 Initialization pass.
                           ----------------------------
                           !    Initial Parameters    !
                           ! (Angstroms and Degrees)  !
 --------------------------                            --------------------------
 ! Name  Definition              Value          Derivative Info.                !
 --------------------------------------------------------------------------------
 ! R1    R(1,2)                  2.4036         estimate D2E/DX2                !
 ! R2    R(1,3)                  2.2595         estimate D2E/DX2                !
 ! R3    R(1,4)                  2.3716         estimate D2E/DX2                !
 ! R4    R(1,5)                  2.3353         estimate D2E/DX2                !
 ! R5    R(1,7)                  2.7247         estimate D2E/DX2                !
 ! R6    R(2,12)                 1.3544         estimate D2E/DX2                !
 ! R7    R(3,7)                  2.3084         estimate D2E/DX2                !
 ! R8    R(4,7)                  2.363          estimate D2E/DX2                !
 ! R9    R(4,13)                 2.4622         estimate D2E/DX2                !
 ! R10   R(5,6)                  1.3538         estimate D2E/DX2                !
 ! R11   R(7,8)                  2.3451         estimate D2E/DX2                !
 ! R12   R(7,10)                 2.426          estimate D2E/DX2                !
 ! R13   R(7,13)                 2.6835         estimate D2E/DX2                !
 ! R14   R(8,9)                  1.3554         estimate D2E/DX2                !
 ! R15   R(10,11)                1.3532         estimate D2E/DX2                !
 ! R16   R(10,13)                2.5355         estimate D2E/DX2                !
 ! R17   R(13,14)                1.9633         estimate D2E/DX2                !
 ! R18   R(14,15)                1.1656         estimate D2E/DX2                !
 ! A1    A(2,1,3)              101.1527         estimate D2E/DX2                !
 ! A2    A(2,1,4)              100.2614         estimate D2E/DX2                !
 ! A3    A(2,1,5)              122.028          estimate D2E/DX2                !
 ! A4    A(2,1,7)              102.9024         estimate D2E/DX2                !
 ! A5    A(3,1,4)              108.5321         estimate D2E/DX2                !
 ! A6    A(3,1,5)              107.7724         estimate D2E/DX2                !
 ! A7    A(4,1,5)              115.6717         estimate D2E/DX2                !
 ! A8    A(5,1,7)              134.8012         estimate D2E/DX2                !
 ! A9    A(1,2,12)             105.0556         estimate D2E/DX2                !
 ! A10   A(1,4,13)              83.5797         estimate D2E/DX2                !
 ! A11   A(1,5,6)              103.3267         estimate D2E/DX2                !
 ! A12   A(1,7,8)              132.6934         estimate D2E/DX2                !
 ! A13   A(1,7,10)             106.24           estimate D2E/DX2                !
 ! A14   A(1,7,13)              73.1284         estimate D2E/DX2                !
 ! A15   A(3,7,4)              107.185          estimate D2E/DX2                !
 ! A16   A(3,7,8)              107.6692         estimate D2E/DX2                !
 ! A17   A(3,7,10)              89.095          estimate D2E/DX2                !
 ! A18   A(3,7,13)             105.5069         estimate D2E/DX2                !
 ! A19   A(4,7,8)              114.6106         estimate D2E/DX2                !
 ! A20   A(4,7,10)             117.2369         estimate D2E/DX2                !
 ! A21   A(8,7,10)             116.7915         estimate D2E/DX2                !
 ! A22   A(8,7,13)             146.5365         estimate D2E/DX2                !
 ! A23   A(7,8,9)               97.4316         estimate D2E/DX2                !
 ! A24   A(7,10,11)             99.7715         estimate D2E/DX2                !
 ! A25   A(11,10,13)            98.4629         estimate D2E/DX2                !
 ! A26   A(4,13,10)            109.7801         estimate D2E/DX2                !
 ! A27   A(4,13,14)             97.8582         estimate D2E/DX2                !
 ! A28   A(7,13,14)             93.8811         estimate D2E/DX2                !
 ! A29   A(10,13,14)            86.3769         estimate D2E/DX2                !
 ! A30   L(13,14,15,8,-1)      180.0574         estimate D2E/DX2                !
 ! A31   L(13,14,15,8,-2)      178.2762         estimate D2E/DX2                !
 ! D1    D(3,1,2,12)          -175.9658         estimate D2E/DX2                !
 ! D2    D(4,1,2,12)           -64.5638         estimate D2E/DX2                !
 ! D3    D(5,1,2,12)            64.6743         estimate D2E/DX2                !
 ! D4    D(7,1,2,12)          -120.46           estimate D2E/DX2                !
 ! D5    D(2,1,4,13)           -30.2158         estimate D2E/DX2                !
 ! D6    D(3,1,4,13)            75.3297         estimate D2E/DX2                !
 ! D7    D(5,1,4,13)          -163.4512         estimate D2E/DX2                !
 ! D8    D(2,1,5,6)           -106.838          estimate D2E/DX2                !
 ! D9    D(3,1,5,6)            137.0521         estimate D2E/DX2                !
 ! D10   D(4,1,5,6)             15.4253         estimate D2E/DX2                !
 ! D11   D(7,1,5,6)             80.2237         estimate D2E/DX2                !
 ! D12   D(2,1,7,8)           -173.8253         estimate D2E/DX2                !
 ! D13   D(2,1,7,10)           -18.6657         estimate D2E/DX2                !
 ! D14   D(2,1,7,13)            31.1781         estimate D2E/DX2                !
 ! D15   D(5,1,7,8)              0.0366         estimate D2E/DX2                !
 ! D16   D(5,1,7,10)           155.1961         estimate D2E/DX2                !
 ! D17   D(5,1,7,13)          -154.96           estimate D2E/DX2                !
 ! D18   D(1,4,13,10)          -71.4717         estimate D2E/DX2                !
 ! D19   D(1,4,13,14)         -160.4314         estimate D2E/DX2                !
 ! D20   D(1,7,8,9)           -130.9386         estimate D2E/DX2                !
 ! D21   D(3,7,8,9)            174.1028         estimate D2E/DX2                !
 ! D22   D(4,7,8,9)            -66.7547         estimate D2E/DX2                !
 ! D23   D(10,7,8,9)            75.9228         estimate D2E/DX2                !
 ! D24   D(13,7,8,9)             1.8774         estimate D2E/DX2                !
 ! D25   D(1,7,10,11)          153.2317         estimate D2E/DX2                !
 ! D26   D(3,7,10,11)         -156.4004         estimate D2E/DX2                !
 ! D27   D(4,7,10,11)           94.6817         estimate D2E/DX2                !
 ! D28   D(8,7,10,11)          -47.0048         estimate D2E/DX2                !
 ! D29   D(1,7,13,14)          155.7559         estimate D2E/DX2                !
 ! D30   D(3,7,13,14)         -162.2659         estimate D2E/DX2                !
 ! D31   D(8,7,13,14)           10.0469         estimate D2E/DX2                !
 ! D32   D(11,10,13,4)         -96.7286         estimate D2E/DX2                !
 ! D33   D(11,10,13,14)          0.3259         estimate D2E/DX2                !
 --------------------------------------------------------------------------------
 Trust Radius=3.00D-01 FncErr=1.00D-07 GrdErr=1.00D-06 EigMax=2.50D+02 EigMin=1.00D-04
 Number of steps in this run=     92 maximum allowed number of steps=    100.
 GradGradGradGradGradGradGradGradGradGradGradGradGradGradGradGradGradGrad

                          Input orientation:                          
 ---------------------------------------------------------------------
 Center     Atomic      Atomic             Coordinates (Angstroms)
 Number     Number       Type             X           Y           Z
 ---------------------------------------------------------------------
      1         42           0        0.075534    1.804499   11.021434
      2         16           0        1.035020    4.007270   11.088712
      3         16           0       -1.848775    2.131022   12.159846
      4         16           0       -0.434494    1.636221    8.711477
      5         16           0        1.152301   -0.044508   11.957059
      6          1           0        1.585486   -0.733758   10.875319
      7         42           0       -2.375671    2.242119    9.915089
      8         16           0       -4.226464    0.849394    9.548607
      9          1           0       -4.433758    1.171780    8.248523
     10         16           0       -2.825111    4.611630   10.177257
     11          1           0       -3.660100    4.804259    9.129982
     12          1           0        2.162306    3.922904   10.342807
     13         42           0       -0.714398    4.076771    8.878158
     14          6           0       -1.794689    4.334262    7.259092
     15          8           0       -2.453643    4.511681    6.314148
 ---------------------------------------------------------------------
                    Distance matrix (angstroms):
                    1          2          3          4          5
     1  Mo   0.000000
     2  S    2.403610   0.000000
     3  S    2.259550   3.603319   0.000000
     4  S    2.371571   3.665050   3.759823   0.000000
     5  S    2.335305   4.145442   3.712211   3.984541   0.000000
     6  H    2.957035   4.777645   4.653077   3.792009   1.353838
     7  Mo   2.724686   4.015714   2.308440   2.363041   4.673852
     8  S    4.646357   6.326715   3.756933   3.962186   5.960773
     9  H    5.331330   6.783377   4.785471   4.052671   6.814444
    10  S    4.123877   4.012058   3.322244   4.088596   6.377078
    11  H    5.150836   5.149366   4.427998   4.540501   7.393383
    12  H    3.050048   1.354351   4.754076   3.825379   4.400713
    13  Mo   3.221932   2.819901   3.980229   2.462197   5.472580
    14  C    4.904350   4.772857   5.373507   3.352458   7.066065
    15  O    5.990335   5.934784   6.340788   4.253518   8.099638
                    6          7          8          9         10
     6  H    0.000000
     7  Mo   5.046647   0.000000
     8  S    6.168087   2.345086   0.000000
     9  H    6.838306   2.856360   1.355405   0.000000
    10  S    6.965187   2.425966   4.063670   4.259146   0.000000
    11  H    7.825088   2.971651   4.017085   3.817122   1.353181
    12  H    4.722371   4.858108   7.133975   7.447333   5.037467
    13  Mo   5.693796   2.683468   4.816645   4.761203   2.535516
    14  C    7.084314   3.430586   4.826978   4.236148   3.107151
    15  O    8.039495   4.257202   5.197785   4.337926   3.882214
                   11         12         13         14         15
    11  H    0.000000
    12  H    6.012333   0.000000
    13  Mo   3.044637   3.231764   0.000000
    14  C    2.683446   5.033520   1.963340   0.000000
    15  O    3.077347   6.154977   3.128621   1.165597   0.000000
 Symmetry turned off by external request.
 Stoichiometry    CH4Mo3OS6
 Framework group  C1[X(CH4Mo3OS6)]
 Deg. of freedom    39
 Full point group                 C1      NOp   1
 Rotational constants (GHZ):           0.3733922           0.2505416           0.1938596
 General basis read from cards:  (5D, 7F)
 ======================================================================================================
                                       Pseudopotential Parameters
 ======================================================================================================
  Center     Atomic      Valence      Angular      Power
  Number     Number     Electrons     Momentum     of R      Exponent        Coefficient   SO-Coeffient
 ======================================================================================================
    1         42           14
                                      F and up 
                                                     0      537.9667807       -0.04694920    0.00000000
                                                     1      147.8982938      -20.20800840    0.00000000
                                                     2       45.7358898     -106.21163020    0.00000000
                                                     2       13.2911467      -41.81073680    0.00000000
                                                     2        4.7059961       -4.20541030    0.00000000
                                      S - F
                                                     0      110.2991760        2.80637170    0.00000000
                                                     1       23.2014645       44.51620120    0.00000000
                                                     2        5.3530131       82.77852270    0.00000000
                                      P - F
                                                     0       63.2901397        4.94208760    0.00000000
                                                     1       23.3315302       25.86049760    0.00000000
                                                     2       24.6759423      132.47087420    0.00000000
                                                     2        4.6493040       57.31497940    0.00000000
                                      D - F
                                                     0      104.4839977        3.00545910    0.00000000
                                                     1       66.2307245       26.36378510    0.00000000
                                                     2       39.1283176      183.38491990    0.00000000
                                                     2       13.1164437       98.44530680    0.00000000
                                                     2        3.6280263       22.49013770    0.00000000
    2         16
                                   No pseudopotential on this center.
    3         16
                                   No pseudopotential on this center.
    4         16
                                   No pseudopotential on this center.
    5         16
                                   No pseudopotential on this center.
    6          1
                                   No pseudopotential on this center.
    7         42           14
                                      F and up 
                                                     0      537.9667807       -0.04694920    0.00000000
                                                     1      147.8982938      -20.20800840    0.00000000
                                                     2       45.7358898     -106.21163020    0.00000000
                                                     2       13.2911467      -41.81073680    0.00000000
                                                     2        4.7059961       -4.20541030    0.00000000
                                      S - F
                                                     0      110.2991760        2.80637170    0.00000000
                                                     1       23.2014645       44.51620120    0.00000000
                                                     2        5.3530131       82.77852270    0.00000000
                                      P - F
                                                     0       63.2901397        4.94208760    0.00000000
                                                     1       23.3315302       25.86049760    0.00000000
                                                     2       24.6759423      132.47087420    0.00000000
                                                     2        4.6493040       57.31497940    0.00000000
                                      D - F
                                                     0      104.4839977        3.00545910    0.00000000
                                                     1       66.2307245       26.36378510    0.00000000
                                                     2       39.1283176      183.38491990    0.00000000
                                                     2       13.1164437       98.44530680    0.00000000
                                                     2        3.6280263       22.49013770    0.00000000
    8         16
                                   No pseudopotential on this center.
    9          1
                                   No pseudopotential on this center.
   10         16
                                   No pseudopotential on this center.
   11          1
                                   No pseudopotential on this center.
   12          1
                                   No pseudopotential on this center.
   13         42           14
                                      F and up 
                                                     0      537.9667807       -0.04694920    0.00000000
                                                     1      147.8982938      -20.20800840    0.00000000
                                                     2       45.7358898     -106.21163020    0.00000000
                                                     2       13.2911467      -41.81073680    0.00000000
                                                     2        4.7059961       -4.20541030    0.00000000
                                      S - F
                                                     0      110.2991760        2.80637170    0.00000000
                                                     1       23.2014645       44.51620120    0.00000000
                                                     2        5.3530131       82.77852270    0.00000000
                                      P - F
                                                     0       63.2901397        4.94208760    0.00000000
                                                     1       23.3315302       25.86049760    0.00000000
                                                     2       24.6759423      132.47087420    0.00000000
                                                     2        4.6493040       57.31497940    0.00000000
                                      D - F
                                                     0      104.4839977        3.00545910    0.00000000
                                                     1       66.2307245       26.36378510    0.00000000
                                                     2       39.1283176      183.38491990    0.00000000
                                                     2       13.1164437       98.44530680    0.00000000
                                                     2        3.6280263       22.49013770    0.00000000
   14          6
                                   No pseudopotential on this center.
   15          8
                                   No pseudopotential on this center.
 ======================================================================================================
   222 basis functions,   543 primitive gaussians,   236 cartesian basis functions
    78 alpha electrons       78 beta electrons
       nuclear repulsion energy      1670.0245588041 Hartrees.
 NAtoms=   15 NActive=   15 NUniq=   15 SFac= 1.00D+00 NAtFMM=   60 NAOKFM=F Big=F
 Integral buffers will be    131072 words long.
 Raffenetti 2 integral format.
 Two-electron integral symmetry is turned off.
 One-electron integrals computed using PRISM.
   1 Symmetry operations used in ECPInt.
 ECPInt:  NShTT=    2775 NPrTT=   19395 LenC2=    2585 LenP2D=   12675.
 LDataN:  DoStor=T MaxTD1= 5 Len=  102
 NBasis=   222 RedAO= T EigKep=  1.22D-03  NBF=   222
 NBsUse=   222 1.00D-06 EigRej= -1.00D+00 NBFU=   222
 Defaulting to unpruned grid for atomic number  42.
 Defaulting to unpruned grid for atomic number  42.
 Defaulting to unpruned grid for atomic number  42.
 ExpMin= 2.47D-02 ExpMax= 2.19D+04 ExpMxC= 3.30D+03 IAcc=3 IRadAn=         5 AccDes= 0.00D+00
 Harris functional with IExCor=  402 and IRadAn=       5 diagonalized for initial guess.
 HarFok:  IExCor=  402 AccDes= 0.00D+00 IRadAn=         5 IDoV= 1 UseB2=F ITyADJ=14
 ICtDFT=  3500011 ScaDFX=  1.000000  1.000000  1.000000  1.000000
 Defaulting to unpruned grid for atomic number  42.
 FoFCou: FMM=F IPFlag=           0 FMFlag=      100000 FMFlg1=           0
         NFxFlg=           0 DoJE=T BraDBF=F KetDBF=T FulRan=T
         wScrn=  0.000000 ICntrl=       500 IOpCl=  0 I1Cent=   200000004 NGrid=           0
         NMat0=    1 NMatS0=      1 NMatT0=    0 NMatD0=    1 NMtDS0=    0 NMtDT0=    0
 Symmetry not used in FoFCou.
 Requested convergence on RMS density matrix=1.00D-08 within 128 cycles.
 Requested convergence on MAX density matrix=1.00D-06.
 Requested convergence on             energy=1.00D-06.
 No special actions if energy rises.
 Defaulting to unpruned grid for atomic number  42.
 Defaulting to unpruned grid for atomic number  42.
 Defaulting to unpruned grid for atomic number  42.
 Defaulting to unpruned grid for atomic number  42.
 Defaulting to unpruned grid for atomic number  42.
 Defaulting to unpruned grid for atomic number  42.
 Defaulting to unpruned grid for atomic number  42.
 Defaulting to unpruned grid for atomic number  42.
 Defaulting to unpruned grid for atomic number  42.
 Defaulting to unpruned grid for atomic number  42.
 Defaulting to unpruned grid for atomic number  42.
 Defaulting to unpruned grid for atomic number  42.
 Defaulting to unpruned grid for atomic number  42.
 Defaulting to unpruned grid for atomic number  42.
 Defaulting to unpruned grid for atomic number  42.
 Defaulting to unpruned grid for atomic number  42.
 Defaulting to unpruned grid for atomic number  42.
 Defaulting to unpruned grid for atomic number  42.
 Defaulting to unpruned grid for atomic number  42.
 Defaulting to unpruned grid for atomic number  42.
 Defaulting to unpruned grid for atomic number  42.
 Defaulting to unpruned grid for atomic number  42.
 Defaulting to unpruned grid for atomic number  42.
 Defaulting to unpruned grid for atomic number  42.
 Defaulting to unpruned grid for atomic number  42.
 Defaulting to unpruned grid for atomic number  42.
 Defaulting to unpruned grid for atomic number  42.
 Defaulting to unpruned grid for atomic number  42.
 Defaulting to unpruned grid for atomic number  42.
 Defaulting to unpruned grid for atomic number  42.
 Defaulting to unpruned grid for atomic number  42.
 Defaulting to unpruned grid for atomic number  42.
 Defaulting to unpruned grid for atomic number  42.
 Defaulting to unpruned grid for atomic number  42.
 Defaulting to unpruned grid for atomic number  42.
 Defaulting to unpruned grid for atomic number  42.
 Defaulting to unpruned grid for atomic number  42.
 Defaulting to unpruned grid for atomic number  42.
 Defaulting to unpruned grid for atomic number  42.
 Defaulting to unpruned grid for atomic number  42.
 Defaulting to unpruned grid for atomic number  42.
 Defaulting to unpruned grid for atomic number  42.
 Defaulting to unpruned grid for atomic number  42.
 Defaulting to unpruned grid for atomic number  42.
 Defaulting to unpruned grid for atomic number  42.
 Defaulting to unpruned grid for atomic number  42.
 Defaulting to unpruned grid for atomic number  42.
 Defaulting to unpruned grid for atomic number  42.
 EnCoef did   100 forward-backward iterations
 EnCoef did   100 forward-backward iterations
 EnCoef did     2 forward-backward iterations
 EnCoef did     4 forward-backward iterations
 EnCoef did     7 forward-backward iterations
 EnCoef did   100 forward-backward iterations
 EnCoef did     2 forward-backward iterations
 EnCoef did     6 forward-backward iterations
 EnCoef did     3 forward-backward iterations
 EnCoef did   100 forward-backward iterations
 Restarting incremental Fock formation.
 SCF Done:  E(RB3LYP) =  -2707.68579044     A.U. after   28 cycles
            NFock= 28  Conv=0.69D-08     -V/T= 2.0551

 **********************************************************************

            Population analysis using the SCF Density.

 **********************************************************************

 Alpha  occ. eigenvalues --  -88.90346 -88.89426 -88.88915 -88.88830 -88.87402
 Alpha  occ. eigenvalues --  -88.86610 -19.21482 -10.28982  -7.97946  -7.97082
 Alpha  occ. eigenvalues --   -7.96666  -7.96577  -7.95198  -7.94387  -5.94197
 Alpha  occ. eigenvalues --   -5.93811  -5.93712  -5.93367  -5.92931  -5.92821
 Alpha  occ. eigenvalues --   -5.92711  -5.92594  -5.92582  -5.92540  -5.92530
 Alpha  occ. eigenvalues --   -5.92467  -5.91472  -5.91022  -5.90945  -5.90661
 Alpha  occ. eigenvalues --   -5.90235  -5.90118  -2.53357  -2.52011  -2.48825
 Alpha  occ. eigenvalues --   -1.56992  -1.56114  -1.55217  -1.54879  -1.54049
 Alpha  occ. eigenvalues --   -1.53053  -1.51678  -1.51177  -1.50561  -1.11426
 Alpha  occ. eigenvalues --   -0.75607  -0.74769  -0.72982  -0.72175  -0.71617
 Alpha  occ. eigenvalues --   -0.71152  -0.55633  -0.46051  -0.45064  -0.44238
 Alpha  occ. eigenvalues --   -0.43789  -0.43415  -0.42705  -0.42055  -0.38123
 Alpha  occ. eigenvalues --   -0.37808  -0.37262  -0.36868  -0.35702  -0.34933
 Alpha  occ. eigenvalues --   -0.34140  -0.33003  -0.32739  -0.31870  -0.31603
 Alpha  occ. eigenvalues --   -0.30293  -0.29060  -0.28136  -0.26568  -0.24430
 Alpha  occ. eigenvalues --   -0.23481  -0.21795  -0.19991
 Alpha virt. eigenvalues --   -0.13535  -0.13085  -0.12850  -0.11568  -0.10961
 Alpha virt. eigenvalues --   -0.09591  -0.08466  -0.07494  -0.05700  -0.04741
 Alpha virt. eigenvalues --   -0.02687  -0.02045  -0.00975  -0.00225   0.00619
 Alpha virt. eigenvalues --    0.02031   0.02525   0.02687   0.03643   0.04147
 Alpha virt. eigenvalues --    0.04311   0.05136   0.05502   0.06836   0.07246
 Alpha virt. eigenvalues --    0.08473   0.09462   0.11797   0.14262   0.15654
 Alpha virt. eigenvalues --    0.16887   0.17204   0.18859   0.20001   0.21395
 Alpha virt. eigenvalues --    0.25731   0.25979   0.27681   0.28669   0.30111
 Alpha virt. eigenvalues --    0.30563   0.30976   0.31122   0.32554   0.33965
 Alpha virt. eigenvalues --    0.34230   0.35193   0.35508   0.35787   0.36773
 Alpha virt. eigenvalues --    0.37171   0.37868   0.38779   0.39155   0.40958
 Alpha virt. eigenvalues --    0.42780   0.43195   0.44111   0.44533   0.44652
 Alpha virt. eigenvalues --    0.46338   0.49035   0.50222   0.51549   0.51705
 Alpha virt. eigenvalues --    0.53354   0.53937   0.56456   0.57892   0.58875
 Alpha virt. eigenvalues --    0.59945   0.61919   0.62942   0.64680   0.66137
 Alpha virt. eigenvalues --    0.67473   0.67635   0.70108   0.71319   0.72486
 Alpha virt. eigenvalues --    0.73778   0.74329   0.74760   0.75596   0.76397
 Alpha virt. eigenvalues --    0.77021   0.78344   0.78739   0.80081   0.81215
 Alpha virt. eigenvalues --    0.82617   0.83637   0.83917   0.85776   0.87578
 Alpha virt. eigenvalues --    0.89158   0.89702   0.90194   0.91815   0.93609
 Alpha virt. eigenvalues --    0.95256   0.95712   0.96504   0.98455   0.99530
 Alpha virt. eigenvalues --    1.01330   1.02156   1.02425   1.03651   1.06252
 Alpha virt. eigenvalues --    1.08248   1.09115   1.10715   1.13112   1.14933
 Alpha virt. eigenvalues --    1.15612   1.16833   1.19789   1.52350   1.52721
 Alpha virt. eigenvalues --    1.56331   1.57063   1.66684   1.95272   1.95554
 Alpha virt. eigenvalues --    2.06496   2.06576   2.07260   2.07687   2.07975
 Alpha virt. eigenvalues --    2.08539   2.09482   2.09982   2.39090   2.58074
 Alpha virt. eigenvalues --    2.58502   2.70419   2.71376   2.71773   2.72494
 Alpha virt. eigenvalues --    2.98534   6.95854   9.30606  11.24974
          Condensed to atoms (all electrons):
               1          2          3          4          5          6
     1  Mo  13.438036   0.225867   0.240727   0.132421   0.295364  -0.031081
     2  S    0.225867  15.552323   0.001383  -0.034024   0.007953   0.000268
     3  S    0.240727   0.001383  15.540491  -0.001853   0.008152  -0.000228
     4  S    0.132421  -0.034024  -0.001853  15.590625   0.003909  -0.001503
     5  S    0.295364   0.007953   0.008152   0.003909  15.617826   0.252084
     6  H   -0.031081   0.000268  -0.000228  -0.001503   0.252084   0.693329
     7  Mo  -0.198158  -0.012349   0.257348   0.115951  -0.008429   0.002308
     8  S   -0.012503   0.000018   0.006527   0.005982   0.000251  -0.000005
     9  H   -0.000080   0.000000   0.000071  -0.000143  -0.000001  -0.000000
    10  S   -0.022886   0.003351  -0.017282   0.007936  -0.000005   0.000000
    11  H    0.001559  -0.000044   0.000547   0.000297  -0.000000   0.000000
    12  H   -0.034215   0.237900  -0.000024   0.001968  -0.000247  -0.000056
    13  Mo  -0.130583   0.140973  -0.031895   0.146022  -0.011383  -0.000082
    14  C    0.003940  -0.002567  -0.000094  -0.002371   0.000001   0.000000
    15  O   -0.000345   0.000007  -0.000000  -0.000371  -0.000000  -0.000000
               7          8          9         10         11         12
     1  Mo  -0.198158  -0.012503  -0.000080  -0.022886   0.001559  -0.034215
     2  S   -0.012349   0.000018   0.000000   0.003351  -0.000044   0.237900
     3  S    0.257348   0.006527   0.000071  -0.017282   0.000547  -0.000024
     4  S    0.115951   0.005982  -0.000143   0.007936   0.000297   0.001968
     5  S   -0.008429   0.000251  -0.000001  -0.000005  -0.000000  -0.000247
     6  H    0.002308  -0.000005  -0.000000   0.000000   0.000000  -0.000056
     7  Mo  13.509203   0.293508  -0.025088   0.188854  -0.025305   0.001355
     8  S    0.293508  15.632484   0.247592   0.010350  -0.002185   0.000000
     9  H   -0.025088   0.247592   0.685365   0.000156  -0.000174   0.000000
    10  S    0.188854   0.010350   0.000156  15.383288   0.252692   0.000015
    11  H   -0.025305  -0.002185  -0.000174   0.252692   0.707804   0.000000
    12  H    0.001355   0.000000   0.000000   0.000015   0.000000   0.714925
    13  Mo  -0.034286  -0.029712   0.007194   0.177695  -0.036509  -0.010304
    14  C   -0.022936  -0.000152  -0.000063  -0.026827  -0.005223   0.000057
    15  O    0.003900  -0.000101   0.000030  -0.001632   0.003478  -0.000000
              13         14         15
     1  Mo  -0.130583   0.003940  -0.000345
     2  S    0.140973  -0.002567   0.000007
     3  S   -0.031895  -0.000094  -0.000000
     4  S    0.146022  -0.002371  -0.000371
     5  S   -0.011383   0.000001  -0.000000
     6  H   -0.000082   0.000000  -0.000000
     7  Mo  -0.034286  -0.022936   0.003900
     8  S   -0.029712  -0.000152  -0.000101
     9  H    0.007194  -0.000063   0.000030
    10  S    0.177695  -0.026827  -0.001632
    11  H   -0.036509  -0.005223   0.003478
    12  H   -0.010304   0.000057  -0.000000
    13  Mo  13.529144   0.253963  -0.018105
    14  C    0.253963   5.038265   0.583823
    15  O   -0.018105   0.583823   7.702216
 Mulliken charges:
               1
     1  Mo   0.091936
     2  S   -0.121058
     3  S   -0.003870
     4  S    0.035155
     5  S   -0.165475
     6  H    0.084967
     7  Mo  -0.045875
     8  S   -0.152053
     9  H    0.085141
    10  S    0.044295
    11  H    0.103062
    12  H    0.088626
    13  Mo   0.047867
    14  C    0.180182
    15  O   -0.272899
 Sum of Mulliken charges =  -0.00000
 Mulliken charges with hydrogens summed into heavy atoms:
               1
     1  Mo   0.091936
     2  S   -0.032432
     3  S   -0.003870
     4  S    0.035155
     5  S   -0.080509
     7  Mo  -0.045875
     8  S   -0.066912
    10  S    0.147357
    13  Mo   0.047867
    14  C    0.180182
    15  O   -0.272899
 Electronic spatial extent (au):  <R**2>=          65507.3409
 Charge=             -0.0000 electrons
 Dipole moment (field-independent basis, Debye):
    X=              1.9701    Y=              2.4809    Z=             -2.2924  Tot=              3.9104
 Quadrupole moment (field-independent basis, Debye-Ang):
   XX=           -158.1361   YY=           -146.4626   ZZ=           -215.7715
   XY=              3.5654   XZ=             17.9046   YZ=             20.8917
 Traceless Quadrupole moment (field-independent basis, Debye-Ang):
   XX=             15.3206   YY=             26.9941   ZZ=            -42.3148
   XY=              3.5654   XZ=             17.9046   YZ=             20.8917
 Octapole moment (field-independent basis, Debye-Ang**2):
  XXX=            570.8121  YYY=          -1154.2293  ZZZ=          -5793.0849  XYY=            208.4554
  XXY=           -384.3912  XXZ=          -1613.6984  XZZ=            355.5363  YZZ=           -270.1311
  YYZ=          -1496.7935  XYZ=             23.0266
 Hexadecapole moment (field-independent basis, Debye-Ang**3):
 XXXX=          -4063.0087 YYYY=          -8128.6571 ZZZZ=        -113715.2255 XXXY=           1484.5194
 XXXZ=           5421.7771 YYYX=           1624.2456 YYYZ=         -11302.1869 ZZZX=           6786.5799
 ZZZY=         -11373.2530 XXYY=          -2002.1386 XXZZ=         -17512.9151 YYZZ=         -17224.6674
 XXYZ=          -3745.5392 YYXZ=           1880.6877 ZZXY=            720.7818
 N-N= 1.670024558804D+03 E-N=-9.703708946785D+03  KE= 2.566295910413D+03
   1 Symmetry operations used in ECPInt.
 ECPInt:  NShTT=    2775 NPrTT=   19395 LenC2=    2585 LenP2D=   12675.
 LDataN:  DoStor=T MaxTD1= 6 Len=  172
 Calling FoFJK, ICntrl=      2127 FMM=F ISym2X=0 I1Cent= 0 IOpClX= 0 NMat=1 NMatS=1 NMatT=0.
 Defaulting to unpruned grid for atomic number  42.
 Defaulting to unpruned grid for atomic number  42.
 Defaulting to unpruned grid for atomic number  42.
 Defaulting to unpruned grid for atomic number  42.
 Defaulting to unpruned grid for atomic number  42.
 Defaulting to unpruned grid for atomic number  42.
 Defaulting to unpruned grid for atomic number  42.
 Defaulting to unpruned grid for atomic number  42.
 Defaulting to unpruned grid for atomic number  42.
 Defaulting to unpruned grid for atomic number  42.
 Defaulting to unpruned grid for atomic number  42.
 Defaulting to unpruned grid for atomic number  42.
 Defaulting to unpruned grid for atomic number  42.
 Defaulting to unpruned grid for atomic number  42.
 Defaulting to unpruned grid for atomic number  42.
 Defaulting to unpruned grid for atomic number  42.
 Defaulting to unpruned grid for atomic number  42.
 Defaulting to unpruned grid for atomic number  42.
 Defaulting to unpruned grid for atomic number  42.
 Defaulting to unpruned grid for atomic number  42.
 Defaulting to unpruned grid for atomic number  42.
 Defaulting to unpruned grid for atomic number  42.
 Defaulting to unpruned grid for atomic number  42.
 Defaulting to unpruned grid for atomic number  42.
 Defaulting to unpruned grid for atomic number  42.
 Defaulting to unpruned grid for atomic number  42.
 Defaulting to unpruned grid for atomic number  42.
 Defaulting to unpruned grid for atomic number  42.
 Defaulting to unpruned grid for atomic number  42.
 Defaulting to unpruned grid for atomic number  42.
 Defaulting to unpruned grid for atomic number  42.
 Defaulting to unpruned grid for atomic number  42.
 Defaulting to unpruned grid for atomic number  42.
 Defaulting to unpruned grid for atomic number  42.
 Defaulting to unpruned grid for atomic number  42.
 Defaulting to unpruned grid for atomic number  42.
 Defaulting to unpruned grid for atomic number  42.
 Defaulting to unpruned grid for atomic number  42.
 Defaulting to unpruned grid for atomic number  42.
 Defaulting to unpruned grid for atomic number  42.
 Defaulting to unpruned grid for atomic number  42.
 Defaulting to unpruned grid for atomic number  42.
 Defaulting to unpruned grid for atomic number  42.
 Defaulting to unpruned grid for atomic number  42.
 Defaulting to unpruned grid for atomic number  42.
 Defaulting to unpruned grid for atomic number  42.
 Defaulting to unpruned grid for atomic number  42.
 Defaulting to unpruned grid for atomic number  42.
 -------------------------------------------------------------------
 Center     Atomic                   Forces (Hartrees/Bohr)
 Number     Number              X              Y              Z
 -------------------------------------------------------------------
      1       42          -0.002998943    0.004737432    0.006474717
      2       16           0.000236972    0.000763332   -0.002392740
      3       16          -0.000175150   -0.001710859   -0.003276635
      4       16           0.005150348    0.005496914   -0.004265687
      5       16           0.001106285    0.001527520   -0.003267166
      6        1          -0.001384185   -0.000680723   -0.001125874
      7       42           0.004736119    0.004401163    0.001262950
      8       16           0.000370507   -0.000560120   -0.001081843
      9        1          -0.000627757   -0.000137878   -0.000247183
     10       16           0.007312485    0.005079255   -0.005899311
     11        1          -0.002139281    0.000828561    0.001503033
     12        1           0.001062720   -0.000372563   -0.001618889
     13       42          -0.021170372   -0.017659425    0.011298821
     14        6           0.011863907   -0.002080511    0.003931999
     15        8          -0.003343654    0.000367903   -0.001296194
 -------------------------------------------------------------------
 Cartesian Forces:  Max     0.021170372 RMS     0.005614366

 GradGradGradGradGradGradGradGradGradGradGradGradGradGradGradGradGradGrad
 Berny optimization.
 FormGI is forming the generalized inverse of G from B-inverse, IUseBI=4.
 Internal  Forces:  Max     0.014288595 RMS     0.003392132
 Search for a local minimum.
 Step number   1 out of a maximum of   92
 All quantities printed in internal units (Hartrees-Bohrs-Radians)
 Mixed Optimization -- RFO/linear search
 Second derivative matrix not updated -- first step.
 ITU=  0
     Eigenvalues ---    0.00230   0.00230   0.00230   0.01987   0.03353
     Eigenvalues ---    0.03621   0.04296   0.04606   0.04792   0.04792
     Eigenvalues ---    0.06051   0.08441   0.08907   0.09692   0.10382
     Eigenvalues ---    0.11786   0.12148   0.12383   0.13860   0.13973
     Eigenvalues ---    0.14313   0.14407   0.14794   0.15265   0.15833
     Eigenvalues ---    0.16000   0.16000   0.16000   0.16657   0.16734
     Eigenvalues ---    0.17323   0.19973   0.20762   0.22331   0.25227
     Eigenvalues ---    0.25307   0.25345   0.25395   1.24200
 RFO step:  Lambda=-8.72299760D-03 EMin= 2.30000000D-03
 Linear search not attempted -- first point.
 Iteration  1 RMS(Cart)=  0.06954341 RMS(Int)=  0.00223637
 Iteration  2 RMS(Cart)=  0.00255099 RMS(Int)=  0.00049595
 Iteration  3 RMS(Cart)=  0.00000429 RMS(Int)=  0.00049595
 Iteration  4 RMS(Cart)=  0.00000000 RMS(Int)=  0.00049595
 Variable       Old X    -DE/DX   Delta X   Delta X   Delta X     New X
                                 (Linear)    (Quad)   (Total)
    R1        4.54216   0.00077   0.00000   0.00588   0.00588   4.54804
    R2        4.26993   0.00000   0.00000   0.00243   0.00229   4.27222
    R3        4.48162  -0.00122   0.00000  -0.01800  -0.01816   4.46345
    R4        4.41309  -0.00256   0.00000  -0.01685  -0.01685   4.39624
    R5        5.14891  -0.00277   0.00000  -0.01144  -0.01187   5.13704
    R6        2.55935   0.00180   0.00000   0.00688   0.00688   2.56623
    R7        4.36232  -0.00278   0.00000  -0.01214  -0.01185   4.35047
    R8        4.46550   0.00651   0.00000   0.01943   0.01928   4.48478
    R9        4.65288  -0.00903   0.00000  -0.07569  -0.07501   4.57787
   R10        2.55838   0.00080   0.00000   0.00306   0.00306   2.56144
   R11        4.43157   0.00083   0.00000   0.00557   0.00557   4.43714
   R12        4.58441   0.00560   0.00000   0.03433   0.03395   4.61836
   R13        5.07102  -0.01429   0.00000  -0.12587  -0.12616   4.94486
   R14        2.56134   0.00030   0.00000   0.00115   0.00115   2.56249
   R15        2.55714   0.00028   0.00000   0.00105   0.00105   2.55819
   R16        4.79143  -0.00673   0.00000  -0.06341  -0.06278   4.72865
   R17        3.71018  -0.00709   0.00000  -0.03400  -0.03400   3.67618
   R18        2.20266   0.00300   0.00000   0.00240   0.00240   2.20506
    A1        1.76545   0.00305   0.00000   0.04582   0.04552   1.81096
    A2        1.74989  -0.00231   0.00000  -0.03572  -0.03641   1.71348
    A3        2.12979   0.00264   0.00000   0.01224   0.01019   2.13998
    A4        1.79599  -0.00191   0.00000  -0.00647  -0.00748   1.78850
    A5        1.89424   0.00135   0.00000   0.00385   0.00384   1.89808
    A6        1.88098  -0.00033   0.00000   0.02097   0.02041   1.90139
    A7        2.01885  -0.00357   0.00000  -0.03871  -0.03858   1.98027
    A8        2.35272  -0.00034   0.00000   0.00233   0.00189   2.35462
    A9        1.83357  -0.00114   0.00000  -0.00675  -0.00675   1.82681
   A10        1.45874  -0.00721   0.00000  -0.04429  -0.04391   1.41483
   A11        1.80339  -0.00193   0.00000  -0.01146  -0.01146   1.79193
   A12        2.31594   0.00266   0.00000   0.01077   0.01106   2.32700
   A13        1.85424  -0.00342   0.00000  -0.00213  -0.00338   1.85085
   A14        1.27633  -0.00522   0.00000  -0.03246  -0.03235   1.24398
   A15        1.87073  -0.00023   0.00000  -0.00345  -0.00361   1.86712
   A16        1.87918   0.00020   0.00000   0.00917   0.00900   1.88818
   A17        1.55500  -0.00017   0.00000   0.01726   0.01706   1.57206
   A18        1.84144  -0.00251   0.00000  -0.01877  -0.01838   1.82307
   A19        2.00033  -0.00014   0.00000  -0.01347  -0.01290   1.98743
   A20        2.04617  -0.00101   0.00000  -0.00400  -0.00501   2.04116
   A21        2.03840   0.00130   0.00000   0.00398   0.00440   2.04280
   A22        2.55754   0.00250   0.00000   0.01205   0.01152   2.56906
   A23        1.70050   0.00149   0.00000   0.00884   0.00884   1.70935
   A24        1.74134   0.00300   0.00000   0.00951   0.01041   1.75175
   A25        1.71850   0.00457   0.00000   0.03697   0.03644   1.75494
   A26        1.91602   0.00767   0.00000   0.05534   0.05578   1.97180
   A27        1.70795  -0.00154   0.00000  -0.02672  -0.02783   1.68012
   A28        1.63853   0.00322   0.00000   0.03305   0.03337   1.67191
   A29        1.50756   0.00289   0.00000   0.02961   0.02974   1.53730
   A30        3.14259  -0.00323   0.00000  -0.05701  -0.05701   3.08559
   A31        3.11151  -0.00294   0.00000  -0.05192  -0.05192   3.05959
    D1       -3.07118   0.00092   0.00000   0.05320   0.05422  -3.01696
    D2       -1.12685   0.00252   0.00000   0.05962   0.05921  -1.06764
    D3        1.12878  -0.00270   0.00000  -0.01940  -0.01984   1.10894
    D4       -2.10242   0.00092   0.00000   0.05772   0.05756  -2.04486
    D5       -0.52737  -0.00047   0.00000  -0.02804  -0.02775  -0.55512
    D6        1.31475   0.00231   0.00000   0.00884   0.00829   1.32304
    D7       -2.85276   0.00048   0.00000   0.01267   0.01148  -2.84128
    D8       -1.86467   0.00285   0.00000  -0.01877  -0.01836  -1.88303
    D9        2.39201  -0.00275   0.00000  -0.10682  -0.10732   2.28469
   D10        0.26922  -0.00185   0.00000  -0.10177  -0.10153   0.16769
   D11        1.40017  -0.00213   0.00000  -0.12463  -0.12478   1.27539
   D12       -3.03382  -0.00351   0.00000  -0.06959  -0.06938  -3.10321
   D13       -0.32578  -0.00209   0.00000  -0.03470  -0.03430  -0.36008
   D14        0.54416  -0.00349   0.00000  -0.05578  -0.05543   0.48873
   D15        0.00064   0.00104   0.00000   0.02328   0.02323   0.02387
   D16        2.70868   0.00246   0.00000   0.05818   0.05831   2.76700
   D17       -2.70456   0.00106   0.00000   0.03710   0.03718  -2.66739
   D18       -1.24742  -0.00322   0.00000  -0.04810  -0.04913  -1.29655
   D19       -2.80006  -0.00678   0.00000  -0.07754  -0.07723  -2.87729
   D20       -2.28531   0.00068   0.00000   0.01089   0.01090  -2.27441
   D21        3.03867   0.00039   0.00000   0.00120   0.00129   3.03996
   D22       -1.16509   0.00015   0.00000  -0.00507  -0.00500  -1.17009
   D23        1.32510  -0.00003   0.00000  -0.02596  -0.02594   1.29916
   D24        0.03277  -0.00172   0.00000  -0.03013  -0.03030   0.00247
   D25        2.67440  -0.00099   0.00000  -0.01030  -0.01040   2.66400
   D26       -2.72970   0.00046   0.00000   0.00025   0.00017  -2.72953
   D27        1.65251   0.00098   0.00000  -0.00449  -0.00407   1.64844
   D28       -0.82039   0.00080   0.00000   0.02041   0.02033  -0.80005
   D29        2.71845  -0.00193   0.00000  -0.04416  -0.04390   2.67455
   D30       -2.83207  -0.00319   0.00000  -0.05037  -0.05021  -2.88229
   D31        0.17535  -0.00100   0.00000  -0.01830  -0.01818   0.15717
   D32       -1.68823   0.00114   0.00000   0.04265   0.04281  -1.64542
   D33        0.00569   0.00038   0.00000   0.02368   0.02424   0.02993
         Item               Value     Threshold  Converged?
 Maximum Force            0.014289     0.000450     NO 
 RMS     Force            0.003392     0.000300     NO 
 Maximum Displacement     0.272651     0.001800     NO 
 RMS     Displacement     0.069586     0.001200     NO 
 Predicted change in Energy=-4.945810D-03
 GradGradGradGradGradGradGradGradGradGradGradGradGradGradGradGradGradGrad

                          Input orientation:                          
 ---------------------------------------------------------------------
 Center     Atomic      Atomic             Coordinates (Angstroms)
 Number     Number       Type             X           Y           Z
 ---------------------------------------------------------------------
      1         42           0        0.059630    1.834801   11.051938
      2         16           0        1.018477    4.041906   11.011875
      3         16           0       -1.877127    2.110374   12.185111
      4         16           0       -0.429084    1.639076    8.749397
      5         16           0        1.186662   -0.006261   11.919328
      6          1           0        1.503806   -0.712106   10.806464
      7         42           0       -2.389884    2.238602    9.944435
      8         16           0       -4.222794    0.830660    9.530417
      9          1           0       -4.424723    1.163202    8.231415
     10         16           0       -2.854411    4.625974   10.184185
     11          1           0       -3.682163    4.820106    9.130744
     12          1           0        2.100393    3.932104   10.198526
     13         42           0       -0.733997    4.029532    8.996930
     14          6           0       -1.676201    4.298470    7.316363
     15          8           0       -2.335039    4.479105    6.370382
 ---------------------------------------------------------------------
                    Distance matrix (angstroms):
                    1          2          3          4          5
     1  Mo   0.000000
     2  S    2.406721   0.000000
     3  S    2.260762   3.673121   0.000000
     4  S    2.361958   3.603864   3.758069   0.000000
     5  S    2.326388   4.152038   3.733308   3.919980   0.000000
     6  H    2.938136   4.783135   4.614951   3.673643   1.355457
     7  Mo   2.718407   4.001032   2.302171   2.373243   4.661685
     8  S    4.654297   6.322795   3.766593   3.956736   5.972399
     9  H    5.340020   6.756206   4.797822   4.057079   6.815863
    10  S    4.127381   4.003182   3.359618   4.106383   6.387378
    11  H    5.157911   5.122525   4.464299   4.565841   7.401046
    12  H    3.048230   1.357989   4.804777   3.708936   4.393949
    13  Mo   3.109622   2.670453   3.892867   2.422504   5.340129
    14  C    4.799718   4.580821   5.341614   3.268220   6.921993
    15  O    5.885894   5.742879   6.295367   4.166310   7.956864
                    6          7          8          9         10
     6  H    0.000000
     7  Mo   4.960907   0.000000
     8  S    6.066496   2.348036   0.000000
     9  H    6.730165   2.869058   1.356011   0.000000
    10  S    6.919277   2.443933   4.087089   4.274340   0.000000
    11  H    7.765803   2.999373   4.045702   3.838377   1.353735
    12  H    4.721673   4.805736   7.074462   7.356186   5.003173
    13  Mo   5.546649   2.616708   4.763307   4.735327   2.502294
    14  C    6.884702   3.414551   4.838685   4.268676   3.117666
    15  O    7.833532   4.218615   5.182720   4.338828   3.851806
                   11         12         13         14         15
    11  H    0.000000
    12  H    5.946988   0.000000
    13  Mo   3.055257   3.080112   0.000000
    14  C    2.754626   4.764845   1.945349   0.000000
    15  O    3.090408   5.884467   3.108730   1.166866   0.000000
 Symmetry turned off by external request.
 Stoichiometry    CH4Mo3OS6
 Framework group  C1[X(CH4Mo3OS6)]
 Deg. of freedom    39
 Full point group                 C1      NOp   1
 Rotational constants (GHZ):           0.3744636           0.2579149           0.1985418
 Basis read from rwf:  (5D, 7F)
 Pseudo-potential data read from rwf file.
   222 basis functions,   543 primitive gaussians,   236 cartesian basis functions
    78 alpha electrons       78 beta electrons
       nuclear repulsion energy      1680.1161493818 Hartrees.
 NAtoms=   15 NActive=   15 NUniq=   15 SFac= 1.00D+00 NAtFMM=   60 NAOKFM=F Big=F
 Integral buffers will be    131072 words long.
 Raffenetti 2 integral format.
 Two-electron integral symmetry is turned off.
 One-electron integrals computed using PRISM.
   1 Symmetry operations used in ECPInt.
 ECPInt:  NShTT=    2775 NPrTT=   19395 LenC2=    2588 LenP2D=   12727.
 LDataN:  DoStor=T MaxTD1= 5 Len=  102
 NBasis=   222 RedAO= T EigKep=  1.19D-03  NBF=   222
 NBsUse=   222 1.00D-06 EigRej= -1.00D+00 NBFU=   222
 Defaulting to unpruned grid for atomic number  42.
 Defaulting to unpruned grid for atomic number  42.
 Defaulting to unpruned grid for atomic number  42.
 Initial guess from the checkpoint file:  "Mo2_MoCO.chk"
 B after Tr=     0.112548    0.059155    0.053658
         Rot=    0.999991   -0.001294    0.002388   -0.003141 Ang=  -0.48 deg.
 ExpMin= 2.47D-02 ExpMax= 2.19D+04 ExpMxC= 3.30D+03 IAcc=3 IRadAn=         5 AccDes= 0.00D+00
 Harris functional with IExCor=  402 and IRadAn=       5 diagonalized for initial guess.
 HarFok:  IExCor=  402 AccDes= 0.00D+00 IRadAn=         5 IDoV= 1 UseB2=F ITyADJ=14
 ICtDFT=  3500011 ScaDFX=  1.000000  1.000000  1.000000  1.000000
 Defaulting to unpruned grid for atomic number  42.
 FoFCou: FMM=F IPFlag=           0 FMFlag=      100000 FMFlg1=           0
         NFxFlg=           0 DoJE=T BraDBF=F KetDBF=T FulRan=T
         wScrn=  0.000000 ICntrl=       500 IOpCl=  0 I1Cent=   200000004 NGrid=           0
         NMat0=    1 NMatS0=      1 NMatT0=    0 NMatD0=    1 NMtDS0=    0 NMtDT0=    0
 Symmetry not used in FoFCou.
 Requested convergence on RMS density matrix=1.00D-08 within 128 cycles.
 Requested convergence on MAX density matrix=1.00D-06.
 Requested convergence on             energy=1.00D-06.
 No special actions if energy rises.
 Defaulting to unpruned grid for atomic number  42.
 Defaulting to unpruned grid for atomic number  42.
 Defaulting to unpruned grid for atomic number  42.
 Defaulting to unpruned grid for atomic number  42.
 Defaulting to unpruned grid for atomic number  42.
 Defaulting to unpruned grid for atomic number  42.
 Defaulting to unpruned grid for atomic number  42.
 Defaulting to unpruned grid for atomic number  42.
 Defaulting to unpruned grid for atomic number  42.
 Defaulting to unpruned grid for atomic number  42.
 Defaulting to unpruned grid for atomic number  42.
 Defaulting to unpruned grid for atomic number  42.
 Defaulting to unpruned grid for atomic number  42.
 Defaulting to unpruned grid for atomic number  42.
 Defaulting to unpruned grid for atomic number  42.
 Defaulting to unpruned grid for atomic number  42.
 Defaulting to unpruned grid for atomic number  42.
 Defaulting to unpruned grid for atomic number  42.
 Defaulting to unpruned grid for atomic number  42.
 Defaulting to unpruned grid for atomic number  42.
 Defaulting to unpruned grid for atomic number  42.
 Defaulting to unpruned grid for atomic number  42.
 Defaulting to unpruned grid for atomic number  42.
 Defaulting to unpruned grid for atomic number  42.
 Defaulting to unpruned grid for atomic number  42.
 Defaulting to unpruned grid for atomic number  42.
 Defaulting to unpruned grid for atomic number  42.
 Defaulting to unpruned grid for atomic number  42.
 Defaulting to unpruned grid for atomic number  42.
 Defaulting to unpruned grid for atomic number  42.
 Defaulting to unpruned grid for atomic number  42.
 Defaulting to unpruned grid for atomic number  42.
 Defaulting to unpruned grid for atomic number  42.
 Defaulting to unpruned grid for atomic number  42.
 Defaulting to unpruned grid for atomic number  42.
 Defaulting to unpruned grid for atomic number  42.
 Defaulting to unpruned grid for atomic number  42.
 Defaulting to unpruned grid for atomic number  42.
 Defaulting to unpruned grid for atomic number  42.
 Defaulting to unpruned grid for atomic number  42.
 Defaulting to unpruned grid for atomic number  42.
 Defaulting to unpruned grid for atomic number  42.
 Defaulting to unpruned grid for atomic number  42.
 Defaulting to unpruned grid for atomic number  42.
 Defaulting to unpruned grid for atomic number  42.
 Defaulting to unpruned grid for atomic number  42.
 Defaulting to unpruned grid for atomic number  42.
 Defaulting to unpruned grid for atomic number  42.
 EnCoef did     4 forward-backward iterations
 EnCoef did     1 forward-backward iterations
 SCF Done:  E(RB3LYP) =  -2707.69051879     A.U. after   20 cycles
            NFock= 20  Conv=0.60D-08     -V/T= 2.0550
   1 Symmetry operations used in ECPInt.
 ECPInt:  NShTT=    2775 NPrTT=   19395 LenC2=    2588 LenP2D=   12727.
 LDataN:  DoStor=T MaxTD1= 6 Len=  172
 Calling FoFJK, ICntrl=      2127 FMM=F ISym2X=0 I1Cent= 0 IOpClX= 0 NMat=1 NMatS=1 NMatT=0.
 Defaulting to unpruned grid for atomic number  42.
 Defaulting to unpruned grid for atomic number  42.
 Defaulting to unpruned grid for atomic number  42.
 Defaulting to unpruned grid for atomic number  42.
 Defaulting to unpruned grid for atomic number  42.
 Defaulting to unpruned grid for atomic number  42.
 Defaulting to unpruned grid for atomic number  42.
 Defaulting to unpruned grid for atomic number  42.
 Defaulting to unpruned grid for atomic number  42.
 Defaulting to unpruned grid for atomic number  42.
 Defaulting to unpruned grid for atomic number  42.
 Defaulting to unpruned grid for atomic number  42.
 Defaulting to unpruned grid for atomic number  42.
 Defaulting to unpruned grid for atomic number  42.
 Defaulting to unpruned grid for atomic number  42.
 Defaulting to unpruned grid for atomic number  42.
 Defaulting to unpruned grid for atomic number  42.
 Defaulting to unpruned grid for atomic number  42.
 Defaulting to unpruned grid for atomic number  42.
 Defaulting to unpruned grid for atomic number  42.
 Defaulting to unpruned grid for atomic number  42.
 Defaulting to unpruned grid for atomic number  42.
 Defaulting to unpruned grid for atomic number  42.
 Defaulting to unpruned grid for atomic number  42.
 Defaulting to unpruned grid for atomic number  42.
 Defaulting to unpruned grid for atomic number  42.
 Defaulting to unpruned grid for atomic number  42.
 Defaulting to unpruned grid for atomic number  42.
 Defaulting to unpruned grid for atomic number  42.
 Defaulting to unpruned grid for atomic number  42.
 Defaulting to unpruned grid for atomic number  42.
 Defaulting to unpruned grid for atomic number  42.
 Defaulting to unpruned grid for atomic number  42.
 Defaulting to unpruned grid for atomic number  42.
 Defaulting to unpruned grid for atomic number  42.
 Defaulting to unpruned grid for atomic number  42.
 Defaulting to unpruned grid for atomic number  42.
 Defaulting to unpruned grid for atomic number  42.
 Defaulting to unpruned grid for atomic number  42.
 Defaulting to unpruned grid for atomic number  42.
 Defaulting to unpruned grid for atomic number  42.
 Defaulting to unpruned grid for atomic number  42.
 Defaulting to unpruned grid for atomic number  42.
 Defaulting to unpruned grid for atomic number  42.
 Defaulting to unpruned grid for atomic number  42.
 Defaulting to unpruned grid for atomic number  42.
 Defaulting to unpruned grid for atomic number  42.
 Defaulting to unpruned grid for atomic number  42.
 -------------------------------------------------------------------
 Center     Atomic                   Forces (Hartrees/Bohr)
 Number     Number              X              Y              Z
 -------------------------------------------------------------------
      1       42          -0.003510868    0.001112537    0.009067866
      2       16           0.004444902    0.002100503    0.005108024
      3       16           0.000354972   -0.001190956    0.001037510
      4       16           0.003036966   -0.000579106   -0.004397195
      5       16           0.002801462    0.000459074   -0.003657762
      6        1          -0.001649934   -0.001007724   -0.000007563
      7       42           0.000550274    0.001974152    0.000416990
      8       16           0.000060551   -0.000286688   -0.001971427
      9        1          -0.000474173   -0.000346342    0.000240316
     10       16           0.004900836    0.001591850   -0.004569497
     11        1          -0.001769911    0.000899037    0.000770801
     12        1           0.000495423    0.000278107   -0.001366767
     13       42          -0.004562274   -0.005847716    0.002096745
     14        6          -0.007333935    0.000655189   -0.000149907
     15        8           0.002655708    0.000188082   -0.002618133
 -------------------------------------------------------------------
 Cartesian Forces:  Max     0.009067866 RMS     0.002956111

 GradGradGradGradGradGradGradGradGradGradGradGradGradGradGradGradGradGrad
 Berny optimization.
 Using GEDIIS/GDIIS optimizer.
 FormGI is forming the generalized inverse of G from B-inverse, IUseBI=4.
 Internal  Forces:  Max     0.006787489 RMS     0.002455779
 Search for a local minimum.
 Step number   2 out of a maximum of   92
 All quantities printed in internal units (Hartrees-Bohrs-Radians)
 Mixed Optimization -- RFO/linear search
 Update second derivatives using D2CorX and points    1    2
 DE= -4.73D-03 DEPred=-4.95D-03 R= 9.56D-01
 TightC=F SS=  1.41D+00  RLast= 3.65D-01 DXNew= 5.0454D-01 1.0960D+00
 Trust test= 9.56D-01 RLast= 3.65D-01 DXMaxT set to 5.05D-01
 ITU=  1  0
 Use linear search instead of GDIIS.
     Eigenvalues ---    0.00218   0.00230   0.00230   0.01889   0.02801
     Eigenvalues ---    0.03662   0.04160   0.04459   0.04792   0.05561
     Eigenvalues ---    0.05851   0.07414   0.08518   0.09798   0.11302
     Eigenvalues ---    0.11806   0.12195   0.12514   0.13565   0.13968
     Eigenvalues ---    0.14289   0.14318   0.14788   0.15635   0.15761
     Eigenvalues ---    0.15991   0.16000   0.16045   0.16527   0.17166
     Eigenvalues ---    0.17420   0.20168   0.22087   0.25221   0.25275
     Eigenvalues ---    0.25341   0.25386   0.28193   1.24152
 RFO step:  Lambda=-5.69756794D-03 EMin= 2.17982643D-03
 Quartic linear search produced a step of  0.03759.
 Iteration  1 RMS(Cart)=  0.06693650 RMS(Int)=  0.00405757
 Iteration  2 RMS(Cart)=  0.00368447 RMS(Int)=  0.00035249
 Iteration  3 RMS(Cart)=  0.00001260 RMS(Int)=  0.00035232
 Iteration  4 RMS(Cart)=  0.00000000 RMS(Int)=  0.00035232
 Variable       Old X    -DE/DX   Delta X   Delta X   Delta X     New X
                                 (Linear)    (Quad)   (Total)
    R1        4.54804   0.00409   0.00022   0.03404   0.03427   4.58231
    R2        4.27222  -0.00049   0.00009  -0.00535  -0.00529   4.26693
    R3        4.46345   0.00449  -0.00068   0.02644   0.02575   4.48920
    R4        4.39624  -0.00037  -0.00063  -0.01176  -0.01239   4.38384
    R5        5.13704   0.00311  -0.00045   0.02381   0.02339   5.16044
    R6        2.56623   0.00119   0.00026   0.00829   0.00855   2.57478
    R7        4.35047   0.00178  -0.00045   0.01044   0.01020   4.36067
    R8        4.48478   0.00106   0.00072   0.02845   0.02869   4.51347
    R9        4.57787  -0.00099  -0.00282  -0.06027  -0.06273   4.51514
   R10        2.56144   0.00014   0.00012   0.00226   0.00237   2.56381
   R11        4.43714   0.00100   0.00021   0.00968   0.00989   4.44703
   R12        4.61836   0.00256   0.00128   0.03427   0.03515   4.65351
   R13        4.94486  -0.00414  -0.00474  -0.10577  -0.11059   4.83427
   R14        2.56249  -0.00025   0.00004  -0.00026  -0.00022   2.56227
   R15        2.55819   0.00061   0.00004   0.00285   0.00289   2.56108
   R16        4.72865  -0.00327  -0.00236  -0.07349  -0.07543   4.65322
   R17        3.67618   0.00479  -0.00128   0.00326   0.00199   3.67816
   R18        2.20506   0.00065   0.00009   0.00188   0.00197   2.20702
    A1        1.81096   0.00203   0.00171   0.02665   0.02812   1.83909
    A2        1.71348   0.00550  -0.00137   0.01657   0.01451   1.72799
    A3        2.13998  -0.00471   0.00038  -0.01366  -0.01447   2.12551
    A4        1.78850   0.00679  -0.00028   0.03395   0.03301   1.82152
    A5        1.89808  -0.00050   0.00014   0.00000   0.00003   1.89811
    A6        1.90139   0.00068   0.00077   0.03179   0.03291   1.93430
    A7        1.98027  -0.00232  -0.00145  -0.05772  -0.05963   1.92064
    A8        2.35462  -0.00207   0.00007  -0.01935  -0.02035   2.33427
    A9        1.82681   0.00046  -0.00025  -0.00110  -0.00136   1.82546
   A10        1.41483   0.00253  -0.00165   0.00437   0.00272   1.41755
   A11        1.79193  -0.00009  -0.00043  -0.00692  -0.00736   1.78458
   A12        2.32700  -0.00080   0.00042  -0.00192  -0.00161   2.32540
   A13        1.85085   0.00147  -0.00013   0.00286   0.00232   1.85317
   A14        1.24398   0.00277  -0.00122   0.00904   0.00779   1.25177
   A15        1.86712  -0.00010  -0.00014  -0.00530  -0.00543   1.86168
   A16        1.88818   0.00062   0.00034   0.00518   0.00533   1.89351
   A17        1.57206   0.00193   0.00064   0.01948   0.02013   1.59219
   A18        1.82307   0.00243  -0.00069   0.01351   0.01291   1.83598
   A19        1.98743  -0.00123  -0.00048  -0.00855  -0.00891   1.97852
   A20        2.04116  -0.00027  -0.00019  -0.01047  -0.01123   2.02993
   A21        2.04280  -0.00004   0.00017   0.00689   0.00731   2.05011
   A22        2.56906  -0.00299   0.00043  -0.01745  -0.01707   2.55199
   A23        1.70935   0.00147   0.00033   0.01345   0.01378   1.72313
   A24        1.75175   0.00091   0.00039   0.01564   0.01664   1.76839
   A25        1.75494  -0.00016   0.00137   0.03839   0.03973   1.79467
   A26        1.97180   0.00235   0.00210   0.05458   0.05765   2.02945
   A27        1.68012   0.00100  -0.00105  -0.00682  -0.00841   1.67171
   A28        1.67191   0.00033   0.00125   0.01131   0.01257   1.68447
   A29        1.53730  -0.00013   0.00112   0.01595   0.01712   1.55442
   A30        3.08559   0.00586  -0.00214   0.07526   0.07312   3.15871
   A31        3.05959   0.00551  -0.00195   0.07178   0.06983   3.12942
    D1       -3.01696  -0.00034   0.00204   0.08041   0.08235  -2.93462
    D2       -1.06764   0.00140   0.00223   0.09245   0.09488  -0.97277
    D3        1.10894   0.00021  -0.00075   0.02130   0.02015   1.12909
    D4       -2.04486   0.00086   0.00216   0.08743   0.08990  -1.95496
    D5       -0.55512  -0.00650  -0.00104  -0.05595  -0.05688  -0.61200
    D6        1.32304  -0.00221   0.00031  -0.02031  -0.02025   1.30280
    D7       -2.84128  -0.00324   0.00043  -0.01800  -0.01727  -2.85855
    D8       -1.88303  -0.00148  -0.00069  -0.11144  -0.11274  -1.99577
    D9        2.28469  -0.00130  -0.00403  -0.16904  -0.17379   2.11090
   D10        0.16769   0.00039  -0.00382  -0.15342  -0.15691   0.01078
   D11        1.27539  -0.00243  -0.00469  -0.20306  -0.20676   1.06864
   D12       -3.10321   0.00118  -0.00261  -0.01383  -0.01652  -3.11972
   D13       -0.36008   0.00326  -0.00129   0.01194   0.01075  -0.34933
   D14        0.48873   0.00346  -0.00208   0.00670   0.00460   0.49333
   D15        0.02387   0.00193   0.00087   0.06497   0.06572   0.08958
   D16        2.76700   0.00401   0.00219   0.09074   0.09298   2.85998
   D17       -2.66739   0.00421   0.00140   0.08550   0.08683  -2.58055
   D18       -1.29655   0.00179  -0.00185   0.00412   0.00252  -1.29402
   D19       -2.87729   0.00125  -0.00290  -0.01663  -0.01918  -2.89647
   D20       -2.27441   0.00070   0.00041   0.00204   0.00237  -2.27203
   D21        3.03996   0.00087   0.00005   0.00429   0.00444   3.04439
   D22       -1.17009   0.00042  -0.00019  -0.00409  -0.00424  -1.17433
   D23        1.29916  -0.00179  -0.00098  -0.02494  -0.02613   1.27303
   D24        0.00247  -0.00049  -0.00114  -0.01961  -0.02059  -0.01813
   D25        2.66400   0.00137  -0.00039   0.03729   0.03673   2.70072
   D26       -2.72953   0.00102   0.00001   0.03810   0.03792  -2.69161
   D27        1.64844   0.00013  -0.00015   0.03550   0.03541   1.68385
   D28       -0.80005   0.00278   0.00076   0.05596   0.05677  -0.74329
   D29        2.67455   0.00022  -0.00165  -0.01810  -0.01964   2.65491
   D30       -2.88229  -0.00048  -0.00189  -0.02896  -0.03089  -2.91318
   D31        0.15717   0.00082  -0.00068  -0.00570  -0.00647   0.15071
   D32       -1.64542  -0.00173   0.00161   0.00283   0.00442  -1.64100
   D33        0.02993  -0.00068   0.00091   0.00276   0.00433   0.03427
         Item               Value     Threshold  Converged?
 Maximum Force            0.006787     0.000450     NO 
 RMS     Force            0.002456     0.000300     NO 
 Maximum Displacement     0.308751     0.001800     NO 
 RMS     Displacement     0.066525     0.001200     NO 
 Predicted change in Energy=-3.490074D-03
 GradGradGradGradGradGradGradGradGradGradGradGradGradGradGradGradGradGrad

                          Input orientation:                          
 ---------------------------------------------------------------------
 Center     Atomic      Atomic             Coordinates (Angstroms)
 Number     Number       Type             X           Y           Z
 ---------------------------------------------------------------------
      1         42           0        0.073461    1.870499   11.097624
      2         16           0        1.086522    4.073572   11.087857
      3         16           0       -1.872424    2.111459   12.217381
      4         16           0       -0.399872    1.668558    8.778448
      5         16           0        1.225921   -0.001015   11.839838
      6          1           0        1.340423   -0.737007   10.705875
      7         42           0       -2.385284    2.250419    9.971824
      8         16           0       -4.195114    0.812874    9.529281
      9          1           0       -4.405970    1.141271    8.230765
     10         16           0       -2.869672    4.656092   10.177182
     11          1           0       -3.735487    4.841682    9.151190
     12          1           0        2.108309    3.977532   10.191659
     13         42           0       -0.789425    4.012713    9.027429
     14          6           0       -1.698693    4.242623    7.321896
     15          8           0       -2.239151    4.404276    6.299262
 ---------------------------------------------------------------------
                    Distance matrix (angstroms):
                    1          2          3          4          5
     1  Mo   0.000000
     2  S    2.424854   0.000000
     3  S    2.257961   3.725731   0.000000
     4  S    2.375585   3.650593   3.767072   0.000000
     5  S    2.319830   4.145741   3.768929   3.847439   0.000000
     6  H    2.925363   4.832396   4.552010   3.539823   1.356712
     7  Mo   2.730786   4.077113   2.307566   2.388424   4.647498
     8  S    4.668941   6.399765   3.782472   3.962298   5.948841
     9  H    5.368050   6.850462   4.822160   4.077598   6.785899
    10  S    4.155571   4.101235   3.410582   4.120889   6.420822
    11  H    5.208130   5.252851   4.508508   4.618872   7.436135
    12  H    3.066099   1.362514   4.840663   3.690461   4.395900
    13  Mo   3.101509   2.787157   3.868261   2.389311   5.299177
    14  C    4.798294   4.687053   5.342080   3.230215   6.853732
    15  O    5.898514   5.839529   6.357329   4.124737   7.881072
                    6          7          8          9         10
     6  H    0.000000
     7  Mo   4.831608   0.000000
     8  S    5.867595   2.353267   0.000000
     9  H    6.532620   2.888714   1.355894   0.000000
    10  S    6.862210   2.462532   4.116662   4.301479   0.000000
    11  H    7.700888   3.034984   4.072531   3.871663   1.355264
    12  H    4.804264   4.819090   7.084275   7.370571   5.024037
    13  Mo   5.469303   2.558188   4.699951   4.686070   2.462375
    14  C    6.744202   3.385617   4.782034   4.215896   3.113648
    15  O    7.659267   4.260066   5.211237   4.367266   3.936906
                   11         12         13         14         15
    11  H    0.000000
    12  H    5.998274   0.000000
    13  Mo   3.062970   3.123065   0.000000
    14  C    2.802448   4.774838   1.946400   0.000000
    15  O    3.250206   5.850921   3.114149   1.167907   0.000000
 Symmetry turned off by external request.
 Stoichiometry    CH4Mo3OS6
 Framework group  C1[X(CH4Mo3OS6)]
 Deg. of freedom    39
 Full point group                 C1      NOp   1
 Rotational constants (GHZ):           0.3730833           0.2561108           0.1993678
 Basis read from rwf:  (5D, 7F)
 Pseudo-potential data read from rwf file.
   222 basis functions,   543 primitive gaussians,   236 cartesian basis functions
    78 alpha electrons       78 beta electrons
       nuclear repulsion energy      1675.5390265056 Hartrees.
 NAtoms=   15 NActive=   15 NUniq=   15 SFac= 1.00D+00 NAtFMM=   60 NAOKFM=F Big=F
 Integral buffers will be    131072 words long.
 Raffenetti 2 integral format.
 Two-electron integral symmetry is turned off.
 One-electron integrals computed using PRISM.
   1 Symmetry operations used in ECPInt.
 ECPInt:  NShTT=    2775 NPrTT=   19395 LenC2=    2589 LenP2D=   12710.
 LDataN:  DoStor=T MaxTD1= 5 Len=  102
 NBasis=   222 RedAO= T EigKep=  1.19D-03  NBF=   222
 NBsUse=   222 1.00D-06 EigRej= -1.00D+00 NBFU=   222
 Defaulting to unpruned grid for atomic number  42.
 Defaulting to unpruned grid for atomic number  42.
 Defaulting to unpruned grid for atomic number  42.
 Initial guess from the checkpoint file:  "Mo2_MoCO.chk"
 B after Tr=     0.071224    0.014875    0.042180
         Rot=    0.999992    0.000395    0.000613   -0.003810 Ang=   0.44 deg.
 ExpMin= 2.47D-02 ExpMax= 2.19D+04 ExpMxC= 3.30D+03 IAcc=3 IRadAn=         5 AccDes= 0.00D+00
 Harris functional with IExCor=  402 and IRadAn=       5 diagonalized for initial guess.
 HarFok:  IExCor=  402 AccDes= 0.00D+00 IRadAn=         5 IDoV= 1 UseB2=F ITyADJ=14
 ICtDFT=  3500011 ScaDFX=  1.000000  1.000000  1.000000  1.000000
 Defaulting to unpruned grid for atomic number  42.
 FoFCou: FMM=F IPFlag=           0 FMFlag=      100000 FMFlg1=           0
         NFxFlg=           0 DoJE=T BraDBF=F KetDBF=T FulRan=T
         wScrn=  0.000000 ICntrl=       500 IOpCl=  0 I1Cent=   200000004 NGrid=           0
         NMat0=    1 NMatS0=      1 NMatT0=    0 NMatD0=    1 NMtDS0=    0 NMtDT0=    0
 Symmetry not used in FoFCou.
 Requested convergence on RMS density matrix=1.00D-08 within 128 cycles.
 Requested convergence on MAX density matrix=1.00D-06.
 Requested convergence on             energy=1.00D-06.
 No special actions if energy rises.
 Defaulting to unpruned grid for atomic number  42.
 Defaulting to unpruned grid for atomic number  42.
 Defaulting to unpruned grid for atomic number  42.
 Defaulting to unpruned grid for atomic number  42.
 Defaulting to unpruned grid for atomic number  42.
 Defaulting to unpruned grid for atomic number  42.
 Defaulting to unpruned grid for atomic number  42.
 Defaulting to unpruned grid for atomic number  42.
 Defaulting to unpruned grid for atomic number  42.
 Defaulting to unpruned grid for atomic number  42.
 Defaulting to unpruned grid for atomic number  42.
 Defaulting to unpruned grid for atomic number  42.
 Defaulting to unpruned grid for atomic number  42.
 Defaulting to unpruned grid for atomic number  42.
 Defaulting to unpruned grid for atomic number  42.
 Defaulting to unpruned grid for atomic number  42.
 Defaulting to unpruned grid for atomic number  42.
 Defaulting to unpruned grid for atomic number  42.
 Defaulting to unpruned grid for atomic number  42.
 Defaulting to unpruned grid for atomic number  42.
 Defaulting to unpruned grid for atomic number  42.
 Defaulting to unpruned grid for atomic number  42.
 Defaulting to unpruned grid for atomic number  42.
 Defaulting to unpruned grid for atomic number  42.
 Defaulting to unpruned grid for atomic number  42.
 Defaulting to unpruned grid for atomic number  42.
 Defaulting to unpruned grid for atomic number  42.
 Defaulting to unpruned grid for atomic number  42.
 Defaulting to unpruned grid for atomic number  42.
 Defaulting to unpruned grid for atomic number  42.
 Defaulting to unpruned grid for atomic number  42.
 Defaulting to unpruned grid for atomic number  42.
 Defaulting to unpruned grid for atomic number  42.
 Defaulting to unpruned grid for atomic number  42.
 Defaulting to unpruned grid for atomic number  42.
 Defaulting to unpruned grid for atomic number  42.
 Defaulting to unpruned grid for atomic number  42.
 Defaulting to unpruned grid for atomic number  42.
 Defaulting to unpruned grid for atomic number  42.
 Defaulting to unpruned grid for atomic number  42.
 Defaulting to unpruned grid for atomic number  42.
 Defaulting to unpruned grid for atomic number  42.
 Defaulting to unpruned grid for atomic number  42.
 Defaulting to unpruned grid for atomic number  42.
 Defaulting to unpruned grid for atomic number  42.
 Defaulting to unpruned grid for atomic number  42.
 Defaulting to unpruned grid for atomic number  42.
 Defaulting to unpruned grid for atomic number  42.
 EnCoef did     6 forward-backward iterations
 SCF Done:  E(RB3LYP) =  -2707.69359505     A.U. after   20 cycles
            NFock= 20  Conv=0.59D-08     -V/T= 2.0551
   1 Symmetry operations used in ECPInt.
 ECPInt:  NShTT=    2775 NPrTT=   19395 LenC2=    2589 LenP2D=   12710.
 LDataN:  DoStor=T MaxTD1= 6 Len=  172
 Calling FoFJK, ICntrl=      2127 FMM=F ISym2X=0 I1Cent= 0 IOpClX= 0 NMat=1 NMatS=1 NMatT=0.
 Defaulting to unpruned grid for atomic number  42.
 Defaulting to unpruned grid for atomic number  42.
 Defaulting to unpruned grid for atomic number  42.
 Defaulting to unpruned grid for atomic number  42.
 Defaulting to unpruned grid for atomic number  42.
 Defaulting to unpruned grid for atomic number  42.
 Defaulting to unpruned grid for atomic number  42.
[...]
 ! D29   D(1,7,13,14)          154.672          -DE/DX =    0.0                 !
 ! D30   D(3,7,13,14)         -164.1572         -DE/DX =    0.0                 !
 ! D31   D(8,7,13,14)           15.9438         -DE/DX =    0.0                 !
 ! D32   D(11,10,13,4)         -95.3605         -DE/DX =    0.0                 !
 ! D33   D(11,10,13,14)          3.628          -DE/DX =    0.0                 !
 --------------------------------------------------------------------------------
 GradGradGradGradGradGradGradGradGradGradGradGradGradGradGradGradGradGrad


 ----------------------------------------------------------------------

 Electric dipole moment (input orientation):
 (Debye = 10**-18 statcoulomb cm , SI units = C m)
                  (au)            (Debye)         (10**-30 SI)
   Tot        0.113086D+01      0.287436D+01      0.958784D+01
   x          0.490965D+00      0.124791D+01      0.416257D+01
   y          0.767723D+00      0.195136D+01      0.650903D+01
   z         -0.669629D+00     -0.170203D+01     -0.567735D+01

 Dipole polarizability, Alpha (input orientation).
 (esu units = cm**3 , SI units = C**2 m**2 J**-1)
 Alpha(0;0):
               (au)            (10**-24 esu)      (10**-40 SI)
   iso        0.261899D+03      0.388094D+02      0.431812D+02
   aniso      0.104875D+03      0.155408D+02      0.172915D+02
   xx         0.269968D+03      0.400051D+02      0.445117D+02
   yx        -0.135394D+02     -0.200633D+01     -0.223234D+01
   yy         0.263108D+03      0.389886D+02      0.433806D+02
   zx         0.376000D+02      0.557174D+01      0.619940D+01
   zy        -0.446411D+02     -0.661513D+01     -0.736033D+01
   zz         0.252620D+03      0.374344D+02      0.416514D+02

 ----------------------------------------------------------------------

 Dipole orientation:
    42          8.58228129        -17.16256672        -10.18633328
    16          9.36360310        -19.39139906         -6.09425525
    16          6.16927376        -19.62543542        -12.65788416
    16          6.19728632        -13.84865446         -8.17155347
    16         11.41820532        -14.45031201        -12.07524420
     1         10.55456351        -12.08572225        -11.59948245
    42          3.61127783        -16.86054900        -10.26287759
    16          0.82128329        -14.55888374        -12.83759361
     1         -0.50785027        -13.35817998        -11.01103111
    16          2.01688788        -20.40794570         -7.65131247
     1         -0.37496588        -19.62291293         -7.17876415
     1         10.44488822        -17.46817681         -4.79405372
    42          4.67833021        -17.22446035         -5.58462097
     6          1.65574906        -15.55532603         -4.27753048
     8         -0.15967642        -14.56946294         -3.50961554

 Electric dipole moment (dipole orientation):
 (Debye = 10**-18 statcoulomb cm , SI units = C m)
                  (au)            (Debye)         (10**-30 SI)
   Tot        0.113086D+01      0.287436D+01      0.958784D+01
   x          0.000000D+00      0.000000D+00      0.000000D+00
   y          0.000000D+00      0.000000D+00      0.000000D+00
   z          0.113086D+01      0.287436D+01      0.958784D+01

 Dipole polarizability, Alpha (dipole orientation).
 (esu units = cm**3 , SI units = C**2 m**2 J**-1)
 Alpha(0;0):
               (au)            (10**-24 esu)      (10**-40 SI)
   iso        0.261899D+03      0.388094D+02      0.431812D+02
   aniso      0.104875D+03      0.155408D+02      0.172915D+02
   xx         0.306841D+03      0.454691D+02      0.505913D+02
   yx         0.183432D+01      0.271819D+00      0.302439D+00
   yy         0.209554D+03      0.310526D+02      0.345507D+02
   zx        -0.322858D+02     -0.478426D+01     -0.532321D+01
   zy        -0.146012D+02     -0.216368D+01     -0.240742D+01
   zz         0.269301D+03      0.399063D+02      0.444017D+02

 ----------------------------------------------------------------------
 Unable to Open any file for archive entry.
 1\1\GINC-NODE4\Freq\RB3LYP\Gen\C1H4Mo3O1S6\CHEGHO\25-Oct-2022\0\\#N Ge
 om=AllCheck Guess=TCheck SCRF=Check GenChk RB3LYP/ChkBas Freq\\Title C
 ard Required\\0,1\Mo,-0.0176182686,1.952859275,11.3292218927\S,1.06867
 76703,4.1844255064,11.0271908694\S,-1.9524464853,2.2273626014,12.43408
 86479\S,-0.3427725319,1.6642934906,8.9594390789\S,1.1371583376,-0.0233
 353969,11.5982639012\H,1.0751853781,-0.6568869868,10.4012918628\Mo,-2.
 3247399383,2.2987712123,10.1026543987\S,-3.9924040272,0.7817046411,9.4
 415807981\H,-4.075222115,1.1166425782,8.1325212517\S,-2.8160908164,4.7
 269651561,10.1924287468\H,-3.7464946928,4.8358698138,9.2128229679\H,2.
 0602436062,3.8224771272,10.1772771559\Mo,-0.787781115,4.0117313688,9.0
 126184535\C,-1.734100125,4.1498147654,7.3089929825\O,-2.3080508765,4.2
 328508472,6.297116992\\Version=ES64L-G16RevC.01\HF=-2707.6992491\RMSD=
 2.522e-09\RMSF=8.320e-06\ZeroPoint=0.0524594\Thermal=0.0710094\ETot=-2
 707.6282397\HTot=-2707.6272955\GTot=-2707.6968306\Dipole=0.4909649,0.7
 677231,-0.6696289\DipoleDeriv=0.3360744,-0.0303087,-0.373366,-0.327069
 9,0.9124099,-0.2394091,-0.28454,-0.0327393,0.1420434,-0.2496797,-0.251
 1804,-0.0995692,-0.2295995,-0.4905405,0.1456765,-0.1240796,0.1701791,-
 0.0913076,-0.1625134,0.162032,0.1532199,0.01817,-0.0227495,0.0042096,0
 .2773997,-0.0613446,-0.46102,-0.1999099,0.123104,0.2340672,0.1171772,-
 0.1706196,-0.162006,0.2075643,-0.1075294,-0.1233223,-0.3571243,0.30352
 19,-0.0868364,0.3587265,-0.6370097,0.1911627,-0.0798325,0.3413534,-0.0
 692839,0.0889202,-0.0061509,-0.0455362,0.0815477,0.0772931,0.0308539,0
 .0387851,-0.1825599,-0.004388,0.9034005,0.3224626,0.0856341,0.4053112,
 0.6948708,0.0244117,0.0824971,0.176576,0.5340121,-0.7229184,-0.3657019
 ,-0.2261835,-0.5290701,-0.3496079,-0.3237057,-0.2344588,-0.3172177,-0.
 0112659,0.0701068,-0.0537501,0.0780734,-0.0025736,-0.0010572,0.1242404
 ,0.0144042,0.0292233,0.0121638,-0.0437465,0.132105,0.0889936,0.0863632
 ,-0.2398377,-0.0457354,0.1294494,-0.0302293,0.0546706,0.0162801,0.0283
 098,-0.0028677,0.0185059,0.0172712,-0.0204254,-0.1085902,0.006474,0.00
 89335,0.0576065,-0.0286772,-0.0194328,0.039209,0.0235705,-0.067715,0.1
 110657,-0.0448634,-0.0193841,0.290505,-0.0863496,-0.225405,0.0009177,0
 .3061114,0.3049068,-0.1069386,0.3690291,-0.6444689,0.3851604,-0.759687
 8,1.5596943,-0.0933389,0.0333599,-0.0929599,0.5334335,-1.1313262,2.740
 0034,-0.4121617,0.5102712,-1.1204856,0.0557237,-0.1534647,0.1264948,-0
 .4561595,0.814975,-2.0673862\Polar=269.9679435,-13.5393797,263.1079936
 ,37.599983,-44.6411114,252.6197358\Quadrupole=8.7303123,14.6060138,-23
 .3363261,0.5862987,8.3127146,12.2034655\PG=C01 [X(C1H4Mo3O1S6)]\NImag=
 0\\0.24245153,-0.04548626,0.20107532,-0.00612491,0.01552199,0.21721464
 ,-0.02681543,-0.02779616,0.00031727,0.17140620,-0.01322187,-0.05413653
 ,-0.01065007,-0.01409422,0.08151680,0.00098552,-0.00874279,-0.00610260
 ,-0.10321674,0.05898404,0.12634580,-0.10823661,0.00920865,0.07138832,0
 .00184635,-0.00706321,-0.00003472,0.11571924,0.01508772,-0.01418389,-0
 .01021914,-0.00134862,0.00229535,0.00282966,-0.01373684,0.02257489,0.0
 7601908,-0.01036909,-0.05955087,0.00073082,-0.00176446,0.00433363,-0.0
 6165311,0.00552842,0.15520107,-0.01004549,-0.00604830,-0.02394880,-0.0
 0159349,0.00183823,-0.00305051,-0.00008445,0.00139200,0.00233476,0.098
 59953,-0.00099649,-0.01659324,-0.01403584,-0.00275916,-0.00459848,-0.0
 0319821,0.00177519,0.00490899,0.00318374,-0.03226484,0.12467451,-0.017
 30681,-0.01535317,-0.08996908,-0.00167845,-0.00079211,-0.00168248,0.00
 354058,-0.00067840,0.00063523,-0.02210571,0.02493994,0.12521779,-0.037
 15187,0.03661296,-0.00769861,0.00298285,0.00576922,-0.00164621,-0.0009
 0219,0.00053529,0.00079008,-0.00052067,0.00113529,-0.00256702,0.043223
 70,0.03934332,-0.09623735,0.01493852,-0.00156212,0.00020272,0.00259445
 ,0.00850155,0.00068761,-0.00358121,-0.00019750,0.00197449,0.00175513,-
 0.04174161,0.14610031,-0.01310738,-0.00444447,-0.02856360,0.00224259,0
 .00631535,-0.00102020,-0.00179183,-0.00227646,0.00797203,-0.00252866,0
 .00694906,-0.00123582,0.02768859,0.08341235,0.22597295,-0.00140282,0.0
 1181984,0.00356028,0.00080531,-0.00337149,-0.00001484,-0.00075556,0.00
 053411,0.00022497,-0.00013612,-0.00057672,0.00006399,-0.00802584,-0.00
 867506,-0.01786472,0.00945050,0.00398988,-0.01382504,-0.00942688,0.000
 88418,0.00106808,-0.00079369,-0.00055086,0.00003473,0.00213181,0.00008
 084,0.00032382,0.00132759,-0.00581306,-0.05215320,-0.09143639,0.000974
 44,0.06442397,0.00633156,-0.00054967,0.00507901,-0.00056874,-0.0008676
 1,0.00014237,-0.00057849,-0.00031554,-0.00127315,0.00004440,-0.0008228
 6,0.00004398,-0.01636726,-0.09585457,-0.20409090,0.01331675,0.09767741
 ,0.19939533,-0.05864267,0.01236686,-0.05122555,-0.00114058,-0.00941216
 ,0.00468319,-0.01151735,-0.00484410,-0.02171803,-0.08223755,0.02121035
 ,0.04682436,0.00248882,0.00330943,0.01005302,-0.00114138,0.00162116,-0
 .00246756,0.25822579,0.00690653,-0.00591390,-0.00202738,-0.00064559,-0
 .00005894,-0.00052421,-0.00661552,-0.01582995,-0.00210407,0.02367877,-
 0.00807871,-0.00922675,0.00540178,0.00089891,0.00401218,-0.00326679,0.
 00011272,0.00015123,0.03715900,0.20867277,-0.05152600,0.00017081,-0.02
 599161,-0.00192505,0.00464574,-0.00197596,-0.00417872,-0.00109418,-0.0
 9944574,0.05559735,-0.01321217,-0.02760678,-0.00327121,-0.00145229,0.0
 0267024,0.00271199,0.00099040,-0.00074128,0.02018240,0.01320924,0.2189
 6506,-0.00089552,0.00013023,-0.00289233,0.00020708,-0.00035822,0.00043
 477,0.00050379,0.00076499,-0.00251438,-0.00238101,-0.00270745,0.001284
 36,-0.00014504,0.00087565,0.00042505,-0.00014206,0.00025306,0.00007336
 ,-0.05673818,-0.04416501,-0.01528431,0.06714433,-0.00779011,0.00301746
 ,-0.00411356,0.00003446,-0.00027315,0.00025950,0.00148344,-0.00002151,
 -0.00140200,-0.00173702,0.00178159,-0.00020055,-0.00052164,0.00020384,
 0.00072796,0.00016486,0.00089797,-0.00008941,-0.04008345,-0.05965906,-
 0.00910025,0.04791977,0.07508188,0.00189323,-0.00104416,0.00176355,0.0
 0006877,0.00047857,-0.00086402,-0.00165406,-0.00157670,0.00026754,-0.0
 0088222,0.00104149,0.00024859,0.00036222,0.00061834,-0.00068391,-0.000
 40282,-0.00053805,0.00022763,-0.01849593,-0.01403779,-0.02378952,0.031
 58817,-0.04465465,0.25577007,-0.00067877,0.00004519,0.00056485,-0.0000
 7430,0.00036462,-0.00041291,-0.00006777,-0.00075859,0.00081355,-0.0002
 4564,0.00072314,-0.00028983,0.00006847,-0.00020838,-0.00027803,0.00001
 840,-0.00006391,0.00008465,-0.00005141,-0.00186089,-0.00933372,-0.0069
 1672,0.00194535,-0.01023824,0.00840062,0.00279094,-0.00059075,0.000639
 43,-0.00006944,-0.00003778,-0.00001891,-0.00017677,0.00025281,0.000062
 56,-0.00011354,-0.00071920,0.00002198,-0.00000673,0.00018753,-0.000217
 70,-0.00006158,-0.00024967,0.00003695,-0.00495584,0.00492649,-0.006899
 31,0.00322636,-0.02210285,0.06308954,-0.00064388,0.02070176,0.00074663
 ,-0.00012946,-0.00020966,0.00003499,-0.00023062,0.00020078,-0.00024160
 ,0.00012327,0.00001120,0.00031882,-0.00025484,0.00017728,0.00010095,-0
 .00001176,0.00006774,-0.00006550,-0.00002651,-0.00000141,-0.00472040,-
 0.00125739,-0.00416007,-0.01403892,0.06042162,-0.23975118,0.01716158,-
 0.05893783,0.24331367,0.00223343,0.00068540,0.00380083,-0.00016186,-0.
 00077657,-0.00141656,-0.00027850,0.00136109,-0.00126320,0.00121895,0.0
 0216482,0.00005570,-0.00033339,0.00035685,-0.00028805,0.00018946,-0.00
 020075,-0.00018402,-0.00720077,0.01709551,-0.00867892,0.00140139,0.000
 06834,0.00017033,-0.00000572,-0.00008462,-0.00020384,0.17063024,0.0042
 9877,0.00026897,-0.00418206,0.00040518,-0.00031199,0.00082515,-0.00141
 616,-0.00027150,0.00293845,0.00100345,-0.00255221,0.00095687,0.0003547
 7,-0.00036399,0.00055061,-0.00003805,0.00024706,0.00015712,0.01116388,
 -0.08053740,-0.01071004,-0.00258350,0.00056127,0.00043911,0.00040786,-
 0.00017504,0.00009213,-0.03715958,0.10133405,-0.00216498,0.00342332,-0
 .00126681,-0.00074943,0.00134718,0.00023316,-0.00150766,0.00248638,-0.
 00158272,-0.00138264,-0.00319775,0.00303051,-0.00006880,-0.00056367,-0
 .00088543,0.00019469,-0.00005514,0.00026560,-0.00110218,-0.00931829,-0
 .00249809,-0.00035614,0.00054573,-0.00046818,-0.00028604,-0.00027296,-
 0.00004849,0.10459692,0.00230959,0.18771735,-0.00038514,-0.00019034,0.
 00031942,-0.00006467,0.00020345,-0.00021604,0.00006678,-0.00045511,-0.
 00065083,-0.00004094,-0.00035196,-0.00045820,-0.00004096,-0.00010708,-
 0.00015741,0.00005329,-0.00001198,0.00004972,-0.00041137,0.00087255,0.
 00291772,0.00003642,-0.00008385,-0.00005302,-0.00007246,0.00004548,0.0
 0001995,-0.11128182,0.00968420,-0.11710566,0.12354054,-0.00091086,-0.0
 0040600,-0.00121466,-0.00002852,0.00009421,0.00053041,-0.00008374,-0.0
 0020221,-0.00037945,0.00069927,0.00114804,0.00082694,0.00024071,-0.000
 14039,0.00030172,-0.00009107,0.00006152,0.00000097,0.00600057,-0.00143
 453,0.00771793,-0.00059364,-0.00033430,-0.00021554,0.00002814,-0.00006
 903,-0.00006009,0.00594918,-0.01508481,0.00629600,-0.01473642,0.017445
 61,0.00078143,-0.00019155,-0.00000696,0.00016315,-0.00011140,0.0000223
 1,-0.00033322,0.00055563,0.00076429,0.00043110,-0.00006723,0.00029855,
 -0.00007348,0.00020103,-0.00003985,-0.00003445,-0.00001804,-0.00000632
 ,-0.00096908,0.00296555,-0.00256481,0.00001822,-0.00056056,0.00019612,
 0.00006331,0.00011207,0.00006723,-0.12432258,0.01061660,-0.14840902,0.
 11547430,-0.01078698,0.14349731,-0.00358919,0.00081117,0.00383458,-0.1
 3532113,0.04331873,0.10991813,-0.00011280,-0.00052993,-0.00048953,0.00
 122653,0.00043059,-0.00027938,0.00054689,-0.00037362,-0.00039130,0.000
 05561,0.00001282,0.00009250,0.00033370,0.00093629,0.00037177,0.0000832
 8,0.00003062,-0.00006918,-0.00003604,0.00000598,-0.00001340,0.00036155
 ,-0.00024756,0.00011187,0.00003766,-0.00012948,-0.00003813,0.14414739,
 -0.00914460,0.00087162,0.00737567,0.05085987,-0.02640507,-0.04751388,0
 .00217116,-0.00067228,0.00019185,-0.00040766,0.00012273,-0.00004333,-0
 .00050499,-0.00111536,-0.00099156,0.00122549,0.00009733,-0.00013755,0.
 00111516,-0.00007702,-0.00209183,-0.00003709,-0.00011640,0.00028198,0.
 00005901,0.00003251,0.00002204,0.00024764,0.00040817,0.00013953,0.0000
 4041,-0.00004104,-0.00006247,-0.04545812,0.02729214,0.00433717,0.00297
 952,-0.00229585,0.11388360,-0.04703291,-0.10440108,-0.00197881,0.00000
 639,-0.00126890,0.00072823,0.00029698,0.00014778,0.00145648,-0.0006607
 1,0.00122544,-0.00097090,0.00026713,0.00021669,-0.00100537,0.00087717,
 0.00171107,0.00011164,0.00009798,-0.00015247,-0.00003295,0.00000310,-0
 .00002632,-0.00011063,-0.00060688,-0.00059138,-0.00010735,0.00006563,0
 .00010912,-0.11239046,0.04218051,0.10280833,0.00267719,0.00941686,0.00
 968067,-0.00880318,-0.00272818,0.00296857,0.00409236,0.00345753,0.0076
 3020,-0.00296919,0.01148280,-0.00735748,-0.00246829,0.00124467,-0.0054
 6842,0.00094297,-0.00165792,0.00030206,-0.04869410,-0.04036444,0.00671
 127,-0.00253824,-0.00213532,0.00002562,0.00096095,0.00079225,0.0007910
 8,-0.05986233,0.01315913,0.00916895,-0.01166787,0.00457593,0.00849531,
 -0.00943676,-0.00029865,-0.00545444,0.22159473,0.00247619,0.00385560,0
 .01334159,-0.00411535,-0.00012186,-0.00514166,0.00755631,0.00097124,0.
 00749109,0.00521033,-0.10254666,-0.01330833,-0.00089231,-0.00090824,-0
 .00480337,0.00129669,-0.00155043,0.00150366,-0.03613671,-0.04419359,0.
 01056868,-0.00371647,0.00008654,-0.00343892,0.00036346,-0.00160046,0.0
 0063320,0.01141765,-0.00539382,0.00062713,0.00577788,-0.00060963,-0.00
 291956,0.00164065,-0.00066322,0.00178389,0.00230155,0.18193703,0.00124
 351,0.02037009,-0.00941116,-0.00196071,-0.01434115,-0.01106278,-0.0032
 9036,0.00529674,-0.00907506,-0.00371877,-0.00454996,-0.01048017,0.0012
 0152,-0.00093581,-0.00236433,-0.00090403,-0.00026424,0.00092191,0.0138
 6449,0.00847127,-0.02628939,0.00260184,-0.00092540,0.00882941,0.002670
 21,0.00293499,-0.00030580,0.02797761,-0.00254853,-0.02515668,0.0017129
 8,-0.00353654,0.00370777,-0.00005040,0.00094097,0.00358848,0.03289472,
 -0.00047474,0.21571784,0.00100345,-0.00251089,-0.00088375,-0.00333941,
 -0.00062307,-0.01234318,-0.00004259,-0.00201044,0.00059956,-0.00094100
 ,0.00059704,-0.00127934,0.00051550,-0.00128391,0.00250494,0.00014508,0
 .00064600,-0.00050322,0.01200777,0.00865864,0.00727779,-0.00093691,0.0
 0015148,-0.00414169,-0.00196493,-0.00157165,0.00027761,0.00377132,0.00
 228567,0.01176819,-0.00051047,-0.00092559,0.00177040,0.00264482,0.0002
 0045,0.00231341,-0.09057896,0.00301161,-0.03716424,0.34755222,0.003401
 84,-0.01063494,0.00576168,-0.00061503,0.00142178,-0.00061296,-0.001399
 22,-0.00073130,-0.00262079,0.00892448,0.00032883,0.01301843,-0.0007975
 0,0.00091159,0.00258372,0.00009824,0.00071549,-0.00116579,0.00152633,0
 .00142849,0.00892529,0.00132380,0.00097215,-0.00053138,-0.00064830,-0.
 00078760,-0.00024666,-0.00139719,0.00225934,-0.00479737,-0.00088134,-0
 .00023139,0.00003112,-0.00069403,0.00053990,-0.00053691,-0.00224305,-0
 .04672869,-0.02389659,-0.04026553,0.09726728,-0.00275043,-0.00165446,-
 0.00006329,-0.00761757,0.00564410,-0.00335632,0.00418103,-0.00097557,0
 .00550637,-0.00206753,0.00271910,-0.00037408,0.00074703,-0.00139841,0.
 00210929,0.00020303,0.00023470,-0.00058749,0.01335250,0.01511707,-0.01
 038232,-0.00392612,-0.00233745,-0.00377187,-0.00109730,-0.00130968,0.0
 0082023,0.00154045,-0.00000876,-0.01540117,-0.00498247,0.00106712,0.00
 245092,-0.00068152,-0.00056420,-0.00139758,-0.02752856,-0.01989652,-0.
 08454456,0.42822357,-0.05022570,0.85216873,-0.00052210,0.00093479,-0.0
 0069228,0.00006626,0.00015472,0.00336155,-0.00023069,0.00055090,-0.000
 85393,0.00015054,0.00013740,0.00155324,-0.00023797,0.00051780,-0.00103
 838,-0.00005685,-0.00016392,0.00037430,-0.00528070,-0.00379082,-0.0015
 7236,0.00131740,0.00055307,0.00182882,0.00066531,0.00082305,-0.0001679
 6,-0.00068195,-0.00131807,-0.00111707,0.00074102,0.00000550,-0.0014262
 9,-0.00094149,-0.00006808,-0.00077963,0.00675073,0.00380851,-0.0370783
 7,-0.26932588,0.03366649,-0.39759611,0.26758640,-0.00074499,0.00343265
 ,-0.00170928,0.00085050,-0.00065516,0.00052310,0.00034599,0.00018702,0
 .00069317,-0.00205853,-0.00017451,-0.00324424,0.00022780,-0.00024846,-
 0.00068299,-0.00003291,-0.00020434,0.00027567,-0.00004049,-0.00025629,
 -0.00166801,-0.00033247,-0.00009542,0.00008818,0.00024717,0.00023129,-
 0.00013709,0.00027224,-0.00038809,0.00103032,0.00019411,-0.00019604,0.
 00023579,0.00024591,-0.00027402,0.00027912,0.00299682,0.01746620,0.013
 45888,0.03364020,-0.04673095,0.05358867,-0.03581135,0.02790611,0.00064
 239,0.00001310,-0.00062570,0.00027549,-0.00162465,-0.00081262,-0.00186
 734,0.00030950,-0.00249493,0.00023019,0.00020856,0.00154870,-0.0006542
 6,0.00093861,-0.00113364,-0.00001844,-0.00007010,0.00040802,-0.0072558
 7,-0.00630781,0.00209920,0.00247479,0.00133105,0.00217822,0.00061088,0
 .00075577,-0.00015520,-0.00167405,-0.00082936,0.00506133,0.00323688,-0
 .00061347,-0.00008666,0.00007445,0.00027228,0.00032667,-0.03285955,0.0
 1403389,-0.05407550,-0.39842006,0.05431393,-0.74317686,0.43520448,-0.0
 6273128,0.79093897\\-0.00000514,0.00003034,-0.00002155,-0.00000005,-0.
 00000155,0.00000624,0.00001586,-0.00000450,0.00002199,-0.00000015,-0.0
 0000904,0.00000688,-0.00000861,-0.00000242,0.00000438,0.00000296,-0.00
 000043,-0.00000027,-0.00000245,-0.00000615,-0.00001320,0.00000072,0.00
 000172,-0.00000308,0.00000135,0.00000086,-0.00000011,0.00000097,-0.000
 01345,0.00000111,-0.00000261,0.00000115,0.00000127,-0.00000210,0.00000
 077,-0.00000025,-0.00000443,-0.00000071,-0.00000139,-0.00000051,0.0000
 0410,-0.00001046,0.00000418,-0.00000071,0.00000846\\\@
 The archive entry for this job was punched.


 ONE THORN OF EXPERIENCE IS WORTH A WHOLE WILDERNESS OF
 WARNING....  LOWELL - AMONG MY BOOKS
 Job cpu time:       0 days  0 hours 40 minutes 41.4 seconds.
 Elapsed time:       0 days  0 hours  1 minutes 10.2 seconds.
 File lengths (MBytes):  RWF=    147 Int=      0 D2E=      0 Chk=      6 Scr=      2
 Normal termination of Gaussian 16 at Tue Oct 25 19:32:51 2022.
