 Entering Gaussian System, Link 0=g16
 Initial command:
 /home/chesagar/softwares/G16_AVX2//g16/l1.exe "/home/chesagar/scratch/Gau-19374.inp" -scrdir="/home/chesagar/scratch/"
 Entering Link 1 = /home/chesagar/softwares/G16_AVX2//g16/l1.exe PID=     19375.
  
 Copyright (c) 1988-2019, Gaussian, Inc.  All Rights Reserved.
  
 This is part of the Gaussian(R) 16 program.  It is based on
 the Gaussian(R) 09 system (copyright 2009, Gaussian, Inc.),
 the Gaussian(R) 03 system (copyright 2003, Gaussian, Inc.),
 the Gaussian(R) 98 system (copyright 1998, Gaussian, Inc.),
 the Gaussian(R) 94 system (copyright 1995, Gaussian, Inc.),
 the Gaussian 92(TM) system (copyright 1992, Gaussian, Inc.),
 the Gaussian 90(TM) system (copyright 1990, Gaussian, Inc.),
 the Gaussian 88(TM) system (copyright 1988, Gaussian, Inc.),
 the Gaussian 86(TM) system (copyright 1986, Carnegie Mellon
 University), and the Gaussian 82(TM) system (copyright 1983,
 Carnegie Mellon University). Gaussian is a federally registered
 trademark of Gaussian, Inc.
  
 This software contains proprietary and confidential information,
 including trade secrets, belonging to Gaussian, Inc.
  
 This software is provided under written license and may be
 used, copied, transmitted, or stored only in accord with that
 written license.
  
 The following legend is applicable only to US Government
 contracts under FAR:
  
                    RESTRICTED RIGHTS LEGEND
  
 Use, reproduction and disclosure by the US Government is
 subject to restrictions as set forth in subparagraphs (a)
 and (c) of the Commercial Computer Software - Restricted
 Rights clause in FAR 52.227-19.
  
 Gaussian, Inc.
 340 Quinnipiac St., Bldg. 40, Wallingford CT 06492
  
  
 ---------------------------------------------------------------
 Warning -- This program may not be used in any manner that
 competes with the business of Gaussian, Inc. or will provide
 assistance to any competitor of Gaussian, Inc.  The licensee
 of this program is prohibited from giving any competitor of
 Gaussian, Inc. access to this program.  By using this program,
 the user acknowledges that Gaussian, Inc. is engaged in the
 business of creating and licensing software in the field of
 computational chemistry and represents and warrants to the
 licensee that it is not a competitor of Gaussian, Inc. and that
 it will not use this program in any manner prohibited above.
 ---------------------------------------------------------------
  

 Cite this work as:
 Gaussian 16, Revision C.01,
 M. J. Frisch, G. W. Trucks, H. B. Schlegel, G. E. Scuseria, 
 M. A. Robb, J. R. Cheeseman, G. Scalmani, V. Barone, 
 G. A. Petersson, H. Nakatsuji, X. Li, M. Caricato, A. V. Marenich, 
 J. Bloino, B. G. Janesko, R. Gomperts, B. Mennucci, H. P. Hratchian, 
 J. V. Ortiz, A. F. Izmaylov, J. L. Sonnenberg, D. Williams-Young, 
 F. Ding, F. Lipparini, F. Egidi, J. Goings, B. Peng, A. Petrone, 
 T. Henderson, D. Ranasinghe, V. G. Zakrzewski, J. Gao, N. Rega, 
 G. Zheng, W. Liang, M. Hada, M. Ehara, K. Toyota, R. Fukuda, 
 J. Hasegawa, M. Ishida, T. Nakajima, Y. Honda, O. Kitao, H. Nakai, 
 T. Vreven, K. Throssell, J. A. Montgomery, Jr., J. E. Peralta, 
 F. Ogliaro, M. J. Bearpark, J. J. Heyd, E. N. Brothers, K. N. Kudin, 
 V. N. Staroverov, T. A. Keith, R. Kobayashi, J. Normand, 
 K. Raghavachari, A. P. Rendell, J. C. Burant, S. S. Iyengar, 
 J. Tomasi, M. Cossi, J. M. Millam, M. Klene, C. Adamo, R. Cammi, 
 J. W. Ochterski, R. L. Martin, K. Morokuma, O. Farkas, 
 J. B. Foresman, and D. J. Fox, Gaussian, Inc., Wallingford CT, 2019.
 
 ******************************************
 Gaussian 16:  ES64L-G16RevC.01  3-Jul-2019
                25-Oct-2022 
 ******************************************
 %nprocshared=48
 Will use up to   48 processors via shared memory.
 %chk=Mo3.chk
 %mem=48GB
 ---------------------------------------
 # opt freq b3lyp/gen nosymm pseudo=read
 ---------------------------------------
 1/18=20,19=15,26=3,38=1/1,3;
 2/9=110,12=2,15=1,17=6,18=5,40=1/2;
 3/5=7,11=2,16=1,17=8,25=1,30=1,71=1,74=-5/1,2,3;
 4//1;
 5/5=2,38=5/2;
 6/7=2,8=2,9=2,10=2,28=1/1;
 7/30=1/1,2,3,16;
 1/18=20,19=15,26=3/3(2);
 2/9=110,15=1/2;
 99//99;
 2/9=110,15=1/2;
 3/5=7,6=1,11=2,16=1,17=8,25=1,30=1,71=1,74=-5,82=7/1,2,3;
 4/5=5,16=3,69=1/1;
 5/5=2,38=5/2;
 7/30=1/1,2,3,16;
 1/18=20,19=15,26=3/3(-5);
 2/9=110,15=1/2;
 6/7=2,8=2,9=2,10=2,19=2,28=1/1;
 99/9=1/99;
 -------------------
 Title Card Required
 -------------------
 Symbolic Z-matrix:
 Charge =  0 Multiplicity = 1
 42                    0.08646   1.98967   11.15359 
 16                    0.85455   4.3171    10.7546 
 16                   -1.68234   2.20484   12.61279 
 16                   -0.75179   1.27473   8.99486 
 16                    1.44042   0.08932   11.22922 
 1                     1.35786  -0.56129   10.04986 
 42                   -2.51533   1.99438   10.45613 
 16                   -4.53484   0.7964    10.13588 
 1                    -5.27738   1.58275   9.32798 
 16                   -3.36662   4.04026   9.39753 
 1                    -3.89559   3.69325   8.19165 
 1                     2.08001   4.20203   10.1775 
 42                   -0.92039   3.59763   9.24937 
 

 GradGradGradGradGradGradGradGradGradGradGradGradGradGradGradGradGradGrad
 Berny optimization.
 Initialization pass.
                           ----------------------------
                           !    Initial Parameters    !
                           ! (Angstroms and Degrees)  !
 --------------------------                            --------------------------
 ! Name  Definition              Value          Derivative Info.                !
 --------------------------------------------------------------------------------
 ! R1    R(1,2)                  2.4832         estimate D2E/DX2                !
 ! R2    R(1,3)                  2.3031         estimate D2E/DX2                !
 ! R3    R(1,4)                  2.4236         estimate D2E/DX2                !
 ! R4    R(1,5)                  2.3346         estimate D2E/DX2                !
 ! R5    R(1,7)                  2.6937         estimate D2E/DX2                !
 ! R6    R(1,13)                 2.688          estimate D2E/DX2                !
 ! R7    R(2,12)                 1.3594         estimate D2E/DX2                !
 ! R8    R(2,13)                 2.4359         estimate D2E/DX2                !
 ! R9    R(3,7)                  2.3215         estimate D2E/DX2                !
 ! R10   R(4,7)                  2.4007         estimate D2E/DX2                !
 ! R11   R(4,13)                 2.3429         estimate D2E/DX2                !
 ! R12   R(5,6)                  1.3495         estimate D2E/DX2                !
 ! R13   R(7,8)                  2.3698         estimate D2E/DX2                !
 ! R14   R(7,10)                 2.4558         estimate D2E/DX2                !
 ! R15   R(7,13)                 2.5633         estimate D2E/DX2                !
 ! R16   R(8,9)                  1.35           estimate D2E/DX2                !
 ! R17   R(10,11)                1.3617         estimate D2E/DX2                !
 ! R18   R(10,13)                2.4904         estimate D2E/DX2                !
 ! A1    A(2,1,3)              104.584          estimate D2E/DX2                !
 ! A2    A(2,1,4)              103.9074         estimate D2E/DX2                !
 ! A3    A(2,1,5)              126.0693         estimate D2E/DX2                !
 ! A4    A(2,1,7)              104.805          estimate D2E/DX2                !
 ! A5    A(3,1,4)              109.0423         estimate D2E/DX2                !
 ! A6    A(3,1,5)              120.0621         estimate D2E/DX2                !
 ! A7    A(3,1,13)              96.0431         estimate D2E/DX2                !
 ! A8    A(4,1,5)               89.3882         estimate D2E/DX2                !
 ! A9    A(5,1,7)              124.7495         estimate D2E/DX2                !
 ! A10   A(5,1,13)             136.6456         estimate D2E/DX2                !
 ! A11   A(1,2,12)             105.5282         estimate D2E/DX2                !
 ! A12   A(12,2,13)            111.6861         estimate D2E/DX2                !
 ! A13   A(1,5,6)              109.1873         estimate D2E/DX2                !
 ! A14   A(1,7,8)              149.0055         estimate D2E/DX2                !
 ! A15   A(1,7,10)             116.6087         estimate D2E/DX2                !
 ! A16   A(3,7,4)              109.2117         estimate D2E/DX2                !
 ! A17   A(3,7,8)              118.4989         estimate D2E/DX2                !
 ! A18   A(3,7,10)             116.6996         estimate D2E/DX2                !
 ! A19   A(3,7,13)              99.0555         estimate D2E/DX2                !
 ! A20   A(4,7,8)              113.0924         estimate D2E/DX2                !
 ! A21   A(4,7,10)             104.0043         estimate D2E/DX2                !
 ! A22   A(8,7,10)              93.8689         estimate D2E/DX2                !
 ! A23   A(8,7,13)             141.5174         estimate D2E/DX2                !
 ! A24   A(7,8,9)              104.7825         estimate D2E/DX2                !
 ! A25   A(7,10,11)            107.7032         estimate D2E/DX2                !
 ! A26   A(11,10,13)           106.4745         estimate D2E/DX2                !
 ! A27   A(1,13,10)            115.6015         estimate D2E/DX2                !
 ! A28   A(2,13,4)             107.9101         estimate D2E/DX2                !
 ! A29   A(2,13,7)             110.3162         estimate D2E/DX2                !
 ! A30   A(2,13,10)            128.7909         estimate D2E/DX2                !
 ! A31   A(4,13,10)            104.677          estimate D2E/DX2                !
 ! D1    D(3,1,2,12)           165.2664         estimate D2E/DX2                !
 ! D2    D(4,1,2,12)           -80.4197         estimate D2E/DX2                !
 ! D3    D(5,1,2,12)            19.1793         estimate D2E/DX2                !
 ! D4    D(7,1,2,12)          -138.0259         estimate D2E/DX2                !
 ! D5    D(2,1,5,6)           -100.3298         estimate D2E/DX2                !
 ! D6    D(3,1,5,6)            118.2699         estimate D2E/DX2                !
 ! D7    D(4,1,5,6)              6.5039         estimate D2E/DX2                !
 ! D8    D(7,1,5,6)             52.5489         estimate D2E/DX2                !
 ! D9    D(13,1,5,6)           -23.9364         estimate D2E/DX2                !
 ! D10   D(2,1,7,8)            175.9941         estimate D2E/DX2                !
 ! D11   D(2,1,7,10)             7.3401         estimate D2E/DX2                !
 ! D12   D(5,1,7,8)             18.3983         estimate D2E/DX2                !
 ! D13   D(5,1,7,10)          -150.2556         estimate D2E/DX2                !
 ! D14   D(3,1,13,10)          -17.7344         estimate D2E/DX2                !
 ! D15   D(5,1,13,10)          130.0336         estimate D2E/DX2                !
 ! D16   D(12,2,13,4)           69.5762         estimate D2E/DX2                !
 ! D17   D(12,2,13,7)          131.6846         estimate D2E/DX2                !
 ! D18   D(12,2,13,10)        -163.4545         estimate D2E/DX2                !
 ! D19   D(1,4,7,13)            75.73           estimate D2E/DX2                !
 ! D20   D(1,7,8,9)           -160.2228         estimate D2E/DX2                !
 ! D21   D(3,7,8,9)            132.9316         estimate D2E/DX2                !
 ! D22   D(4,7,8,9)            -97.3853         estimate D2E/DX2                !
 ! D23   D(10,7,8,9)             9.6229         estimate D2E/DX2                !
 ! D24   D(13,7,8,9)           -33.1843         estimate D2E/DX2                !
 ! D25   D(1,7,10,11)          123.3174         estimate D2E/DX2                !
 ! D26   D(3,7,10,11)         -175.5576         estimate D2E/DX2                !
 ! D27   D(4,7,10,11)           64.1075         estimate D2E/DX2                !
 ! D28   D(8,7,10,11)          -50.8547         estimate D2E/DX2                !
 ! D29   D(3,7,13,2)             8.072          estimate D2E/DX2                !
 ! D30   D(8,7,13,2)           175.7419         estimate D2E/DX2                !
 ! D31   D(11,10,13,1)        -125.1477         estimate D2E/DX2                !
 ! D32   D(11,10,13,2)         166.8505         estimate D2E/DX2                !
 ! D33   D(11,10,13,4)         -64.9521         estimate D2E/DX2                !
 --------------------------------------------------------------------------------
 Trust Radius=3.00D-01 FncErr=1.00D-07 GrdErr=1.00D-06 EigMax=2.50D+02 EigMin=1.00D-04
 Number of steps in this run=     92 maximum allowed number of steps=    100.
 GradGradGradGradGradGradGradGradGradGradGradGradGradGradGradGradGradGrad

                          Input orientation:                          
 ---------------------------------------------------------------------
 Center     Atomic      Atomic             Coordinates (Angstroms)
 Number     Number       Type             X           Y           Z
 ---------------------------------------------------------------------
      1         42           0        0.086462    1.989672   11.153593
      2         16           0        0.854552    4.317095   10.754604
      3         16           0       -1.682335    2.204838   12.612787
      4         16           0       -0.751786    1.274733    8.994859
      5         16           0        1.440421    0.089321   11.229225
      6          1           0        1.357858   -0.561289   10.049856
      7         42           0       -2.515325    1.994378   10.456130
      8         16           0       -4.534839    0.796402   10.135882
      9          1           0       -5.277385    1.582751    9.327985
     10         16           0       -3.366625    4.040255    9.397527
     11          1           0       -3.895589    3.693249    8.191654
     12          1           0        2.080014    4.202026   10.177502
     13         42           0       -0.920390    3.597633    9.249368
 ---------------------------------------------------------------------
                    Distance matrix (angstroms):
                    1          2          3          4          5
     1  Mo   0.000000
     2  S    2.483154   0.000000
     3  S    2.303082   3.788175   0.000000
     4  S    2.423619   3.864323   3.849730   0.000000
     5  S    2.334579   4.294483   4.017619   3.347143   0.000000
     6  H    3.056482   4.954656   4.843846   2.989079   1.349452
     7  Mo   2.693654   4.103678   2.321494   2.400682   4.458121
     8  S    4.880169   6.467119   4.031815   3.980229   6.115480
     9  H    5.680606   6.863857   4.909308   4.548285   7.139605
    10  S    4.383203   4.442593   4.067368   3.827223   6.486346
    11  H    5.247093   5.433391   5.163359   4.046956   7.119560
    12  H    3.133929   1.359428   4.906592   4.241082   4.292964
    13  Mo   2.688003   2.435935   3.719278   2.342876   4.669209
                    6          7          8          9         10
     6  H    0.000000
     7  Mo   4.658115   0.000000
     8  S    6.047694   2.369840   0.000000
     9  H    7.010311   3.011831   1.349969   0.000000
    10  S    6.627253   2.455802   3.525971   3.113706   0.000000
    11  H    7.010900   3.149467   3.546884   2.766733   1.361744
    12  H    4.819437   5.105730   7.440181   7.855800   5.504581
    13  Mo   4.809140   2.563302   4.658009   4.800972   2.490368
                   11         12         13
    11  H    0.000000
    12  H    6.317458   0.000000
    13  Mo   3.159068   3.198304   0.000000
 Symmetry turned off by external request.
 Stoichiometry    H4Mo3S6
 Framework group  C1[X(H4Mo3S6)]
 Deg. of freedom    33
 Full point group                 C1      NOp   1
 Rotational constants (GHZ):           0.4575166           0.3122534           0.2400041
 General basis read from cards:  (5D, 7F)
 ======================================================================================================
                                       Pseudopotential Parameters
 ======================================================================================================
  Center     Atomic      Valence      Angular      Power
  Number     Number     Electrons     Momentum     of R      Exponent        Coefficient   SO-Coeffient
 ======================================================================================================
    1         42           14
                                      F and up 
                                                     0      537.9667807       -0.04694920    0.00000000
                                                     1      147.8982938      -20.20800840    0.00000000
                                                     2       45.7358898     -106.21163020    0.00000000
                                                     2       13.2911467      -41.81073680    0.00000000
                                                     2        4.7059961       -4.20541030    0.00000000
                                      S - F
                                                     0      110.2991760        2.80637170    0.00000000
                                                     1       23.2014645       44.51620120    0.00000000
                                                     2        5.3530131       82.77852270    0.00000000
                                      P - F
                                                     0       63.2901397        4.94208760    0.00000000
                                                     1       23.3315302       25.86049760    0.00000000
                                                     2       24.6759423      132.47087420    0.00000000
                                                     2        4.6493040       57.31497940    0.00000000
                                      D - F
                                                     0      104.4839977        3.00545910    0.00000000
                                                     1       66.2307245       26.36378510    0.00000000
                                                     2       39.1283176      183.38491990    0.00000000
                                                     2       13.1164437       98.44530680    0.00000000
                                                     2        3.6280263       22.49013770    0.00000000
    2         16
                                   No pseudopotential on this center.
    3         16
                                   No pseudopotential on this center.
    4         16
                                   No pseudopotential on this center.
    5         16
                                   No pseudopotential on this center.
    6          1
                                   No pseudopotential on this center.
    7         42           14
                                      F and up 
                                                     0      537.9667807       -0.04694920    0.00000000
                                                     1      147.8982938      -20.20800840    0.00000000
                                                     2       45.7358898     -106.21163020    0.00000000
                                                     2       13.2911467      -41.81073680    0.00000000
                                                     2        4.7059961       -4.20541030    0.00000000
                                      S - F
                                                     0      110.2991760        2.80637170    0.00000000
                                                     1       23.2014645       44.51620120    0.00000000
                                                     2        5.3530131       82.77852270    0.00000000
                                      P - F
                                                     0       63.2901397        4.94208760    0.00000000
                                                     1       23.3315302       25.86049760    0.00000000
                                                     2       24.6759423      132.47087420    0.00000000
                                                     2        4.6493040       57.31497940    0.00000000
                                      D - F
                                                     0      104.4839977        3.00545910    0.00000000
                                                     1       66.2307245       26.36378510    0.00000000
                                                     2       39.1283176      183.38491990    0.00000000
                                                     2       13.1164437       98.44530680    0.00000000
                                                     2        3.6280263       22.49013770    0.00000000
    8         16
                                   No pseudopotential on this center.
    9          1
                                   No pseudopotential on this center.
   10         16
                                   No pseudopotential on this center.
   11          1
                                   No pseudopotential on this center.
   12          1
                                   No pseudopotential on this center.
   13         42           14
                                      F and up 
                                                     0      537.9667807       -0.04694920    0.00000000
                                                     1      147.8982938      -20.20800840    0.00000000
                                                     2       45.7358898     -106.21163020    0.00000000
                                                     2       13.2911467      -41.81073680    0.00000000
                                                     2        4.7059961       -4.20541030    0.00000000
                                      S - F
                                                     0      110.2991760        2.80637170    0.00000000
                                                     1       23.2014645       44.51620120    0.00000000
                                                     2        5.3530131       82.77852270    0.00000000
                                      P - F
                                                     0       63.2901397        4.94208760    0.00000000
                                                     1       23.3315302       25.86049760    0.00000000
                                                     2       24.6759423      132.47087420    0.00000000
                                                     2        4.6493040       57.31497940    0.00000000
                                      D - F
                                                     0      104.4839977        3.00545910    0.00000000
                                                     1       66.2307245       26.36378510    0.00000000
                                                     2       39.1283176      183.38491990    0.00000000
                                                     2       13.1164437       98.44530680    0.00000000
                                                     2        3.6280263       22.49013770    0.00000000
 ======================================================================================================
   194 basis functions,   487 primitive gaussians,   206 cartesian basis functions
    71 alpha electrons       71 beta electrons
       nuclear repulsion energy      1416.1337389414 Hartrees.
 NAtoms=   13 NActive=   13 NUniq=   13 SFac= 1.00D+00 NAtFMM=   60 NAOKFM=F Big=F
 Integral buffers will be    131072 words long.
 Raffenetti 2 integral format.
 Two-electron integral symmetry is turned off.
 One-electron integrals computed using PRISM.
   1 Symmetry operations used in ECPInt.
 ECPInt:  NShTT=    2211 NPrTT=   15300 LenC2=    2087 LenP2D=   10640.
 LDataN:  DoStor=T MaxTD1= 5 Len=  102
 NBasis=   194 RedAO= T EigKep=  1.40D-03  NBF=   194
 NBsUse=   194 1.00D-06 EigRej= -1.00D+00 NBFU=   194
 Defaulting to unpruned grid for atomic number  42.
 Defaulting to unpruned grid for atomic number  42.
 Defaulting to unpruned grid for atomic number  42.
 ExpMin= 2.47D-02 ExpMax= 2.19D+04 ExpMxC= 3.30D+03 IAcc=3 IRadAn=         5 AccDes= 0.00D+00
 Harris functional with IExCor=  402 and IRadAn=       5 diagonalized for initial guess.
 HarFok:  IExCor=  402 AccDes= 0.00D+00 IRadAn=         5 IDoV= 1 UseB2=F ITyADJ=14
 ICtDFT=  3500011 ScaDFX=  1.000000  1.000000  1.000000  1.000000
 Defaulting to unpruned grid for atomic number  42.
 FoFCou: FMM=F IPFlag=           0 FMFlag=      100000 FMFlg1=           0
         NFxFlg=           0 DoJE=T BraDBF=F KetDBF=T FulRan=T
         wScrn=  0.000000 ICntrl=       500 IOpCl=  0 I1Cent=   200000004 NGrid=           0
         NMat0=    1 NMatS0=      1 NMatT0=    0 NMatD0=    1 NMtDS0=    0 NMtDT0=    0
 Symmetry not used in FoFCou.
 Requested convergence on RMS density matrix=1.00D-08 within 128 cycles.
 Requested convergence on MAX density matrix=1.00D-06.
 Requested convergence on             energy=1.00D-06.
 No special actions if energy rises.
 Defaulting to unpruned grid for atomic number  42.
 Defaulting to unpruned grid for atomic number  42.
 Defaulting to unpruned grid for atomic number  42.
 Defaulting to unpruned grid for atomic number  42.
 Defaulting to unpruned grid for atomic number  42.
 Defaulting to unpruned grid for atomic number  42.
 Defaulting to unpruned grid for atomic number  42.
 Defaulting to unpruned grid for atomic number  42.
 Defaulting to unpruned grid for atomic number  42.
 Defaulting to unpruned grid for atomic number  42.
 Defaulting to unpruned grid for atomic number  42.
 Defaulting to unpruned grid for atomic number  42.
 Defaulting to unpruned grid for atomic number  42.
 Defaulting to unpruned grid for atomic number  42.
 Defaulting to unpruned grid for atomic number  42.
 Defaulting to unpruned grid for atomic number  42.
 Defaulting to unpruned grid for atomic number  42.
 Defaulting to unpruned grid for atomic number  42.
 Defaulting to unpruned grid for atomic number  42.
 Defaulting to unpruned grid for atomic number  42.
 Defaulting to unpruned grid for atomic number  42.
 Defaulting to unpruned grid for atomic number  42.
 Defaulting to unpruned grid for atomic number  42.
 Defaulting to unpruned grid for atomic number  42.
 Defaulting to unpruned grid for atomic number  42.
 Defaulting to unpruned grid for atomic number  42.
 Defaulting to unpruned grid for atomic number  42.
 Defaulting to unpruned grid for atomic number  42.
 Defaulting to unpruned grid for atomic number  42.
 Defaulting to unpruned grid for atomic number  42.
 Defaulting to unpruned grid for atomic number  42.
 Defaulting to unpruned grid for atomic number  42.
 Defaulting to unpruned grid for atomic number  42.
 Defaulting to unpruned grid for atomic number  42.
 Defaulting to unpruned grid for atomic number  42.
 Defaulting to unpruned grid for atomic number  42.
 Defaulting to unpruned grid for atomic number  42.
 Defaulting to unpruned grid for atomic number  42.
 Defaulting to unpruned grid for atomic number  42.
 Defaulting to unpruned grid for atomic number  42.
 Defaulting to unpruned grid for atomic number  42.
 Defaulting to unpruned grid for atomic number  42.
 Defaulting to unpruned grid for atomic number  42.
 Defaulting to unpruned grid for atomic number  42.
 Defaulting to unpruned grid for atomic number  42.
 Defaulting to unpruned grid for atomic number  42.
 Defaulting to unpruned grid for atomic number  42.
 Defaulting to unpruned grid for atomic number  42.
 EnCoef did     4 forward-backward iterations
 EnCoef did     3 forward-backward iterations
 EnCoef did     6 forward-backward iterations
 EnCoef did     8 forward-backward iterations
 EnCoef did     3 forward-backward iterations
 EnCoef did     3 forward-backward iterations
 Restarting incremental Fock formation.
 SCF Done:  E(RB3LYP) =  -2594.33932818     A.U. after   26 cycles
            NFock= 26  Conv=0.59D-08     -V/T= 2.0573

 **********************************************************************

            Population analysis using the SCF Density.

 **********************************************************************

 Alpha  occ. eigenvalues --  -88.89979 -88.89627 -88.89533 -88.86748 -88.86747
 Alpha  occ. eigenvalues --  -88.85720  -7.97630  -7.97351  -7.97205  -7.94652
 Alpha  occ. eigenvalues --   -7.94560  -7.93504  -5.93900  -5.93484  -5.93461
 Alpha  occ. eigenvalues --   -5.93408  -5.93316  -5.93300  -5.93288  -5.93028
 Alpha  occ. eigenvalues --   -5.92972  -5.90921  -5.90541  -5.90513  -5.90497
 Alpha  occ. eigenvalues --   -5.90466  -5.90370  -5.89786  -5.89319  -5.89261
 Alpha  occ. eigenvalues --   -2.52437  -2.52079  -2.50657  -1.56916  -1.55540
 Alpha  occ. eigenvalues --   -1.55034  -1.54503  -1.54040  -1.53471  -1.53235
 Alpha  occ. eigenvalues --   -1.52636  -1.51031  -0.75361  -0.74727  -0.73228
 Alpha  occ. eigenvalues --   -0.72027  -0.71076  -0.69353  -0.45487  -0.44990
 Alpha  occ. eigenvalues --   -0.43171  -0.41506  -0.38681  -0.38417  -0.37587
 Alpha  occ. eigenvalues --   -0.36362  -0.36010  -0.34267  -0.33718  -0.32885
 Alpha  occ. eigenvalues --   -0.32378  -0.31795  -0.30895  -0.29586  -0.28703
 Alpha  occ. eigenvalues --   -0.26943  -0.26540  -0.26186  -0.24270  -0.21844
 Alpha  occ. eigenvalues --   -0.20005
 Alpha virt. eigenvalues --   -0.13572  -0.12425  -0.11657  -0.10887  -0.10523
 Alpha virt. eigenvalues --   -0.09386  -0.08796  -0.07989  -0.07194  -0.05438
 Alpha virt. eigenvalues --   -0.02934  -0.01632  -0.00065   0.00626   0.01687
 Alpha virt. eigenvalues --    0.02149   0.03610   0.04080   0.04509   0.05077
 Alpha virt. eigenvalues --    0.05562   0.06580   0.07310   0.07634   0.08456
 Alpha virt. eigenvalues --    0.11272   0.12924   0.15420   0.16364   0.17689
 Alpha virt. eigenvalues --    0.18736   0.20142   0.22235   0.25661   0.26745
 Alpha virt. eigenvalues --    0.27171   0.29168   0.30422   0.30650   0.31006
 Alpha virt. eigenvalues --    0.32655   0.33115   0.33670   0.34840   0.35922
 Alpha virt. eigenvalues --    0.36294   0.37133   0.37803   0.38392   0.38986
 Alpha virt. eigenvalues --    0.39321   0.39920   0.41436   0.42658   0.44203
 Alpha virt. eigenvalues --    0.45566   0.46598   0.47150   0.47541   0.48129
 Alpha virt. eigenvalues --    0.49053   0.50108   0.52646   0.54428   0.56710
 Alpha virt. eigenvalues --    0.58014   0.59264   0.60710   0.61485   0.62490
 Alpha virt. eigenvalues --    0.65422   0.66537   0.68225   0.71199   0.73580
 Alpha virt. eigenvalues --    0.73928   0.74184   0.74915   0.75563   0.76063
 Alpha virt. eigenvalues --    0.76318   0.77729   0.78451   0.79681   0.81476
 Alpha virt. eigenvalues --    0.83103   0.83459   0.86027   0.87866   0.88868
 Alpha virt. eigenvalues --    0.89955   0.91123   0.94017   0.94794   0.95307
 Alpha virt. eigenvalues --    0.96046   0.97113   0.99346   1.00766   1.03044
 Alpha virt. eigenvalues --    1.05505   1.07086   1.08063   1.10718   1.12742
 Alpha virt. eigenvalues --    1.13562   1.16586   1.18853   2.06886   2.07344
 Alpha virt. eigenvalues --    2.07728   2.07791   2.08275   2.08637   2.09539
 Alpha virt. eigenvalues --    2.10280   2.69676   2.70446   2.73159   2.74149
 Alpha virt. eigenvalues --    6.94263   7.86135   9.93358
          Condensed to atoms (all electrons):
               1          2          3          4          5          6
     1  Mo  13.501289   0.200756   0.212421   0.077703   0.257732  -0.032103
     2  S    0.200756  15.597712   0.002558  -0.004764   0.004447  -0.000097
     3  S    0.212421   0.002558  15.674832   0.000828   0.001886  -0.000210
     4  S    0.077703  -0.004764   0.000828  15.596568  -0.019777  -0.003690
     5  S    0.257732   0.004447   0.001886  -0.019777  15.690864   0.275584
     6  H   -0.032103  -0.000097  -0.000210  -0.003690   0.275584   0.656913
     7  Mo  -0.226827  -0.022405   0.239593   0.151255  -0.009537   0.003064
     8  S   -0.040109  -0.000045   0.010894   0.015986   0.000030  -0.000010
     9  H    0.001549   0.000001   0.000158   0.000046  -0.000000  -0.000000
    10  S    0.000592  -0.005975   0.001982  -0.004672  -0.000106   0.000003
    11  H    0.002067   0.000078   0.000044   0.001724   0.000001  -0.000000
    12  H   -0.040921   0.211018  -0.000001   0.001299  -0.002069  -0.000007
    13  Mo   0.066711   0.137542  -0.030586   0.151276  -0.015294   0.004629
               7          8          9         10         11         12
     1  Mo  -0.226827  -0.040109   0.001549   0.000592   0.002067  -0.040921
     2  S   -0.022405  -0.000045   0.000001  -0.005975   0.000078   0.211018
     3  S    0.239593   0.010894   0.000158   0.001982   0.000044  -0.000001
     4  S    0.151255   0.015986   0.000046  -0.004672   0.001724   0.001299
     5  S   -0.009537   0.000030  -0.000000  -0.000106   0.000001  -0.002069
     6  H    0.003064  -0.000010  -0.000000   0.000003  -0.000000  -0.000007
     7  Mo  13.386275   0.323194  -0.021675   0.174975  -0.034454   0.003021
     8  S    0.323194  15.638705   0.255133  -0.015562  -0.003525   0.000000
     9  H   -0.021675   0.255133   0.693527  -0.007525   0.004373  -0.000000
    10  S    0.174975  -0.015562  -0.007525  15.627887   0.212405   0.000128
    11  H   -0.034454  -0.003525   0.004373   0.212405   0.755878  -0.000000
    12  H    0.003021   0.000000  -0.000000   0.000128  -0.000000   0.760837
    13  Mo  -0.018252  -0.022117   0.002024   0.123980  -0.017292  -0.014918
              13
     1  Mo   0.066711
     2  S    0.137542
     3  S   -0.030586
     4  S    0.151276
     5  S   -0.015294
     6  H    0.004629
     7  Mo  -0.018252
     8  S   -0.022117
     9  H    0.002024
    10  S    0.123980
    11  H   -0.017292
    12  H   -0.014918
    13  Mo  13.378380
 Mulliken charges:
               1
     1  Mo   0.019138
     2  S   -0.120827
     3  S   -0.114399
     4  S    0.036217
     5  S   -0.183759
     6  H    0.095924
     7  Mo   0.051773
     8  S   -0.162575
     9  H    0.072389
    10  S   -0.108111
    11  H    0.078701
    12  H    0.081612
    13  Mo   0.253915
 Sum of Mulliken charges =  -0.00000
 Mulliken charges with hydrogens summed into heavy atoms:
               1
     1  Mo   0.019138
     2  S   -0.039214
     3  S   -0.114399
     4  S    0.036217
     5  S   -0.087835
     7  Mo   0.051773
     8  S   -0.090186
    10  S   -0.029410
    13  Mo   0.253915
 Electronic spatial extent (au):  <R**2>=          62354.3544
 Charge=             -0.0000 electrons
 Dipole moment (field-independent basis, Debye):
    X=              2.0103    Y=              2.8876    Z=             -4.0457  Tot=              5.3616
 Quadrupole moment (field-independent basis, Debye-Ang):
   XX=           -153.1994   YY=           -136.9486   ZZ=           -230.4894
   XY=              0.4575   XZ=             27.4132   YZ=             16.6911
 Traceless Quadrupole moment (field-independent basis, Debye-Ang):
   XX=             20.3464   YY=             36.5972   ZZ=            -56.9436
   XY=              0.4575   XZ=             27.4132   YZ=             16.6911
 Octapole moment (field-independent basis, Debye-Ang**2):
  XXX=            569.7787  YYY=           -984.4315  ZZZ=          -5894.3914  XYY=            195.8298
  XXY=           -317.9811  XXZ=          -1631.5032  XZZ=            531.5378  YZZ=           -287.2485
  YYZ=          -1485.2545  XYZ=             31.1595
 Hexadecapole moment (field-independent basis, Debye-Ang**3):
 XXXX=          -4436.5260 YYYY=          -6298.6270 ZZZZ=        -115005.9579 XXXY=           1215.4135
 XXXZ=           5858.5865 YYYX=           1348.8863 YYYZ=         -10333.7679 ZZZX=           9770.7697
 ZZZY=         -11024.0906 XXYY=          -1771.1255 XXZZ=         -18252.6595 YYZZ=         -17268.2890
 XXYZ=          -3349.0660 YYXZ=           2027.0389 ZZXY=            995.5602
 N-N= 1.416133738941D+03 E-N=-8.930126808430D+03  KE= 2.453797168064D+03
   1 Symmetry operations used in ECPInt.
 ECPInt:  NShTT=    2211 NPrTT=   15300 LenC2=    2087 LenP2D=   10640.
 LDataN:  DoStor=T MaxTD1= 6 Len=  172
 Calling FoFJK, ICntrl=      2127 FMM=F ISym2X=0 I1Cent= 0 IOpClX= 0 NMat=1 NMatS=1 NMatT=0.
 Defaulting to unpruned grid for atomic number  42.
 Defaulting to unpruned grid for atomic number  42.
 Defaulting to unpruned grid for atomic number  42.
 Defaulting to unpruned grid for atomic number  42.
 Defaulting to unpruned grid for atomic number  42.
 Defaulting to unpruned grid for atomic number  42.
 Defaulting to unpruned grid for atomic number  42.
 Defaulting to unpruned grid for atomic number  42.
 Defaulting to unpruned grid for atomic number  42.
 Defaulting to unpruned grid for atomic number  42.
 Defaulting to unpruned grid for atomic number  42.
 Defaulting to unpruned grid for atomic number  42.
 Defaulting to unpruned grid for atomic number  42.
 Defaulting to unpruned grid for atomic number  42.
 Defaulting to unpruned grid for atomic number  42.
 Defaulting to unpruned grid for atomic number  42.
 Defaulting to unpruned grid for atomic number  42.
 Defaulting to unpruned grid for atomic number  42.
 Defaulting to unpruned grid for atomic number  42.
 Defaulting to unpruned grid for atomic number  42.
 Defaulting to unpruned grid for atomic number  42.
 Defaulting to unpruned grid for atomic number  42.
 Defaulting to unpruned grid for atomic number  42.
 Defaulting to unpruned grid for atomic number  42.
 Defaulting to unpruned grid for atomic number  42.
 Defaulting to unpruned grid for atomic number  42.
 Defaulting to unpruned grid for atomic number  42.
 Defaulting to unpruned grid for atomic number  42.
 Defaulting to unpruned grid for atomic number  42.
 Defaulting to unpruned grid for atomic number  42.
 Defaulting to unpruned grid for atomic number  42.
 Defaulting to unpruned grid for atomic number  42.
 Defaulting to unpruned grid for atomic number  42.
 Defaulting to unpruned grid for atomic number  42.
 Defaulting to unpruned grid for atomic number  42.
 Defaulting to unpruned grid for atomic number  42.
 Defaulting to unpruned grid for atomic number  42.
 Defaulting to unpruned grid for atomic number  42.
 Defaulting to unpruned grid for atomic number  42.
 Defaulting to unpruned grid for atomic number  42.
 Defaulting to unpruned grid for atomic number  42.
 Defaulting to unpruned grid for atomic number  42.
 Defaulting to unpruned grid for atomic number  42.
 Defaulting to unpruned grid for atomic number  42.
 Defaulting to unpruned grid for atomic number  42.
 Defaulting to unpruned grid for atomic number  42.
 Defaulting to unpruned grid for atomic number  42.
 Defaulting to unpruned grid for atomic number  42.
 -------------------------------------------------------------------
 Center     Atomic                   Forces (Hartrees/Bohr)
 Number     Number              X              Y              Z
 -------------------------------------------------------------------
      1       42          -0.008207402    0.012301501   -0.020671477
      2       16           0.000620512    0.001733458    0.002737198
      3       16          -0.002974619   -0.003071363    0.000680525
      4       16           0.000264194   -0.000534899   -0.001941997
      5       16           0.004942536   -0.002945174    0.003906102
      6        1          -0.000884676    0.001450376    0.000046564
      7       42           0.006211759    0.009377700   -0.001431381
      8       16           0.002002375   -0.000397620    0.000302212
      9        1          -0.000302169    0.000864130    0.000256862
     10       16           0.000801273    0.003235565   -0.003118963
     11        1          -0.001195903   -0.000114663   -0.000967356
     12        1           0.002174079    0.000295886   -0.002049367
     13       42          -0.003451959   -0.022194900    0.022251078
 -------------------------------------------------------------------
 Cartesian Forces:  Max     0.022251078 RMS     0.006973599

 GradGradGradGradGradGradGradGradGradGradGradGradGradGradGradGradGradGrad
 Berny optimization.
 FormGI is forming the generalized inverse of G from B-inverse, IUseBI=4.
 Internal  Forces:  Max     0.013573030 RMS     0.002732777
 Search for a local minimum.
 Step number   1 out of a maximum of   92
 All quantities printed in internal units (Hartrees-Bohrs-Radians)
 Mixed Optimization -- RFO/linear search
 Second derivative matrix not updated -- first step.
 ITU=  0
     Eigenvalues ---    0.00230   0.00230   0.01725   0.01959   0.03048
     Eigenvalues ---    0.03784   0.04299   0.07090   0.08724   0.09012
     Eigenvalues ---    0.09422   0.09758   0.10265   0.10812   0.11536
     Eigenvalues ---    0.11624   0.12138   0.13159   0.13352   0.14014
     Eigenvalues ---    0.14121   0.14339   0.14550   0.15740   0.16000
     Eigenvalues ---    0.16000   0.16467   0.17055   0.21322   0.24756
     Eigenvalues ---    0.24927   0.25640   0.25680
 RFO step:  Lambda=-5.79731900D-03 EMin= 2.30000000D-03
 Linear search not attempted -- first point.
 Iteration  1 RMS(Cart)=  0.02854100 RMS(Int)=  0.00058919
 Iteration  2 RMS(Cart)=  0.00058076 RMS(Int)=  0.00031102
 Iteration  3 RMS(Cart)=  0.00000012 RMS(Int)=  0.00031102
 Variable       Old X    -DE/DX   Delta X   Delta X   Delta X     New X
                                 (Linear)    (Quad)   (Total)
    R1        4.69248  -0.00104   0.00000  -0.00510  -0.00533   4.68715
    R2        4.35219   0.00279   0.00000   0.01786   0.01796   4.37015
    R3        4.57998  -0.00027   0.00000  -0.00265  -0.00272   4.57726
    R4        4.41171   0.00370   0.00000   0.02479   0.02479   4.43650
    R5        5.09027  -0.00129   0.00000  -0.01927  -0.01990   5.07036
    R6        5.07959  -0.01357   0.00000  -0.14155  -0.14133   4.93826
    R7        2.56895   0.00280   0.00000   0.01100   0.01100   2.57994
    R8        4.60325   0.00113   0.00000   0.00571   0.00602   4.60927
    R9        4.38699  -0.00158   0.00000  -0.01388  -0.01363   4.37336
   R10        4.53663   0.00110   0.00000   0.02133   0.02109   4.55772
   R11        4.42739  -0.00099   0.00000  -0.01317  -0.01281   4.41458
   R12        2.55010  -0.00069   0.00000  -0.00262  -0.00262   2.54748
   R13        4.47835  -0.00176   0.00000  -0.01281  -0.01281   4.46554
   R14        4.64079   0.00119   0.00000   0.01568   0.01542   4.65622
   R15        4.84394  -0.01106   0.00000  -0.09645  -0.09644   4.74750
   R16        2.55107   0.00052   0.00000   0.00197   0.00197   2.55304
   R17        2.57332   0.00135   0.00000   0.00533   0.00533   2.57866
   R18        4.70611  -0.00010   0.00000  -0.00227  -0.00201   4.70410
    A1        1.82534   0.00268   0.00000   0.00889   0.00873   1.83407
    A2        1.81353   0.00279   0.00000   0.03208   0.03181   1.84534
    A3        2.20033  -0.00290   0.00000  -0.01847  -0.01907   2.18125
    A4        1.82919   0.00125   0.00000   0.00875   0.00862   1.83781
    A5        1.90315  -0.00087   0.00000  -0.00147  -0.00179   1.90135
    A6        2.09548  -0.00189   0.00000  -0.01681  -0.01683   2.07864
    A7        1.67627   0.00058   0.00000   0.00668   0.00622   1.68249
    A8        1.56012   0.00111   0.00000   0.01097   0.01117   1.57129
    A9        2.17729   0.00274   0.00000   0.02549   0.02531   2.20260
   A10        2.38492   0.00199   0.00000   0.02014   0.02037   2.40528
   A11        1.84181   0.00013   0.00000   0.00737   0.00693   1.84875
   A12        1.94929   0.00141   0.00000  -0.00824  -0.00800   1.94129
   A13        1.90568  -0.00396   0.00000  -0.02388  -0.02388   1.88180
   A14        2.60064   0.00059   0.00000   0.00632   0.00626   2.60690
   A15        2.03521   0.00011   0.00000  -0.00500  -0.00524   2.02997
   A16        1.90610   0.00005   0.00000   0.00080   0.00046   1.90656
   A17        2.06820  -0.00197   0.00000  -0.00832  -0.00841   2.05978
   A18        2.03679   0.00312   0.00000   0.02021   0.02029   2.05708
   A19        1.72884   0.00098   0.00000   0.00264   0.00231   1.73116
   A20        1.97384  -0.00070   0.00000  -0.01121  -0.01093   1.96291
   A21        1.81522   0.00071   0.00000   0.00370   0.00325   1.81847
   A22        1.63832  -0.00081   0.00000  -0.00328  -0.00310   1.63522
   A23        2.46994   0.00126   0.00000   0.00876   0.00904   2.47898
   A24        1.82880  -0.00091   0.00000  -0.00549  -0.00549   1.82331
   A25        1.87978   0.00057   0.00000   0.00046   0.00073   1.88050
   A26        1.85833   0.00207   0.00000   0.01217   0.01220   1.87053
   A27        2.01763   0.00457   0.00000   0.04115   0.04160   2.05923
   A28        1.88339   0.00256   0.00000   0.03442   0.03388   1.91726
   A29        1.92538   0.00376   0.00000   0.03040   0.03038   1.95576
   A30        2.24783   0.00225   0.00000   0.00405   0.00299   2.25082
   A31        1.82696   0.00167   0.00000   0.01853   0.01790   1.84486
    D1        2.88444  -0.00044   0.00000   0.00965   0.00978   2.89422
    D2       -1.40359   0.00075   0.00000   0.02425   0.02454  -1.37905
    D3        0.33474   0.00327   0.00000   0.05656   0.05598   0.39073
    D4       -2.40901  -0.00031   0.00000   0.01005   0.01029  -2.39871
    D5       -1.75109  -0.00231   0.00000  -0.02786  -0.02713  -1.77822
    D6        2.06420   0.00066   0.00000   0.01823   0.01762   2.08182
    D7        0.11351   0.00142   0.00000   0.01685   0.01665   0.13016
    D8        0.91715   0.00125   0.00000   0.02096   0.02127   0.93842
    D9       -0.41777  -0.00083   0.00000  -0.00495  -0.00518  -0.42295
   D10        3.07168   0.00059   0.00000   0.00430   0.00430   3.07598
   D11        0.12811   0.00183   0.00000   0.02681   0.02690   0.15501
   D12        0.32111  -0.00127   0.00000  -0.02849  -0.02891   0.29220
   D13       -2.62246  -0.00003   0.00000  -0.00598  -0.00632  -2.62877
   D14       -0.30952   0.00184   0.00000   0.01582   0.01574  -0.29379
   D15        2.26951   0.00232   0.00000   0.02808   0.02810   2.29761
   D16        1.21433  -0.00358   0.00000  -0.01102  -0.01157   1.20276
   D17        2.29833  -0.00025   0.00000   0.02425   0.02476   2.32309
   D18       -2.85282   0.00462   0.00000   0.06632   0.06671  -2.78611
   D19        1.32174  -0.00289   0.00000  -0.02973  -0.02978   1.29196
   D20       -2.79642   0.00001   0.00000  -0.03005  -0.03006  -2.82647
   D21        2.32009   0.00130   0.00000  -0.03183  -0.03184   2.28826
   D22       -1.69969  -0.00134   0.00000  -0.05085  -0.05069  -1.75039
   D23        0.16795  -0.00108   0.00000  -0.05055  -0.05069   0.11726
   D24       -0.57918  -0.00064   0.00000  -0.05423  -0.05422  -0.63340
   D25        2.15229  -0.00067   0.00000  -0.00992  -0.00994   2.14235
   D26       -3.06406   0.00140   0.00000   0.00387   0.00371  -3.06035
   D27        1.11889  -0.00099   0.00000  -0.01162  -0.01147   1.10742
   D28       -0.88758  -0.00015   0.00000   0.00043   0.00032  -0.88726
   D29        0.14088  -0.00211   0.00000  -0.03093  -0.03119   0.10970
   D30        3.06728  -0.00067   0.00000  -0.01220  -0.01235   3.05493
   D31       -2.18424   0.00100   0.00000   0.00770   0.00760  -2.17664
   D32        2.91209  -0.00438   0.00000  -0.04286  -0.04292   2.86917
   D33       -1.13363   0.00396   0.00000   0.03909   0.03955  -1.09408
         Item               Value     Threshold  Converged?
 Maximum Force            0.013573     0.000450     NO 
 RMS     Force            0.002733     0.000300     NO 
 Maximum Displacement     0.099911     0.001800     NO 
 RMS     Displacement     0.028464     0.001200     NO 
 Predicted change in Energy=-3.108405D-03
 GradGradGradGradGradGradGradGradGradGradGradGradGradGradGradGradGradGrad

                          Input orientation:                          
 ---------------------------------------------------------------------
 Center     Atomic      Atomic             Coordinates (Angstroms)
 Number     Number       Type             X           Y           Z
 ---------------------------------------------------------------------
      1         42           0        0.075228    1.987541   11.128083
      2         16           0        0.851950    4.315569   10.768870
      3         16           0       -1.694310    2.164828   12.606379
      4         16           0       -0.764138    1.237060    8.983509
      5         16           0        1.473095    0.104761   11.241146
      6          1           0        1.398880   -0.535816   10.057321
      7         42           0       -2.521184    1.995159   10.451525
      8         16           0       -4.541413    0.812841   10.127710
      9          1           0       -5.295754    1.635622    9.366639
     10         16           0       -3.363579    4.046003    9.376571
     11          1           0       -3.891439    3.695405    8.168066
     12          1           0        2.074013    4.214346   10.168690
     13         42           0       -0.926314    3.547745    9.286463
 ---------------------------------------------------------------------
                    Distance matrix (angstroms):
                    1          2          3          4          5
     1  Mo   0.000000
     2  S    2.480332   0.000000
     3  S    2.312586   3.805990   0.000000
     4  S    2.422179   3.908513   3.853720   0.000000
     5  S    2.347695   4.282495   4.017485   3.374053   0.000000
     6  H    3.043997   4.933697   4.833115   2.995799   1.348068
     7  Mo   2.683121   4.106463   2.314283   2.411844   4.489027
     8  S    4.867652   6.462859   4.009697   3.969504   6.157550
     9  H    5.663389   6.851469   4.873025   4.565215   7.188506
    10  S    4.373837   4.447678   4.093523   3.847304   6.511792
    11  H    5.235737   5.445046   5.183499   4.060594   7.149459
    12  H    3.142330   1.365247   4.933873   4.280653   4.289516
    13  Mo   2.613214   2.439120   3.677515   2.336097   4.629480
                    6          7          8          9         10
     6  H    0.000000
     7  Mo   4.682748   0.000000
     8  S    6.091873   2.363061   0.000000
     9  H    7.071797   3.000747   1.351009   0.000000
    10  S    6.643606   2.463963   3.522050   3.089229   0.000000
    11  H    7.032780   3.159529   3.545680   2.766114   1.364566
    12  H    4.799193   5.110834   7.438802   7.848986   5.497563
    13  Mo   4.761956   2.512270   4.610459   4.770183   2.489305
                   11         12         13
    11  H    0.000000
    12  H    6.313352   0.000000
    13  Mo   3.172473   3.197600   0.000000
 Symmetry turned off by external request.
 Stoichiometry    H4Mo3S6
 Framework group  C1[X(H4Mo3S6)]
 Deg. of freedom    33
 Full point group                 C1      NOp   1
 Rotational constants (GHZ):           0.4669382           0.3115897           0.2416943
 Basis read from rwf:  (5D, 7F)
 Pseudo-potential data read from rwf file.
   194 basis functions,   487 primitive gaussians,   206 cartesian basis functions
    71 alpha electrons       71 beta electrons
       nuclear repulsion energy      1417.3602395469 Hartrees.
 NAtoms=   13 NActive=   13 NUniq=   13 SFac= 1.00D+00 NAtFMM=   60 NAOKFM=F Big=F
 Integral buffers will be    131072 words long.
 Raffenetti 2 integral format.
 Two-electron integral symmetry is turned off.
 One-electron integrals computed using PRISM.
   1 Symmetry operations used in ECPInt.
 ECPInt:  NShTT=    2211 NPrTT=   15300 LenC2=    2087 LenP2D=   10629.
 LDataN:  DoStor=T MaxTD1= 5 Len=  102
 NBasis=   194 RedAO= T EigKep=  1.38D-03  NBF=   194
 NBsUse=   194 1.00D-06 EigRej= -1.00D+00 NBFU=   194
 Defaulting to unpruned grid for atomic number  42.
 Defaulting to unpruned grid for atomic number  42.
 Defaulting to unpruned grid for atomic number  42.
 Initial guess from the checkpoint file:  "Mo3.chk"
 B after Tr=     0.018130   -0.006103   -0.000936
         Rot=    1.000000   -0.000437    0.000679    0.000096 Ang=  -0.09 deg.
 ExpMin= 2.47D-02 ExpMax= 2.19D+04 ExpMxC= 3.30D+03 IAcc=3 IRadAn=         5 AccDes= 0.00D+00
 Harris functional with IExCor=  402 and IRadAn=       5 diagonalized for initial guess.
 HarFok:  IExCor=  402 AccDes= 0.00D+00 IRadAn=         5 IDoV= 1 UseB2=F ITyADJ=14
 ICtDFT=  3500011 ScaDFX=  1.000000  1.000000  1.000000  1.000000
 Defaulting to unpruned grid for atomic number  42.
 FoFCou: FMM=F IPFlag=           0 FMFlag=      100000 FMFlg1=           0
         NFxFlg=           0 DoJE=T BraDBF=F KetDBF=T FulRan=T
         wScrn=  0.000000 ICntrl=       500 IOpCl=  0 I1Cent=   200000004 NGrid=           0
         NMat0=    1 NMatS0=      1 NMatT0=    0 NMatD0=    1 NMtDS0=    0 NMtDT0=    0
 Symmetry not used in FoFCou.
 Requested convergence on RMS density matrix=1.00D-08 within 128 cycles.
 Requested convergence on MAX density matrix=1.00D-06.
 Requested convergence on             energy=1.00D-06.
 No special actions if energy rises.
 Defaulting to unpruned grid for atomic number  42.
 Defaulting to unpruned grid for atomic number  42.
 Defaulting to unpruned grid for atomic number  42.
 Defaulting to unpruned grid for atomic number  42.
 Defaulting to unpruned grid for atomic number  42.
 Defaulting to unpruned grid for atomic number  42.
 Defaulting to unpruned grid for atomic number  42.
 Defaulting to unpruned grid for atomic number  42.
 Defaulting to unpruned grid for atomic number  42.
 Defaulting to unpruned grid for atomic number  42.
 Defaulting to unpruned grid for atomic number  42.
 Defaulting to unpruned grid for atomic number  42.
 Defaulting to unpruned grid for atomic number  42.
 Defaulting to unpruned grid for atomic number  42.
 Defaulting to unpruned grid for atomic number  42.
 Defaulting to unpruned grid for atomic number  42.
 Defaulting to unpruned grid for atomic number  42.
 Defaulting to unpruned grid for atomic number  42.
 Defaulting to unpruned grid for atomic number  42.
 Defaulting to unpruned grid for atomic number  42.
 Defaulting to unpruned grid for atomic number  42.
 Defaulting to unpruned grid for atomic number  42.
 Defaulting to unpruned grid for atomic number  42.
 Defaulting to unpruned grid for atomic number  42.
 Defaulting to unpruned grid for atomic number  42.
 Defaulting to unpruned grid for atomic number  42.
 Defaulting to unpruned grid for atomic number  42.
 Defaulting to unpruned grid for atomic number  42.
 Defaulting to unpruned grid for atomic number  42.
 Defaulting to unpruned grid for atomic number  42.
 Defaulting to unpruned grid for atomic number  42.
 Defaulting to unpruned grid for atomic number  42.
 Defaulting to unpruned grid for atomic number  42.
 Defaulting to unpruned grid for atomic number  42.
 Defaulting to unpruned grid for atomic number  42.
 Defaulting to unpruned grid for atomic number  42.
 Defaulting to unpruned grid for atomic number  42.
 Defaulting to unpruned grid for atomic number  42.
 Defaulting to unpruned grid for atomic number  42.
 Defaulting to unpruned grid for atomic number  42.
 Defaulting to unpruned grid for atomic number  42.
 Defaulting to unpruned grid for atomic number  42.
 Defaulting to unpruned grid for atomic number  42.
 Defaulting to unpruned grid for atomic number  42.
 Defaulting to unpruned grid for atomic number  42.
 Defaulting to unpruned grid for atomic number  42.
 Defaulting to unpruned grid for atomic number  42.
 Defaulting to unpruned grid for atomic number  42.
 EnCoef did     2 forward-backward iterations
 SCF Done:  E(RB3LYP) =  -2594.34405869     A.U. after   19 cycles
            NFock= 19  Conv=0.84D-08     -V/T= 2.0573
   1 Symmetry operations used in ECPInt.
 ECPInt:  NShTT=    2211 NPrTT=   15300 LenC2=    2087 LenP2D=   10629.
 LDataN:  DoStor=T MaxTD1= 6 Len=  172
 Calling FoFJK, ICntrl=      2127 FMM=F ISym2X=0 I1Cent= 0 IOpClX= 0 NMat=1 NMatS=1 NMatT=0.
 Defaulting to unpruned grid for atomic number  42.
 Defaulting to unpruned grid for atomic number  42.
 Defaulting to unpruned grid for atomic number  42.
 Defaulting to unpruned grid for atomic number  42.
 Defaulting to unpruned grid for atomic number  42.
 Defaulting to unpruned grid for atomic number  42.
 Defaulting to unpruned grid for atomic number  42.
 Defaulting to unpruned grid for atomic number  42.
 Defaulting to unpruned grid for atomic number  42.
 Defaulting to unpruned grid for atomic number  42.
 Defaulting to unpruned grid for atomic number  42.
 Defaulting to unpruned grid for atomic number  42.
 Defaulting to unpruned grid for atomic number  42.
 Defaulting to unpruned grid for atomic number  42.
 Defaulting to unpruned grid for atomic number  42.
 Defaulting to unpruned grid for atomic number  42.
 Defaulting to unpruned grid for atomic number  42.
 Defaulting to unpruned grid for atomic number  42.
 Defaulting to unpruned grid for atomic number  42.
 Defaulting to unpruned grid for atomic number  42.
 Defaulting to unpruned grid for atomic number  42.
 Defaulting to unpruned grid for atomic number  42.
 Defaulting to unpruned grid for atomic number  42.
 Defaulting to unpruned grid for atomic number  42.
 Defaulting to unpruned grid for atomic number  42.
 Defaulting to unpruned grid for atomic number  42.
 Defaulting to unpruned grid for atomic number  42.
 Defaulting to unpruned grid for atomic number  42.
 Defaulting to unpruned grid for atomic number  42.
 Defaulting to unpruned grid for atomic number  42.
 Defaulting to unpruned grid for atomic number  42.
 Defaulting to unpruned grid for atomic number  42.
 Defaulting to unpruned grid for atomic number  42.
 Defaulting to unpruned grid for atomic number  42.
 Defaulting to unpruned grid for atomic number  42.
 Defaulting to unpruned grid for atomic number  42.
 Defaulting to unpruned grid for atomic number  42.
 Defaulting to unpruned grid for atomic number  42.
 Defaulting to unpruned grid for atomic number  42.
 Defaulting to unpruned grid for atomic number  42.
 Defaulting to unpruned grid for atomic number  42.
 Defaulting to unpruned grid for atomic number  42.
 Defaulting to unpruned grid for atomic number  42.
 Defaulting to unpruned grid for atomic number  42.
 Defaulting to unpruned grid for atomic number  42.
 Defaulting to unpruned grid for atomic number  42.
 Defaulting to unpruned grid for atomic number  42.
 Defaulting to unpruned grid for atomic number  42.
 -------------------------------------------------------------------
 Center     Atomic                   Forces (Hartrees/Bohr)
 Number     Number              X              Y              Z
 -------------------------------------------------------------------
      1       42          -0.006244667    0.007694771   -0.014322929
      2       16           0.004681499    0.000094726    0.001845458
      3       16          -0.002794305   -0.002731689    0.001535649
      4       16          -0.000419313   -0.002820596   -0.001355328
      5       16           0.004617482   -0.001524016    0.003203607
      6        1          -0.000592881    0.000862212   -0.000145701
      7       42           0.003244488    0.003871954    0.001753714
      8       16          -0.000219147   -0.000259401   -0.000383751
      9        1          -0.000105879    0.000108713    0.000314284
     10       16           0.000372617    0.001913177   -0.004849672
     11        1          -0.000572709    0.000155758    0.000685182
     12        1          -0.000382719    0.001089598   -0.001035122
     13       42          -0.001584465   -0.008455206    0.012754609
 -------------------------------------------------------------------
 Cartesian Forces:  Max     0.014322929 RMS     0.004198619

 GradGradGradGradGradGradGradGradGradGradGradGradGradGradGradGradGradGrad
 Berny optimization.
 Using GEDIIS/GDIIS optimizer.
 FormGI is forming the generalized inverse of G from B-inverse, IUseBI=4.
 Internal  Forces:  Max     0.008117480 RMS     0.001865872
 Search for a local minimum.
 Step number   2 out of a maximum of   92
 All quantities printed in internal units (Hartrees-Bohrs-Radians)
 Mixed Optimization -- RFO/linear search
 Update second derivatives using D2CorX and points    1    2
 DE= -4.73D-03 DEPred=-3.11D-03 R= 1.52D+00
 TightC=F SS=  1.41D+00  RLast= 2.65D-01 DXNew= 5.0454D-01 7.9458D-01
 Trust test= 1.52D+00 RLast= 2.65D-01 DXMaxT set to 5.05D-01
 ITU=  1  0
 Use linear search instead of GDIIS.
     Eigenvalues ---    0.00230   0.00235   0.01593   0.01656   0.03013
     Eigenvalues ---    0.03315   0.04342   0.04518   0.07549   0.08960
     Eigenvalues ---    0.09295   0.09568   0.10230   0.10765   0.11436
     Eigenvalues ---    0.11684   0.12123   0.13176   0.13484   0.13932
     Eigenvalues ---    0.14087   0.14273   0.14745   0.15825   0.15933
     Eigenvalues ---    0.16108   0.16275   0.16958   0.21212   0.24799
     Eigenvalues ---    0.25329   0.25661   0.25701
 RFO step:  Lambda=-2.15914367D-03 EMin= 2.29973901D-03
 Quartic linear search produced a step of  1.13559.
 Iteration  1 RMS(Cart)=  0.04913934 RMS(Int)=  0.00243793
 Iteration  2 RMS(Cart)=  0.00250524 RMS(Int)=  0.00139345
 Iteration  3 RMS(Cart)=  0.00000254 RMS(Int)=  0.00139345
 Iteration  4 RMS(Cart)=  0.00000000 RMS(Int)=  0.00139345
 Variable       Old X    -DE/DX   Delta X   Delta X   Delta X     New X
                                 (Linear)    (Quad)   (Total)
    R1        4.68715  -0.00028  -0.00606   0.00752   0.00032   4.68747
    R2        4.37015   0.00299   0.02040   0.02752   0.04844   4.41859
    R3        4.57726   0.00008  -0.00309  -0.00141  -0.00418   4.57308
    R4        4.43650   0.00307   0.02815   0.02358   0.05173   4.48823
    R5        5.07036  -0.00013  -0.02260   0.00276  -0.02233   5.04804
    R6        4.93826  -0.00812  -0.16050  -0.05167  -0.21126   4.72700
    R7        2.57994   0.00003   0.01249  -0.00869   0.00380   2.58374
    R8        4.60927   0.00201   0.00683   0.02138   0.02969   4.63896
    R9        4.37336  -0.00075  -0.01548  -0.00196  -0.01648   4.35688
   R10        4.55772   0.00048   0.02395   0.00695   0.03012   4.58784
   R11        4.41458   0.00187  -0.01455   0.03560   0.02187   4.43645
   R12        2.54748  -0.00025  -0.00297   0.00006  -0.00291   2.54457
   R13        4.46554   0.00036  -0.01455   0.01709   0.00254   4.46808
   R14        4.65622   0.00169   0.01751   0.02848   0.04488   4.70110
   R15        4.74750  -0.00426  -0.10951   0.00162  -0.10809   4.63941
   R16        2.55304  -0.00005   0.00223  -0.00203   0.00020   2.55324
   R17        2.57866  -0.00042   0.00606  -0.00798  -0.00193   2.57673
   R18        4.70410  -0.00025  -0.00228  -0.00554  -0.00677   4.69733
    A1        1.83407   0.00336   0.00992   0.01811   0.02681   1.86088
    A2        1.84534   0.00223   0.03612   0.02429   0.05985   1.90518
    A3        2.18125  -0.00372  -0.02166  -0.03548  -0.05900   2.12225
    A4        1.83781   0.00181   0.00978   0.01526   0.02458   1.86239
    A5        1.90135  -0.00119  -0.00204  -0.00809  -0.01184   1.88952
    A6        2.07864  -0.00159  -0.01912  -0.00636  -0.02565   2.05299
    A7        1.68249   0.00098   0.00706   0.00998   0.01533   1.69782
    A8        1.57129   0.00136   0.01268   0.01599   0.02927   1.60055
    A9        2.20260   0.00259   0.02874   0.02876   0.05614   2.25874
   A10        2.40528   0.00158   0.02313   0.01318   0.03608   2.44136
   A11        1.84875   0.00100   0.00787   0.02199   0.02738   1.87613
   A12        1.94129   0.00140  -0.00908  -0.00816  -0.01631   1.92498
   A13        1.88180  -0.00261  -0.02712  -0.01394  -0.04106   1.84074
   A14        2.60690   0.00099   0.00711   0.00980   0.01651   2.62341
   A15        2.02997  -0.00045  -0.00595  -0.00972  -0.01675   2.01322
   A16        1.90656  -0.00015   0.00052  -0.00163  -0.00271   1.90385
   A17        2.05978  -0.00161  -0.00956  -0.00588  -0.01584   2.04394
   A18        2.05708   0.00311   0.02304   0.02368   0.04704   2.10413
   A19        1.73116   0.00091   0.00262   0.00343   0.00498   1.73614
   A20        1.96291  -0.00024  -0.01241  -0.00412  -0.01550   1.94741
   A21        1.81847  -0.00022   0.00369  -0.00913  -0.00688   1.81159
   A22        1.63522  -0.00068  -0.00352  -0.00277  -0.00545   1.62977
   A23        2.47898   0.00081   0.01026   0.00307   0.01435   2.49333
   A24        1.82331   0.00002  -0.00624   0.00492  -0.00132   1.82199
   A25        1.88050   0.00072   0.00082  -0.00560  -0.00366   1.87684
   A26        1.87053   0.00193   0.01385   0.01961   0.03329   1.90382
   A27        2.05923   0.00297   0.04724   0.02041   0.06903   2.12826
   A28        1.91726   0.00112   0.03847   0.01015   0.04628   1.96355
   A29        1.95576   0.00265   0.03450   0.01308   0.04688   2.00264
   A30        2.25082   0.00278   0.00340   0.01908   0.01855   2.26937
   A31        1.84486  -0.00006   0.02033  -0.00769   0.01018   1.85505
    D1        2.89422  -0.00023   0.01110   0.01759   0.02913   2.92335
    D2       -1.37905   0.00087   0.02787   0.02686   0.05666  -1.32239
    D3        0.39073   0.00275   0.06358   0.05105   0.11107   0.50180
    D4       -2.39871   0.00011   0.01169   0.01931   0.03205  -2.36667
    D5       -1.77822  -0.00135  -0.03081  -0.02439  -0.05094  -1.82915
    D6        2.08182   0.00060   0.02001   0.00771   0.02465   2.10647
    D7        0.13016   0.00152   0.01890   0.00898   0.02713   0.15729
    D8        0.93842   0.00127   0.02415   0.00708   0.03303   0.97145
    D9       -0.42295  -0.00188  -0.00588  -0.03611  -0.04423  -0.46718
   D10        3.07598  -0.00000   0.00489  -0.00201   0.00345   3.07943
   D11        0.15501   0.00157   0.03055   0.02614   0.05720   0.21221
   D12        0.29220  -0.00100  -0.03283  -0.01717  -0.05240   0.23980
   D13       -2.62877   0.00057  -0.00717   0.01099   0.00136  -2.62741
   D14       -0.29379   0.00095   0.01787  -0.00173   0.01487  -0.27892
   D15        2.29761   0.00239   0.03191   0.03175   0.06391   2.36152
   D16        1.20276  -0.00164  -0.01314   0.02365   0.00908   1.21185
   D17        2.32309  -0.00023   0.02812   0.02647   0.05599   2.37907
   D18       -2.78611   0.00315   0.07576   0.04715   0.12510  -2.66101
   D19        1.29196  -0.00234  -0.03382  -0.01975  -0.05343   1.23853
   D20       -2.82647   0.00001  -0.03413   0.14541   0.11120  -2.71527
   D21        2.28826   0.00116  -0.03615   0.14360   0.10751   2.39577
   D22       -1.75039  -0.00084  -0.05757   0.13141   0.07405  -1.67633
   D23        0.11726  -0.00144  -0.05757   0.11931   0.06125   0.17851
   D24       -0.63340   0.00025  -0.06158   0.13852   0.07722  -0.55617
   D25        2.14235  -0.00065  -0.01129   0.00093  -0.00985   2.13250
   D26       -3.06035   0.00100   0.00421   0.01175   0.01492  -3.04543
   D27        1.10742  -0.00055  -0.01303   0.00630  -0.00605   1.10137
   D28       -0.88726  -0.00005   0.00036   0.01316   0.01301  -0.87425
   D29        0.10970  -0.00092  -0.03542  -0.00901  -0.04535   0.06435
   D30        3.05493  -0.00031  -0.01402  -0.00522  -0.01994   3.03499
   D31       -2.17664   0.00128   0.00863   0.03073   0.04031  -2.13632
   D32        2.86917  -0.00254  -0.04874   0.00331  -0.04602   2.82316
   D33       -1.09408   0.00247   0.04491   0.03190   0.07755  -1.01653
         Item               Value     Threshold  Converged?
 Maximum Force            0.008117     0.000450     NO 
 RMS     Force            0.001866     0.000300     NO 
 Maximum Displacement     0.140412     0.001800     NO 
 RMS     Displacement     0.048762     0.001200     NO 
 Predicted change in Energy=-3.746432D-03
 GradGradGradGradGradGradGradGradGradGradGradGradGradGradGradGradGradGrad

                          Input orientation:                          
 ---------------------------------------------------------------------
 Center     Atomic      Atomic             Coordinates (Angstroms)
 Number     Number       Type             X           Y           Z
 ---------------------------------------------------------------------
      1         42           0        0.053803    1.980661   11.087546
      2         16           0        0.880365    4.300259   10.788966
      3         16           0       -1.709190    2.090885   12.619529
      4         16           0       -0.821349    1.172089    8.981228
      5         16           0        1.545444    0.140077   11.255538
      6          1           0        1.473183   -0.490249   10.067846
      7         42           0       -2.545654    2.006586   10.472707
      8         16           0       -4.593417    0.867209   10.158220
      9          1           0       -5.292678    1.659453    9.316257
     10         16           0       -3.353543    4.073271    9.348051
     11          1           0       -3.898616    3.704788    8.153743
     12          1           0        2.074641    4.229029   10.127132
     13         42           0       -0.937956    3.487004    9.354209
 ---------------------------------------------------------------------
                    Distance matrix (angstroms):
                    1          2          3          4          5
     1  Mo   0.000000
     2  S    2.480502   0.000000
     3  S    2.338218   3.864983   0.000000
     4  S    2.419970   3.993645   3.856122   0.000000
     5  S    2.375071   4.238765   4.032216   3.440820   0.000000
     6  H    3.026519   4.880616   4.827093   3.034630   1.346530
     7  Mo   2.671306   4.135041   2.305563   2.427781   4.564401
     8  S    4.868272   6.491993   3.984243   3.963175   6.278411
     9  H    5.641409   6.873805   4.892762   4.510272   7.268372
    10  S    4.360604   4.478141   4.163690   3.868258   6.565713
    11  H    5.215499   5.489777   5.228911   4.070487   7.208750
    12  H    3.171962   1.367257   5.010098   4.364028   4.274679
    13  Mo   2.501422   2.454833   3.634042   2.347668   4.580856
                    6          7          8          9         10
     6  H    0.000000
     7  Mo   4.748594   0.000000
     8  S    6.217274   2.364406   0.000000
     9  H    7.138836   3.000670   1.351117   0.000000
    10  S    6.681399   2.487714   3.531642   3.096413   0.000000
    11  H    7.079431   3.176789   3.542955   2.734638   1.363545
    12  H    4.757820   5.138658   7.467650   7.844592   5.486019
    13  Mo   4.705466   2.455070   4.568606   4.722816   2.485721
                   11         12         13
    11  H    0.000000
    12  H    6.312598   0.000000
    13  Mo   3.202196   3.197460   0.000000
 Symmetry turned off by external request.
 Stoichiometry    H4Mo3S6
 Framework group  C1[X(H4Mo3S6)]
 Deg. of freedom    33
 Full point group                 C1      NOp   1
 Rotational constants (GHZ):           0.4801847           0.3081726           0.2418422
 Basis read from rwf:  (5D, 7F)
 Pseudo-potential data read from rwf file.
   194 basis functions,   487 primitive gaussians,   206 cartesian basis functions
    71 alpha electrons       71 beta electrons
       nuclear repulsion energy      1414.8543035486 Hartrees.
 NAtoms=   13 NActive=   13 NUniq=   13 SFac= 1.00D+00 NAtFMM=   60 NAOKFM=F Big=F
 Integral buffers will be    131072 words long.
 Raffenetti 2 integral format.
 Two-electron integral symmetry is turned off.
 One-electron integrals computed using PRISM.
   1 Symmetry operations used in ECPInt.
 ECPInt:  NShTT=    2211 NPrTT=   15300 LenC2=    2084 LenP2D=   10610.
 LDataN:  DoStor=T MaxTD1= 5 Len=  102
 NBasis=   194 RedAO= T EigKep=  1.39D-03  NBF=   194
 NBsUse=   194 1.00D-06 EigRej= -1.00D+00 NBFU=   194
 Defaulting to unpruned grid for atomic number  42.
 Defaulting to unpruned grid for atomic number  42.
 Defaulting to unpruned grid for atomic number  42.
 Initial guess from the checkpoint file:  "Mo3.chk"
 B after Tr=    -0.140611   -0.016412    0.007165
         Rot=    0.999993   -0.000520   -0.002397    0.002860 Ang=  -0.43 deg.
 ExpMin= 2.47D-02 ExpMax= 2.19D+04 ExpMxC= 3.30D+03 IAcc=3 IRadAn=         5 AccDes= 0.00D+00
 Harris functional with IExCor=  402 and IRadAn=       5 diagonalized for initial guess.
 HarFok:  IExCor=  402 AccDes= 0.00D+00 IRadAn=         5 IDoV= 1 UseB2=F ITyADJ=14
 ICtDFT=  3500011 ScaDFX=  1.000000  1.000000  1.000000  1.000000
 Defaulting to unpruned grid for atomic number  42.
 FoFCou: FMM=F IPFlag=           0 FMFlag=      100000 FMFlg1=           0
         NFxFlg=           0 DoJE=T BraDBF=F KetDBF=T FulRan=T
         wScrn=  0.000000 ICntrl=       500 IOpCl=  0 I1Cent=   200000004 NGrid=           0
         NMat0=    1 NMatS0=      1 NMatT0=    0 NMatD0=    1 NMtDS0=    0 NMtDT0=    0
 Symmetry not used in FoFCou.
 Requested convergence on RMS density matrix=1.00D-08 within 128 cycles.
 Requested convergence on MAX density matrix=1.00D-06.
 Requested convergence on             energy=1.00D-06.
 No special actions if energy rises.
 Defaulting to unpruned grid for atomic number  42.
 Defaulting to unpruned grid for atomic number  42.
 Defaulting to unpruned grid for atomic number  42.
 Defaulting to unpruned grid for atomic number  42.
 Defaulting to unpruned grid for atomic number  42.
 Defaulting to unpruned grid for atomic number  42.
 Defaulting to unpruned grid for atomic number  42.
 Defaulting to unpruned grid for atomic number  42.
 Defaulting to unpruned grid for atomic number  42.
 Defaulting to unpruned grid for atomic number  42.
 Defaulting to unpruned grid for atomic number  42.
 Defaulting to unpruned grid for atomic number  42.
 Defaulting to unpruned grid for atomic number  42.
 Defaulting to unpruned grid for atomic number  42.
 Defaulting to unpruned grid for atomic number  42.
 Defaulting to unpruned grid for atomic number  42.
 Defaulting to unpruned grid for atomic number  42.
 Defaulting to unpruned grid for atomic number  42.
 Defaulting to unpruned grid for atomic number  42.
 Defaulting to unpruned grid for atomic number  42.
 Defaulting to unpruned grid for atomic number  42.
 Defaulting to unpruned grid for atomic number  42.
 Defaulting to unpruned grid for atomic number  42.
 Defaulting to unpruned grid for atomic number  42.
 Defaulting to unpruned grid for atomic number  42.
 Defaulting to unpruned grid for atomic number  42.
 Defaulting to unpruned grid for atomic number  42.
 Defaulting to unpruned grid for atomic number  42.
 Defaulting to unpruned grid for atomic number  42.
 Defaulting to unpruned grid for atomic number  42.
 Defaulting to unpruned grid for atomic number  42.
 Defaulting to unpruned grid for atomic number  42.
 Defaulting to unpruned grid for atomic number  42.
 Defaulting to unpruned grid for atomic number  42.
 Defaulting to unpruned grid for atomic number  42.
 Defaulting to unpruned grid for atomic number  42.
 Defaulting to unpruned grid for atomic number  42.
 Defaulting to unpruned grid for atomic number  42.
 Defaulting to unpruned grid for atomic number  42.
 Defaulting to unpruned grid for atomic number  42.
 Defaulting to unpruned grid for atomic number  42.
 Defaulting to unpruned grid for atomic number  42.
 Defaulting to unpruned grid for atomic number  42.
 Defaulting to unpruned grid for atomic number  42.
 Defaulting to unpruned grid for atomic number  42.
 Defaulting to unpruned grid for atomic number  42.
 Defaulting to unpruned grid for atomic number  42.
 Defaulting to unpruned grid for atomic number  42.
 EnCoef did     2 forward-backward iterations
 SCF Done:  E(RB3LYP) =  -2594.34738682     A.U. after   19 cycles
            NFock= 19  Conv=0.47D-08     -V/T= 2.0572
   1 Symmetry operations used in ECPInt.
 ECPInt:  NShTT=    2211 NPrTT=   15300 LenC2=    2084 LenP2D=   10610.
 LDataN:  DoStor=T MaxTD1= 6 Len=  172
 Calling FoFJK, ICntrl=      2127 FMM=F ISym2X=0 I1Cent= 0 IOpClX= 0 NMat=1 NMatS=1 NMatT=0.
 Defaulting to unpruned grid for atomic number  42.
 Defaulting to unpruned grid for atomic number  42.
 Defaulting to unpruned grid for atomic number  42.
 Defaulting to unpruned grid for atomic number  42.
 Defaulting to unpruned grid for atomic number  42.
 Defaulting to unpruned grid for atomic number  42.
 Defaulting to unpruned grid for atomic number  42.
 Defaulting to unpruned grid for atomic number  42.
 Defaulting to unpruned grid for atomic number  42.
 Defaulting to unpruned grid for atomic number  42.
 Defaulting to unpruned grid for atomic number  42.
 Defaulting to unpruned grid for atomic number  42.
 Defaulting to unpruned grid for atomic number  42.
 Defaulting to unpruned grid for atomic number  42.
 Defaulting to unpruned grid for atomic number  42.
 Defaulting to unpruned grid for atomic number  42.
 Defaulting to unpruned grid for atomic number  42.
 Defaulting to unpruned grid for atomic number  42.
 Defaulting to unpruned grid for atomic number  42.
 Defaulting to unpruned grid for atomic number  42.
 Defaulting to unpruned grid for atomic number  42.
 Defaulting to unpruned grid for atomic number  42.
 Defaulting to unpruned grid for atomic number  42.
 Defaulting to unpruned grid for atomic number  42.
 Defaulting to unpruned grid for atomic number  42.
 Defaulting to unpruned grid for atomic number  42.
 Defaulting to unpruned grid for atomic number  42.
 Defaulting to unpruned grid for atomic number  42.
 Defaulting to unpruned grid for atomic number  42.
 Defaulting to unpruned grid for atomic number  42.
 Defaulting to unpruned grid for atomic number  42.
 Defaulting to unpruned grid for atomic number  42.
 Defaulting to unpruned grid for atomic number  42.
 Defaulting to unpruned grid for atomic number  42.
 Defaulting to unpruned grid for atomic number  42.
 Defaulting to unpruned grid for atomic number  42.
 Defaulting to unpruned grid for atomic number  42.
 Defaulting to unpruned grid for atomic number  42.
 Defaulting to unpruned grid for atomic number  42.
 Defaulting to unpruned grid for atomic number  42.
 Defaulting to unpruned grid for atomic number  42.
 Defaulting to unpruned grid for atomic number  42.
 Defaulting to unpruned grid for atomic number  42.
 Defaulting to unpruned grid for atomic number  42.
 Defaulting to unpruned grid for atomic number  42.
 Defaulting to unpruned grid for atomic number  42.
 Defaulting to unpruned grid for atomic number  42.
 Defaulting to unpruned grid for atomic number  42.
 -------------------------------------------------------------------
 Center     Atomic                   Forces (Hartrees/Bohr)
 Number     Number              X              Y              Z
 -------------------------------------------------------------------
      1       42          -0.001979285   -0.002381091    0.002352669
      2       16           0.005920496   -0.001825649   -0.000087350
      3       16          -0.001331842   -0.001311337    0.000309003
      4       16          -0.001868317   -0.002151529   -0.000825386
      5       16           0.003210172    0.001536767    0.000978730
      6        1          -0.000235130   -0.000105085   -0.000315842
      7       42          -0.002595269   -0.003747047    0.004730971
      8       16          -0.000278258   -0.000131147   -0.001277432
      9        1          -0.000434580    0.000236781    0.000929780
     10       16          -0.000717162   -0.000698138   -0.003116190
     11        1           0.000359542    0.000082307    0.000583764
     12        1          -0.001637395    0.000801728    0.000072497
     13       42           0.001587029    0.009693438   -0.004335213
 -------------------------------------------------------------------
 Cartesian Forces:  Max     0.009693438 RMS     0.002559464

 GradGradGradGradGradGradGradGradGradGradGradGradGradGradGradGradGradGrad
 Berny optimization.
 Using GEDIIS/GDIIS optimizer.
 FormGI is forming the generalized inverse of G from B-inverse, IUseBI=4.
 Internal  Forces:  Max     0.005023366 RMS     0.001376161
 Search for a local minimum.
 Step number   3 out of a maximum of   92
 All quantities printed in internal units (Hartrees-Bohrs-Radians)
 Mixed Optimization -- RFO/linear search
 Update second derivatives using D2CorX and points    2    3
[...]
 ! A17   A(3,7,8)               99.3201         -DE/DX =    0.0                 !
 ! A18   A(3,7,10)             137.358          -DE/DX =    0.0                 !
 ! A19   A(3,7,13)              99.2776         -DE/DX =    0.0                 !
 ! A20   A(4,7,8)              133.351          -DE/DX =    0.0                 !
 ! A21   A(4,7,10)              92.9709         -DE/DX =    0.0                 !
 ! A22   A(8,7,10)              92.2821         -DE/DX =    0.0                 !
 ! A23   A(8,7,13)             151.9319         -DE/DX =    0.0                 !
 ! A24   A(7,8,9)              102.2306         -DE/DX =    0.0                 !
 ! A25   A(7,10,11)             99.7815         -DE/DX =    0.0                 !
 ! A26   A(11,10,13)           101.6295         -DE/DX =    0.0                 !
 ! A27   A(1,13,10)            127.2295         -DE/DX =    0.0                 !
 ! A28   A(2,13,4)             106.9987         -DE/DX =    0.0                 !
 ! A29   A(2,13,7)             121.7397         -DE/DX =    0.0                 !
 ! A30   A(2,13,10)            156.146          -DE/DX =    0.0                 !
 ! A31   A(4,13,10)             94.8079         -DE/DX =    0.0                 !
 ! D1    D(3,1,2,12)           174.7063         -DE/DX =    0.0                 !
 ! D2    D(4,1,2,12)           -63.0062         -DE/DX =    0.0                 !
 ! D3    D(5,1,2,12)            40.4878         -DE/DX =    0.0                 !
 ! D4    D(7,1,2,12)          -123.4745         -DE/DX =    0.0                 !
 ! D5    D(2,1,5,6)           -166.897          -DE/DX =    0.0                 !
 ! D6    D(3,1,5,6)             63.9926         -DE/DX =    0.0                 !
 ! D7    D(4,1,5,6)            -60.0693         -DE/DX =    0.0                 !
 ! D8    D(7,1,5,6)            -18.7909         -DE/DX =    0.0                 !
 ! D9    D(13,1,5,6)          -119.4451         -DE/DX =    0.0                 !
 ! D10   D(2,1,7,8)           -145.7114         -DE/DX =    0.0                 !
 ! D11   D(2,1,7,10)            19.6668         -DE/DX =    0.0                 !
 ! D12   D(5,1,7,8)             69.6934         -DE/DX =    0.0                 !
 ! D13   D(5,1,7,10)          -124.9285         -DE/DX =    0.0                 !
 ! D14   D(3,1,13,10)          -33.1551         -DE/DX =    0.0                 !
 ! D15   D(5,1,13,10)          149.6202         -DE/DX =    0.0                 !
 ! D16   D(12,2,13,4)           58.4281         -DE/DX =    0.0                 !
 ! D17   D(12,2,13,7)          123.3039         -DE/DX =    0.0                 !
 ! D18   D(12,2,13,10)        -146.33           -DE/DX =    0.0                 !
 ! D19   D(1,4,7,13)            68.5145         -DE/DX =    0.0                 !
 ! D20   D(1,7,8,9)            166.6796         -DE/DX =    0.0                 !
 ! D21   D(3,7,8,9)            138.5536         -DE/DX =    0.0                 !
 ! D22   D(4,7,8,9)            -96.5152         -DE/DX =    0.0                 !
 ! D23   D(10,7,8,9)            -0.2602         -DE/DX =    0.0                 !
 ! D24   D(13,7,8,9)             7.6341         -DE/DX =    0.0                 !
 ! D25   D(1,7,10,11)          100.6327         -DE/DX =    0.0                 !
 ! D26   D(3,7,10,11)          167.0381         -DE/DX =    0.0                 !
 ! D27   D(4,7,10,11)           47.0801         -DE/DX =    0.0                 !
 ! D28   D(8,7,10,11)          -86.5504         -DE/DX =    0.0                 !
 ! D29   D(3,7,13,2)            12.5192         -DE/DX =    0.0                 !
 ! D30   D(8,7,13,2)           143.4466         -DE/DX =    0.0                 !
 ! D31   D(11,10,13,1)         -98.0229         -DE/DX =    0.0                 !
 ! D32   D(11,10,13,2)         161.1794         -DE/DX =    0.0                 !
 ! D33   D(11,10,13,4)         -42.518          -DE/DX =    0.0                 !
 --------------------------------------------------------------------------------
 GradGradGradGradGradGradGradGradGradGradGradGradGradGradGradGradGradGrad


 ----------------------------------------------------------------------

 Electric dipole moment (input orientation):
 (Debye = 10**-18 statcoulomb cm , SI units = C m)
                  (au)            (Debye)         (10**-30 SI)
   Tot        0.173963D+01      0.442170D+01      0.147492D+02
   x          0.194531D+00      0.494447D+00      0.164930D+01
   y          0.113567D+01      0.288658D+01      0.962859D+01
   z         -0.130336D+01     -0.331280D+01     -0.110503D+02

 Dipole polarizability, Alpha (input orientation).
 (esu units = cm**3 , SI units = C**2 m**2 J**-1)
 Alpha(0;0):
               (au)            (10**-24 esu)      (10**-40 SI)
   iso        0.241825D+03      0.358348D+02      0.398716D+02
   aniso      0.158198D+03      0.234426D+02      0.260834D+02
   xx         0.340052D+03      0.503906D+02      0.560671D+02
   yx         0.212221D+01      0.314478D+00      0.349904D+00
   yy         0.200138D+03      0.296573D+02      0.329982D+02
   zx         0.202046D+02      0.299401D+01      0.333128D+01
   zy        -0.252580D+02     -0.374285D+01     -0.416449D+01
   zz         0.185286D+03      0.274565D+02      0.305495D+02

 ----------------------------------------------------------------------

 Dipole orientation:
    42          2.00505020        -16.14530960        -13.24832319
    16          3.90658266        -19.28774463        -10.30926458
    16         -1.00814404        -17.39873378        -16.20358723
    16          0.09245255        -12.91638208        -10.63485106
    16          6.09337617        -14.48796585        -14.07677372
     1          5.47722914        -12.31007598        -15.26357134
    42         -2.98893057        -15.59679900        -12.74508245
    16         -7.01629999        -14.82817568        -14.53815857
     1         -8.58632494        -15.49908155        -12.64542997
    16         -4.89990804        -17.07752744         -8.61307643
     1         -5.15004529        -14.82392360         -7.41606269
     1          5.71988283        -18.00960500         -9.01834934
    42         -0.24291393        -17.24564013         -9.36334225

 Electric dipole moment (dipole orientation):
 (Debye = 10**-18 statcoulomb cm , SI units = C m)
                  (au)            (Debye)         (10**-30 SI)
   Tot        0.173963D+01      0.442170D+01      0.147492D+02
   x          0.000000D+00      0.000000D+00      0.000000D+00
   y          0.000000D+00      0.000000D+00      0.000000D+00
   z          0.173963D+01      0.442170D+01      0.147492D+02

 Dipole polarizability, Alpha (dipole orientation).
 (esu units = cm**3 , SI units = C**2 m**2 J**-1)
 Alpha(0;0):
               (au)            (10**-24 esu)      (10**-40 SI)
   iso        0.241825D+03      0.358348D+02      0.398716D+02
   aniso      0.158198D+03      0.234426D+02      0.260834D+02
   xx         0.342420D+03      0.507414D+02      0.564574D+02
   yx        -0.626908D+01     -0.928981D+00     -0.103363D+01
   yy         0.167874D+03      0.248763D+02      0.276786D+02
   zx         0.733434D+00      0.108684D+00      0.120927D+00
   zy        -0.123883D+02     -0.183575D+01     -0.204255D+01
   zz         0.215182D+03      0.318868D+02      0.354788D+02

 ----------------------------------------------------------------------
 Unable to Open any file for archive entry.
 1\1\GINC-NODE8-IB\Freq\RB3LYP\Gen\H4Mo3S6\CHESAGAR\25-Oct-2022\0\\#N G
 eom=AllCheck Guess=TCheck SCRF=Check GenChk RB3LYP/ChkBas Freq\\Title 
 Card Required\\0,1\Mo,-0.0870725888,1.8411333361,10.9486898697\S,1.016
 499607,4.072218404,10.9815517705\S,-1.8727438498,1.3884404951,12.37505
 5676\S,-0.865982306,1.4938397669,8.683900627\S,2.0484892152,0.80129994
 57,10.9465232874\H,1.7026384594,-0.4667807923,10.6282196883\Mo,-2.6689
 896552,1.9057291259,10.2641701216\S,-4.8740760029,1.0675971781,10.4712
 220113\H,-5.6017742275,2.0246578091,9.85968326\S,-3.4611995367,3.96802
 66045,9.0244167014\H,-3.4720188669,3.4850648385,7.7565137855\H,2.07381
 27908,3.9665552045,10.1355039067\Mo,-1.0625500386,3.6732820838,9.65552
 12946\\Version=ES64L-G16RevC.01\HF=-2594.3595655\RMSD=6.521e-09\RMSF=9
 .208e-06\ZeroPoint=0.0449115\Thermal=0.060741\ETot=-2594.2988245\HTot=
 -2594.2978803\GTot=-2594.360731\Dipole=0.1945305,1.1356679,-1.3033552\
 DipoleDeriv=0.9577101,-0.189161,-0.1106763,-0.4641807,0.5234618,-0.074
 7819,-0.1329374,0.0407419,0.2128516,-0.2339462,-0.0924303,-0.1339551,-
 0.2264085,-0.2888755,0.0225791,-0.1604379,0.0458072,-0.0748033,-0.1261
 574,0.0608393,0.0502603,-0.0827221,-0.0432884,0.1321383,0.1279657,0.10
 5096,-0.4756399,-0.0010314,-0.038091,0.051554,0.0407275,-0.1216296,-0.
 2230279,0.1278402,-0.1475346,-0.3126415,-0.8447895,0.4965186,-0.078293
 6,0.5200378,-0.2451523,0.055719,0.0395249,0.0518089,-0.1833337,-0.0428
 334,-0.0812433,-0.0320815,-0.0128521,-0.0133006,-0.0217026,-0.0022274,
 -0.0658083,0.0745402,1.0109405,0.2239192,0.0378971,0.3127358,0.2910587
 ,-0.1963124,-0.0801519,-0.3192894,0.4727706,-1.0280959,-0.3241234,0.09
 73498,-0.3969199,-0.0935457,-0.1286314,0.1798788,-0.1007312,-0.1341445
 ,0.0664108,-0.0372716,0.0097859,0.0712286,-0.0297269,0.0880743,-0.0563
 64,0.0771786,0.0690785,-0.3497132,0.0740815,-0.1114301,0.1073185,-0.21
 44362,0.1871154,-0.2038936,0.1821909,-0.1088415,0.0208726,0.0633241,0.
 0141063,0.0390538,0.0014629,-0.0720127,-0.0560721,0.0344186,-0.0393281
 ,-0.0702159,-0.0806417,0.0094827,0.0097387,0.0341718,-0.0499598,0.0583
 359,0.0093079,0.0265453,0.640849,-0.0757203,0.1960005,0.0822427,0.1997
 999,0.2808028,0.158539,0.0868136,0.4729463\Polar=340.0523202,2.1222058
 ,200.1376872,20.2045659,-25.2580304,185.2858188\Quadrupole=6.9706873,2
 8.6952328,-35.6659201,-2.5679663,7.8244839,14.863119\PG=C01 [X(H4Mo3S6
 )]\NImag=0\\0.29516507,-0.00874948,0.21524637,0.02832561,-0.05069898,0
 .20634926,-0.01440918,-0.02722043,0.00345509,0.21109491,-0.01181260,-0
 .06448358,-0.00933367,0.00268362,0.08637293,-0.00203865,0.00658122,-0.
 00501423,-0.08480063,0.02447632,0.14900611,-0.05640755,-0.01193161,0.0
 4818124,-0.00058538,-0.00145997,0.00235902,0.07972704,-0.01951145,-0.0
 1559427,0.01354068,0.00125706,0.00092869,-0.00019081,0.01193806,0.0247
 7795,0.04860542,0.01043543,-0.06527007,0.00219420,0.00237466,0.0001181
 3,-0.02878644,-0.03941086,0.17464018,-0.01292914,-0.00577429,-0.024439
 75,-0.00171669,-0.00442764,-0.00235701,0.00207784,-0.00064212,0.002422
 60,0.07049493,-0.00778826,-0.00002717,-0.01907862,0.00095703,-0.001238
 73,-0.00215498,-0.00153781,0.00211550,0.00578097,-0.01942229,0.0908987
 8,-0.02462722,-0.01325620,-0.08649813,0.00097794,-0.00005847,-0.000098
 36,0.00412907,0.00119829,-0.00278517,-0.02006583,0.05808563,0.14597937
 ,-0.08729988,0.01713237,0.00365427,0.00184887,0.00118743,0.00055175,-0
 .00148058,-0.00107789,0.00181453,-0.00243605,0.00123971,0.00084222,0.1
 1749984,0.02594024,-0.03353367,0.00186789,0.00328299,-0.00417135,-0.00
 046396,0.00270532,0.00099840,-0.00199491,-0.00035317,0.00043811,0.0014
 6983,0.02914852,0.25822129,-0.00168123,-0.00278411,-0.01455726,0.00089
 658,-0.00058995,-0.00055594,-0.00007598,-0.00111549,0.00370602,-0.0028
 0354,0.00094968,0.00284664,0.01979801,0.05800148,0.02826128,0.00159942
 ,0.01272363,0.00016768,-0.00029049,-0.00094434,0.00004164,-0.00051772,
 -0.00000352,0.00021516,0.00060773,-0.00013334,-0.00064989,-0.02711994,
 -0.06766825,-0.01804964,0.02787810,0.00225490,-0.00818822,-0.00173674,
 0.00079266,0.00005766,-0.00007263,-0.00003500,0.00022731,0.00040524,-0
 .00016638,0.00045596,0.00061603,-0.06076426,-0.22472050,-0.05500965,0.
 05794108,0.23058206,0.00057164,0.00335018,0.00353220,-0.00010681,0.000
 33976,0.00061929,-0.00126040,-0.00043916,-0.00107050,0.00030556,-0.000
 13652,-0.00141971,-0.01722263,-0.05807354,-0.02071112,0.01680909,0.056
 55469,0.01807244,-0.10229148,-0.00539231,-0.03079034,-0.00252671,0.000
 07662,-0.00254792,-0.02216980,0.01465141,-0.02524346,-0.04979475,0.019
 72665,0.03926758,0.00423559,0.00313369,0.00099396,-0.00175785,0.000307
 88,0.00033974,0.32216601,0.01814835,0.00284070,0.00056194,-0.00258359,
 0.00124126,-0.00211210,0.00181425,-0.01436790,0.01372928,0.01899273,-0
 .00306950,-0.00852410,0.00317010,-0.00053962,0.00205825,-0.00036568,0.
 00047204,-0.00162604,0.01746758,0.18861148,-0.04816220,-0.00446845,0.0
 0105144,-0.00138524,-0.00157416,0.00197667,-0.02096361,0.01619117,-0.1
 0672776,0.04486870,-0.01376336,-0.04964824,0.00082096,0.00266303,0.001
 41480,-0.00098966,0.00028787,0.00084055,0.00650017,-0.06503345,0.20431
 278,-0.00052513,-0.00560135,0.00166206,-0.00029750,-0.00004970,0.00017
 748,-0.00258300,0.00028367,-0.00357948,-0.00054104,-0.00166965,0.00008
 383,-0.00137319,0.00099033,0.00004114,-0.00015322,0.00003844,0.0002441
 2,-0.08358932,-0.02533768,0.00729926,0.17358771,-0.00414397,-0.0012872
 9,-0.00024020,-0.00008685,-0.00088581,-0.00003952,0.00101830,0.0004779
 5,-0.00322098,-0.00224956,-0.00001900,0.00167356,0.00032099,0.00127013
 ,-0.00055619,-0.00054587,-0.00000874,0.00059514,-0.01473209,-0.0354131
 8,0.01455459,-0.06503595,0.16981238,0.00434207,0.00084556,0.00100621,0
 .00014369,0.00040879,-0.00011052,-0.00200120,0.00010507,0.00115439,-0.
 00115058,-0.00008030,0.00123559,-0.00034043,-0.00098630,-0.00036758,0.
 00045211,-0.00009558,-0.00007706,0.00011912,0.01107387,-0.01244806,0.0
 5572180,-0.09625770,0.06367753,0.00208626,0.00017062,0.00040221,0.0000
 9793,0.00029355,-0.00002437,0.00023523,0.00019285,0.00055003,0.0002527
 9,-0.00013303,-0.00012437,-0.00026832,-0.00029329,0.00005598,0.0001529
 0,-0.00001920,-0.00008681,-0.01323707,0.00753049,-0.00556162,-0.076393
 80,0.09143302,-0.05988091,0.08640935,0.00025535,-0.00083902,0.00063077
 ,-0.00014650,0.00019854,-0.00016833,-0.00025151,0.00029559,0.00038482,
 0.00010043,0.00011839,0.00023943,-0.00017359,-0.00005532,0.00011184,0.
 00007464,0.00000465,-0.00008926,-0.00265927,0.00493898,-0.00198759,0.1
 0003313,-0.14149559,0.08612296,-0.09554326,0.13942561,-0.00102929,-0.0
 0007850,0.00007689,-0.00013123,-0.00009910,-0.00002525,-0.00108692,-0.
 00037671,0.00064399,0.00011063,0.00001682,0.00032005,0.00025881,0.0003
 8965,0.00019917,-0.00017953,0.00005531,-0.00008490,0.00049072,-0.00026
 765,0.00061077,-0.06286533,0.08462462,-0.05780875,0.06244707,-0.084855
 36,0.05859969,-0.00297711,0.00499610,-0.00489244,-0.00188448,-0.000691
 94,-0.00134538,0.00063446,-0.00034316,-0.00073964,-0.00170801,0.001460
 38,-0.00117343,-0.00004855,0.00053870,0.00033102,-0.00022566,0.0000683
 3,0.00008572,-0.01305078,0.01280552,-0.00783992,0.00058105,-0.00421897
 ,0.00322814,0.00111051,-0.00073086,0.00016601,0.09095232,-0.00124770,0
 .00068202,0.00106995,0.00056092,0.00156273,0.00131968,0.00281308,0.001
 83225,0.00566075,0.00249488,-0.00273737,0.00151210,-0.00022812,-0.0007
 1084,0.00022355,0.00024680,0.00005660,-0.00026407,0.01444138,-0.051345
 92,0.00571243,-0.00083544,-0.00073645,0.00152423,-0.00103450,-0.001744
 72,-0.00008160,-0.02177248,0.10267731,-0.00149216,0.00009801,0.0005000
 6,-0.00189733,-0.00000053,0.00334550,-0.00135635,-0.00088610,-0.000579
 57,0.00154077,-0.00213716,0.00046366,-0.00055222,0.00017914,-0.0002009
 5,0.00006458,-0.00000258,-0.00004095,-0.00038040,0.02381287,-0.0147916
 5,0.00013910,0.00071613,0.00120312,0.00122555,0.00038496,-0.00082040,0
 .01565966,0.06613645,0.23974946,-0.00052074,0.00033212,0.00074995,-0.0
 0055085,0.00059243,0.00144498,-0.00013760,-0.00067526,0.00032453,0.000
 26983,-0.00076924,0.00036789,-0.00033770,-0.00014515,-0.00006066,0.000
 09374,-0.00000540,-0.00005588,0.00011861,0.00171860,-0.00125475,-0.000
 10586,-0.00050411,-0.00074583,-0.00016456,0.00016924,0.00050492,-0.009
 31169,0.00349666,0.00724703,0.01275494,-0.00003428,0.00015944,-0.00006
 523,0.00002121,-0.00000601,-0.00071715,0.00073455,-0.00041684,-0.00058
 274,-0.00035253,0.00016303,-0.00043690,0.00010414,0.00023346,-0.000107
 54,-0.00006262,-0.00005945,0.00015433,-0.00206016,0.00471438,0.0060792
 0,-0.00028457,-0.00018314,-0.00016229,-0.00028756,0.00021577,0.0003100
 0,0.00074422,-0.04775945,-0.08593664,-0.00238804,0.04274303,0.00029532
 ,0.00003760,0.00062593,0.00006944,-0.00006322,0.00012559,-0.00053199,0
 .00019769,0.00022857,0.00064608,-0.00005323,0.00098595,-0.00002746,-0.
 00002409,0.00004950,-0.00000702,0.00002718,-0.00007574,-0.00249097,-0.
 00025690,-0.00558169,0.00046736,0.00031168,0.00062014,0.00027270,-0.00
 019047,-0.00045641,0.00211289,-0.08027391,-0.21310322,0.00331473,0.079
 04433,0.22026083,-0.00477881,-0.00498211,-0.00124558,-0.14309490,0.019
 77858,0.11006928,-0.00050374,0.00028412,0.00025642,0.00072680,0.000620
 12,-0.00019579,0.00088696,0.00005442,0.00058503,-0.00003064,0.00009939
 ,-0.00031237,0.00022566,-0.00018173,-0.00067580,-0.00014957,0.00004279
 ,0.00005311,-0.00000694,0.00000505,-0.00002095,0.00014470,-0.00039895,
 -0.00118422,-0.00061357,0.00022670,-0.00006592,0.15427107,-0.00811640,
 0.00102299,0.00536020,0.02549383,-0.01855264,-0.01743077,-0.00034842,-
 0.00021234,-0.00010854,0.00159541,0.00035368,0.00090489,0.00104986,0.0
 0002791,0.00077662,0.00014779,0.00031357,-0.00038955,-0.00029616,0.000
 41185,0.00019924,-0.00008638,0.00016038,-0.00012434,-0.00007752,-0.000
 00471,0.00002343,0.00038686,-0.00012210,-0.00077182,-0.00036786,-0.000
 02196,0.00006247,-0.01368377,0.01687475,0.00161319,-0.00367793,0.00061
 966,0.11499999,-0.01352172,-0.11152716,-0.00011882,0.00054990,0.000449
 81,0.00057764,0.00160162,0.00100134,-0.00061004,0.00000927,-0.00033954
 ,-0.00007013,-0.00019152,0.00025453,-0.00034824,-0.00060363,-0.0008854
 1,-0.00003094,0.00007927,0.00001904,-0.00001101,0.00000727,-0.00000226
 ,-0.00036077,-0.00017961,-0.00093264,-0.00044963,0.00031639,-0.0001053
 0,-0.11291883,0.01389291,0.10437362,-0.01671172,0.03429675,-0.02523001
 ,-0.04768553,-0.00522605,-0.02153019,0.00171081,-0.00635376,0.00196614
 ,-0.00530425,0.00744974,0.00116801,-0.00410706,0.00266564,-0.00003067,
 -0.00023637,-0.00051245,0.00068902,-0.03832812,-0.05317894,0.02734372,
 -0.00845713,-0.00129773,0.00005891,-0.00027428,-0.00113284,0.00133510,
 -0.06421676,0.00146345,-0.01901402,-0.00149456,0.00363892,-0.00405517,
 -0.00707702,-0.00569723,-0.00227241,0.19218199,0.01480530,-0.09599830,
 0.05812202,-0.00501195,-0.00102369,-0.00902696,-0.00545923,-0.00106228
 ,0.00654689,0.01020453,-0.08745169,-0.04342409,0.00889074,0.00254199,-
 0.00195851,-0.00141033,0.00080706,0.00002404,-0.04466522,-0.09849457,0
 .04113950,-0.00244487,0.00830835,-0.00237398,-0.00223216,-0.00105818,0
 .00033909,0.00675731,-0.00165407,-0.00159272,-0.00145399,0.00021772,0.
 00118086,-0.00186463,-0.00025136,0.00171779,0.02388451,0.27511901,-0.0
 0472249,0.05361618,-0.04242196,-0.03441569,-0.00235872,-0.03785983,0.0
 0151238,0.01063635,-0.00450801,0.00034472,-0.02903056,-0.01238298,-0.0
 0898778,-0.00303747,0.00025498,0.00219561,-0.00083761,0.00016097,0.014
 09006,0.02718766,-0.02012420,0.00063960,-0.00224040,0.00189594,0.00073
 555,-0.00059104,-0.00125259,-0.00523185,-0.00235995,-0.01479241,-0.011
 38729,0.00210423,-0.00357416,0.00565561,-0.00239475,0.00707430,0.03957
 156,-0.05069392,0.12752995\\-0.00000209,-0.00002361,-0.00000994,0.0000
 0539,0.00000827,0.00001443,0.00000901,0.00000082,0.00000378,0.00001062
 ,-0.00001509,0.00000429,-0.00000599,0.00000708,-0.00000075,0.00000473,
 -0.00000073,0.00000106,0.00001592,0.00002217,0.00000058,-0.00001065,-0
 .00000219,0.00000612,0.00000271,-0.00000028,-0.00000307,0.00000410,-0.
 00001044,-0.00000425,-0.00001017,0.00000540,-0.00000055,-0.00000660,-0
 .00000414,-0.00000645,-0.00001698,0.00001275,-0.00000525\\\@
 The archive entry for this job was punched.


 The mind is not a vessel to be filled but a fire to be kindled.
                                  -- Plutarch
 Job cpu time:       0 days  0 hours 19 minutes  5.6 seconds.
 Elapsed time:       0 days  0 hours  0 minutes 25.1 seconds.
 File lengths (MBytes):  RWF=    127 Int=      0 D2E=      0 Chk=      5 Scr=      2
 Normal termination of Gaussian 16 at Tue Oct 25 19:51:03 2022.
