 Entering Gaussian System, Link 0=/apps/GAU16/avx2/g16/g16
 Initial command:
 /apps/GAU16/avx2//g16/l1.exe "/localscratch/chegho/Gau-127342.inp" -scrdir="/localscratch/chegho/"
 Entering Link 1 = /apps/GAU16/avx2//g16/l1.exe PID=    127348.
  
 Copyright (c) 1988-2019, Gaussian, Inc.  All Rights Reserved.
  
 This is part of the Gaussian(R) 16 program.  It is based on
 the Gaussian(R) 09 system (copyright 2009, Gaussian, Inc.),
 the Gaussian(R) 03 system (copyright 2003, Gaussian, Inc.),
 the Gaussian(R) 98 system (copyright 1998, Gaussian, Inc.),
 the Gaussian(R) 94 system (copyright 1995, Gaussian, Inc.),
 the Gaussian 92(TM) system (copyright 1992, Gaussian, Inc.),
 the Gaussian 90(TM) system (copyright 1990, Gaussian, Inc.),
 the Gaussian 88(TM) system (copyright 1988, Gaussian, Inc.),
 the Gaussian 86(TM) system (copyright 1986, Carnegie Mellon
 University), and the Gaussian 82(TM) system (copyright 1983,
 Carnegie Mellon University). Gaussian is a federally registered
 trademark of Gaussian, Inc.
  
 This software contains proprietary and confidential information,
 including trade secrets, belonging to Gaussian, Inc.
  
 This software is provided under written license and may be
 used, copied, transmitted, or stored only in accord with that
 written license.
  
 The following legend is applicable only to US Government
 contracts under FAR:
  
                    RESTRICTED RIGHTS LEGEND
  
 Use, reproduction and disclosure by the US Government is
 subject to restrictions as set forth in subparagraphs (a)
 and (c) of the Commercial Computer Software - Restricted
 Rights clause in FAR 52.227-19.
  
 Gaussian, Inc.
 340 Quinnipiac St., Bldg. 40, Wallingford CT 06492
  
  
 ---------------------------------------------------------------
 Warning -- This program may not be used in any manner that
 competes with the business of Gaussian, Inc. or will provide
 assistance to any competitor of Gaussian, Inc.  The licensee
 of this program is prohibited from giving any competitor of
 Gaussian, Inc. access to this program.  By using this program,
 the user acknowledges that Gaussian, Inc. is engaged in the
 business of creating and licensing software in the field of
 computational chemistry and represents and warrants to the
 licensee that it is not a competitor of Gaussian, Inc. and that
 it will not use this program in any manner prohibited above.
 ---------------------------------------------------------------
  

 Cite this work as:
 Gaussian 16, Revision C.01,
 M. J. Frisch, G. W. Trucks, H. B. Schlegel, G. E. Scuseria, 
 M. A. Robb, J. R. Cheeseman, G. Scalmani, V. Barone, 
 G. A. Petersson, H. Nakatsuji, X. Li, M. Caricato, A. V. Marenich, 
 J. Bloino, B. G. Janesko, R. Gomperts, B. Mennucci, H. P. Hratchian, 
 J. V. Ortiz, A. F. Izmaylov, J. L. Sonnenberg, D. Williams-Young, 
 F. Ding, F. Lipparini, F. Egidi, J. Goings, B. Peng, A. Petrone, 
 T. Henderson, D. Ranasinghe, V. G. Zakrzewski, J. Gao, N. Rega, 
 G. Zheng, W. Liang, M. Hada, M. Ehara, K. Toyota, R. Fukuda, 
 J. Hasegawa, M. Ishida, T. Nakajima, Y. Honda, O. Kitao, H. Nakai, 
 T. Vreven, K. Throssell, J. A. Montgomery, Jr., J. E. Peralta, 
 F. Ogliaro, M. J. Bearpark, J. J. Heyd, E. N. Brothers, K. N. Kudin, 
 V. N. Staroverov, T. A. Keith, R. Kobayashi, J. Normand, 
 K. Raghavachari, A. P. Rendell, J. C. Burant, S. S. Iyengar, 
 J. Tomasi, M. Cossi, J. M. Millam, M. Klene, C. Adamo, R. Cammi, 
 J. W. Ochterski, R. L. Martin, K. Morokuma, O. Farkas, 
 J. B. Foresman, and D. J. Fox, Gaussian, Inc., Wallingford CT, 2019.
 
 ******************************************
 Gaussian 16:  ES64L-G16RevC.01  3-Jul-2019
                 8-Jul-2023 
 ******************************************
 %nprocshared=24
 Will use up to   24 processors via shared memory.
 %mem=100GB
 ---------------------------------------
 # opt freq b3lyp/gen nosymm pseudo=read
 ---------------------------------------
 1/18=20,19=15,26=3,38=1/1,3;
 2/9=110,12=2,15=1,17=6,18=5,40=1/2;
 3/5=7,11=2,16=1,17=8,25=1,30=1,71=1,74=-5/1,2,3;
 4//1;
 5/5=2,38=5/2;
 6/7=2,8=2,9=2,10=2,28=1/1;
 7/30=1/1,2,3,16;
 1/18=20,19=15,26=3/3(2);
 2/9=110,15=1/2;
 99//99;
 2/9=110,15=1/2;
 3/5=7,6=1,11=2,16=1,17=8,25=1,30=1,71=1,74=-5,82=7/1,2,3;
 4/5=5,16=3,69=1/1;
 5/5=2,38=5/2;
 7/30=1/1,2,3,16;
 1/18=20,19=15,26=3/3(-5);
 2/9=110,15=1/2;
 6/7=2,8=2,9=2,10=2,19=2,28=1/1;
 99/9=1/99;
 -------------------
 Title Card Required
 -------------------
 Symbolic Z-matrix:
 Charge =  0 Multiplicity = 1
 42                    0.08273   2.0118    11.01594 
 16                    0.70891   4.39413   11.18459 
 16                   -1.66581   1.74047   12.48948 
 16                   -0.79991   1.47803   8.81388 
 16                    1.79545   0.43488   10.77233 
 1                     1.67154  -0.14042   9.56095 
 42                   -2.52199   2.03175   10.34572 
 16                   -4.66803   1.05788   10.30962 
 1                    -5.5188    1.99705   9.85042 
 16                   -3.36345   3.95912   8.98849 
 1                    -3.56376   3.36481   7.78589 
 1                     1.9394    4.42161   10.62188 
 42                   -0.89941   3.79039   9.38814 
 16                    0.03104   4.99792   7.38908 
 1                    -0.89755   4.65961   6.44369 
 1                     0.66436   3.54936   8.96364 
 

 GradGradGradGradGradGradGradGradGradGradGradGradGradGradGradGradGradGrad
 Berny optimization.
 Initialization pass.
                           ----------------------------
                           !    Initial Parameters    !
                           ! (Angstroms and Degrees)  !
 --------------------------                            --------------------------
 ! Name  Definition              Value          Derivative Info.                !
 --------------------------------------------------------------------------------
 ! R1    R(1,2)                  2.469          estimate D2E/DX2                !
 ! R2    R(1,3)                  2.3027         estimate D2E/DX2                !
 ! R3    R(1,4)                  2.4317         estimate D2E/DX2                !
 ! R4    R(1,5)                  2.3408         estimate D2E/DX2                !
 ! R5    R(1,7)                  2.6896         estimate D2E/DX2                !
 ! R6    R(1,13)                 2.6034         estimate D2E/DX2                !
 ! R7    R(2,12)                 1.3533         estimate D2E/DX2                !
 ! R8    R(2,13)                 2.4856         estimate D2E/DX2                !
 ! R9    R(3,7)                  2.3267         estimate D2E/DX2                !
 ! R10   R(4,7)                  2.3704         estimate D2E/DX2                !
 ! R11   R(4,13)                 2.3847         estimate D2E/DX2                !
 ! R12   R(5,6)                  1.3468         estimate D2E/DX2                !
 ! R13   R(7,8)                  2.357          estimate D2E/DX2                !
 ! R14   R(7,10)                 2.503          estimate D2E/DX2                !
 ! R15   R(7,13)                 2.5773         estimate D2E/DX2                !
 ! R16   R(8,9)                  1.3479         estimate D2E/DX2                !
 ! R17   R(10,11)                1.3563         estimate D2E/DX2                !
 ! R18   R(10,13)                2.5019         estimate D2E/DX2                !
 ! R19   R(13,14)                2.514          estimate D2E/DX2                !
 ! R20   R(13,16)                1.6382         estimate D2E/DX2                !
 ! R21   R(14,15)                1.3677         estimate D2E/DX2                !
 ! A1    A(2,1,3)              105.2223         estimate D2E/DX2                !
 ! A2    A(2,1,4)              111.4516         estimate D2E/DX2                !
 ! A3    A(2,1,5)              118.1352         estimate D2E/DX2                !
 ! A4    A(2,1,7)              104.8016         estimate D2E/DX2                !
 ! A5    A(3,1,4)              106.1415         estimate D2E/DX2                !
 ! A6    A(3,1,5)              122.8754         estimate D2E/DX2                !
 ! A7    A(3,1,13)             101.1953         estimate D2E/DX2                !
 ! A8    A(4,1,5)               91.3445         estimate D2E/DX2                !
 ! A9    A(5,1,7)              133.4435         estimate D2E/DX2                !
 ! A10   A(5,1,13)             132.1587         estimate D2E/DX2                !
 ! A11   A(1,2,12)             102.8139         estimate D2E/DX2                !
 ! A12   A(12,2,13)            107.0217         estimate D2E/DX2                !
 ! A13   A(1,5,6)              108.304          estimate D2E/DX2                !
 ! A14   A(1,7,8)              151.9479         estimate D2E/DX2                !
 ! A15   A(1,7,10)             117.8008         estimate D2E/DX2                !
 ! A16   A(3,7,4)              107.3882         estimate D2E/DX2                !
 ! A17   A(3,7,8)              107.3037         estimate D2E/DX2                !
 ! A18   A(3,7,10)             136.0312         estimate D2E/DX2                !
 ! A19   A(3,7,13)             101.3081         estimate D2E/DX2                !
 ! A20   A(4,7,8)              123.7156         estimate D2E/DX2                !
 ! A21   A(4,7,10)              94.226          estimate D2E/DX2                !
 ! A22   A(8,7,10)              90.2157         estimate D2E/DX2                !
 ! A23   A(8,7,13)             148.155          estimate D2E/DX2                !
 ! A24   A(7,8,9)              106.9795         estimate D2E/DX2                !
 ! A25   A(7,10,11)            101.1296         estimate D2E/DX2                !
 ! A26   A(11,10,13)           104.9241         estimate D2E/DX2                !
 ! A27   A(1,13,10)            121.164          estimate D2E/DX2                !
 ! A28   A(1,13,14)            133.292          estimate D2E/DX2                !
 ! A29   A(1,13,16)             72.6259         estimate D2E/DX2                !
 ! A30   A(2,13,4)             112.4929         estimate D2E/DX2                !
 ! A31   A(2,13,7)             107.7321         estimate D2E/DX2                !
 ! A32   A(2,13,10)            137.4179         estimate D2E/DX2                !
 ! A33   A(2,13,14)            102.6243         estimate D2E/DX2                !
 ! A34   A(2,13,16)             66.7569         estimate D2E/DX2                !
 ! A35   A(4,13,10)             93.9004         estimate D2E/DX2                !
 ! A36   A(4,13,14)            105.0006         estimate D2E/DX2                !
 ! A37   A(4,13,16)             75.8241         estimate D2E/DX2                !
 ! A38   A(7,13,14)            148.8926         estimate D2E/DX2                !
 ! A39   A(7,13,16)            126.6442         estimate D2E/DX2                !
 ! A40   A(10,13,14)           101.8346         estimate D2E/DX2                !
 ! A41   A(10,13,16)           155.3185         estimate D2E/DX2                !
 ! A42   A(14,13,16)            60.7465         estimate D2E/DX2                !
 ! A43   A(13,14,15)           100.3438         estimate D2E/DX2                !
 ! D1    D(3,1,2,12)           163.1864         estimate D2E/DX2                !
 ! D2    D(4,1,2,12)           -82.2006         estimate D2E/DX2                !
 ! D3    D(5,1,2,12)            21.6096         estimate D2E/DX2                !
 ! D4    D(7,1,2,12)          -139.8042         estimate D2E/DX2                !
 ! D5    D(2,1,5,6)           -114.6251         estimate D2E/DX2                !
 ! D6    D(3,1,5,6)            110.9368         estimate D2E/DX2                !
 ! D7    D(4,1,5,6)              0.6765         estimate D2E/DX2                !
 ! D8    D(7,1,5,6)             40.2607         estimate D2E/DX2                !
 ! D9    D(13,1,5,6)           -42.8374         estimate D2E/DX2                !
 ! D10   D(2,1,7,8)           -153.022          estimate D2E/DX2                !
 ! D11   D(2,1,7,10)            30.1065         estimate D2E/DX2                !
 ! D12   D(5,1,7,8)             49.7534         estimate D2E/DX2                !
 ! D13   D(5,1,7,10)          -127.1182         estimate D2E/DX2                !
 ! D14   D(3,1,13,10)          -28.4332         estimate D2E/DX2                !
 ! D15   D(3,1,13,14)          177.537          estimate D2E/DX2                !
 ! D16   D(3,1,13,16)          174.1346         estimate D2E/DX2                !
 ! D17   D(5,1,13,10)          129.336          estimate D2E/DX2                !
 ! D18   D(5,1,13,14)          -24.6939         estimate D2E/DX2                !
 ! D19   D(5,1,13,16)          -28.0963         estimate D2E/DX2                !
 ! D20   D(12,2,13,4)           74.8849         estimate D2E/DX2                !
 ! D21   D(12,2,13,7)          135.6797         estimate D2E/DX2                !
 ! D22   D(12,2,13,10)        -161.1018         estimate D2E/DX2                !
 ! D23   D(12,2,13,14)         -37.4377         estimate D2E/DX2                !
 ! D24   D(12,2,13,16)          12.6803         estimate D2E/DX2                !
 ! D25   D(1,4,7,13)            71.9428         estimate D2E/DX2                !
 ! D26   D(1,7,8,9)            170.5056         estimate D2E/DX2                !
 ! D27   D(3,7,8,9)            126.7651         estimate D2E/DX2                !
 ! D28   D(4,7,8,9)           -107.4887         estimate D2E/DX2                !
 ! D29   D(10,7,8,9)           -12.2615         estimate D2E/DX2                !
 ! D30   D(13,7,8,9)           -26.2128         estimate D2E/DX2                !
 ! D31   D(1,7,10,11)          108.1727         estimate D2E/DX2                !
 ! D32   D(3,7,10,11)          174.0281         estimate D2E/DX2                !
 ! D33   D(4,7,10,11)           53.4827         estimate D2E/DX2                !
 ! D34   D(8,7,10,11)          -70.3566         estimate D2E/DX2                !
 ! D35   D(3,7,13,2)            -2.1988         estimate D2E/DX2                !
 ! D36   D(3,7,13,14)          164.7193         estimate D2E/DX2                !
 ! D37   D(3,7,13,16)           71.6294         estimate D2E/DX2                !
 ! D38   D(8,7,13,2)           151.5468         estimate D2E/DX2                !
 ! D39   D(8,7,13,14)          -41.5351         estimate D2E/DX2                !
 ! D40   D(8,7,13,16)         -134.625          estimate D2E/DX2                !
 ! D41   D(11,10,13,1)        -102.3952         estimate D2E/DX2                !
 ! D42   D(11,10,13,2)        -177.4807         estimate D2E/DX2                !
 ! D43   D(11,10,13,4)         -47.6221         estimate D2E/DX2                !
 ! D44   D(11,10,13,14)         58.5994         estimate D2E/DX2                !
 ! D45   D(11,10,13,16)         16.3071         estimate D2E/DX2                !
 ! D46   D(1,13,14,15)         123.5978         estimate D2E/DX2                !
 ! D47   D(2,13,14,15)        -178.7641         estimate D2E/DX2                !
 ! D48   D(4,13,14,15)          63.4678         estimate D2E/DX2                !
 ! D49   D(7,13,14,15)          13.9996         estimate D2E/DX2                !
 ! D50   D(10,13,14,15)        -33.8921         estimate D2E/DX2                !
 ! D51   D(16,13,14,15)        127.3201         estimate D2E/DX2                !
 --------------------------------------------------------------------------------
 Trust Radius=3.00D-01 FncErr=1.00D-07 GrdErr=1.00D-06 EigMax=2.50D+02 EigMin=1.00D-04
 Number of steps in this run=    100 maximum allowed number of steps=    100.
 GradGradGradGradGradGradGradGradGradGradGradGradGradGradGradGradGradGrad

                          Input orientation:                          
 ---------------------------------------------------------------------
 Center     Atomic      Atomic             Coordinates (Angstroms)
 Number     Number       Type             X           Y           Z
 ---------------------------------------------------------------------
      1         42           0        0.082729    2.011800   11.015936
      2         16           0        0.708911    4.394129   11.184590
      3         16           0       -1.665806    1.740472   12.489480
      4         16           0       -0.799905    1.478034    8.813884
      5         16           0        1.795452    0.434875   10.772328
      6          1           0        1.671543   -0.140420    9.560946
      7         42           0       -2.521988    2.031751   10.345722
      8         16           0       -4.668031    1.057877   10.309619
      9          1           0       -5.518797    1.997046    9.850424
     10         16           0       -3.363445    3.959123    8.988485
     11          1           0       -3.563762    3.364809    7.785892
     12          1           0        1.939403    4.421608   10.621879
     13         42           0       -0.899405    3.790388    9.388140
     14         16           0        0.031038    4.997918    7.389077
     15          1           0       -0.897554    4.659608    6.443695
     16          1           0        0.664364    3.549359    8.963643
 ---------------------------------------------------------------------
                    Distance matrix (angstroms):
                    1          2          3          4          5
     1  Mo   0.000000
     2  S    2.469016   0.000000
     3  S    2.302678   3.792613   0.000000
     4  S    2.431662   4.049739   3.785322   0.000000
     5  S    2.340824   4.126284   4.078419   3.414610   0.000000
     6  H    3.045222   4.911722   4.822029   3.047220   1.346761
     7  Mo   2.689635   4.089406   2.326712   2.370380   4.623018
     8  S    4.896792   6.388087   3.772411   4.168471   6.509904
     9  H    5.721515   6.805171   4.677177   4.859190   7.535816
    10  S    4.447329   4.647170   4.478991   3.571838   6.497433
    11  H    5.055760   5.555752   5.325828   3.500799   6.798859
    12  H    3.067522   1.353333   4.865589   4.408773   3.992167
    13  Mo   2.603398   2.485642   3.795766   2.384670   4.520807
    14  S    4.698263   3.902562   6.285248   3.887174   5.948185
    15  H    5.373754   5.012713   6.757446   3.968595   6.621006
    16  H    2.629504   2.376600   4.597096   2.541043   3.775012
                    6          7          8          9         10
     6  H    0.000000
     7  Mo   4.787473   0.000000
     8  S    6.495123   2.356955   0.000000
     9  H    7.506900   3.037662   1.347851   0.000000
    10  S    6.518057   2.502979   3.444498   3.039445   0.000000
    11  H    6.545675   3.068398   3.593124   3.155191   1.356306
    12  H    4.691421   5.068697   7.420942   7.880253   5.567950
    13  Mo   4.700094   2.577313   4.745343   4.976803   2.501937
    14  S    5.814705   4.904879   6.792256   6.772306   3.893548
    15  H    6.273578   4.976970   6.491096   6.328580   3.612098
    16  H    3.871130   3.790266   6.037679   6.436423   4.048675
                   11         12         13         14         15
    11  H    0.000000
    12  H    6.280483   0.000000
    13  Mo   3.138011   3.159016   0.000000
    14  S    3.968261   3.798026   2.513982   0.000000
    15  H    3.253715   5.055907   3.070066   1.367656   0.000000
    16  H    4.392972   2.266338   1.638190   2.231296   3.165814
                   16
    16  H    0.000000
 Symmetry turned off by external request.
 Stoichiometry    H6Mo3S7
 Framework group  C1[X(H6Mo3S7)]
 Deg. of freedom    42
 Full point group                 C1      NOp   1
 Rotational constants (GHZ):           0.3245642           0.2902236           0.1926977
 General basis read from cards:  (5D, 7F)
 ======================================================================================================
                                       Pseudopotential Parameters
 ======================================================================================================
  Center     Atomic      Valence      Angular      Power
  Number     Number     Electrons     Momentum     of R      Exponent        Coefficient   SO-Coeffient
 ======================================================================================================
    1         42           14
                                      F and up 
                                                     0      537.9667807       -0.04694920    0.00000000
                                                     1      147.8982938      -20.20800840    0.00000000
                                                     2       45.7358898     -106.21163020    0.00000000
                                                     2       13.2911467      -41.81073680    0.00000000
                                                     2        4.7059961       -4.20541030    0.00000000
                                      S - F
                                                     0      110.2991760        2.80637170    0.00000000
                                                     1       23.2014645       44.51620120    0.00000000
                                                     2        5.3530131       82.77852270    0.00000000
                                      P - F
                                                     0       63.2901397        4.94208760    0.00000000
                                                     1       23.3315302       25.86049760    0.00000000
                                                     2       24.6759423      132.47087420    0.00000000
                                                     2        4.6493040       57.31497940    0.00000000
                                      D - F
                                                     0      104.4839977        3.00545910    0.00000000
                                                     1       66.2307245       26.36378510    0.00000000
                                                     2       39.1283176      183.38491990    0.00000000
                                                     2       13.1164437       98.44530680    0.00000000
                                                     2        3.6280263       22.49013770    0.00000000
    2         16
                                   No pseudopotential on this center.
    3         16
                                   No pseudopotential on this center.
    4         16
                                   No pseudopotential on this center.
    5         16
                                   No pseudopotential on this center.
    6          1
                                   No pseudopotential on this center.
    7         42           14
                                      F and up 
                                                     0      537.9667807       -0.04694920    0.00000000
                                                     1      147.8982938      -20.20800840    0.00000000
                                                     2       45.7358898     -106.21163020    0.00000000
                                                     2       13.2911467      -41.81073680    0.00000000
                                                     2        4.7059961       -4.20541030    0.00000000
                                      S - F
                                                     0      110.2991760        2.80637170    0.00000000
                                                     1       23.2014645       44.51620120    0.00000000
                                                     2        5.3530131       82.77852270    0.00000000
                                      P - F
                                                     0       63.2901397        4.94208760    0.00000000
                                                     1       23.3315302       25.86049760    0.00000000
                                                     2       24.6759423      132.47087420    0.00000000
                                                     2        4.6493040       57.31497940    0.00000000
                                      D - F
                                                     0      104.4839977        3.00545910    0.00000000
                                                     1       66.2307245       26.36378510    0.00000000
                                                     2       39.1283176      183.38491990    0.00000000
                                                     2       13.1164437       98.44530680    0.00000000
                                                     2        3.6280263       22.49013770    0.00000000
    8         16
                                   No pseudopotential on this center.
    9          1
                                   No pseudopotential on this center.
   10         16
                                   No pseudopotential on this center.
   11          1
                                   No pseudopotential on this center.
   12          1
                                   No pseudopotential on this center.
   13         42           14
                                      F and up 
                                                     0      537.9667807       -0.04694920    0.00000000
                                                     1      147.8982938      -20.20800840    0.00000000
                                                     2       45.7358898     -106.21163020    0.00000000
                                                     2       13.2911467      -41.81073680    0.00000000
                                                     2        4.7059961       -4.20541030    0.00000000
                                      S - F
                                                     0      110.2991760        2.80637170    0.00000000
                                                     1       23.2014645       44.51620120    0.00000000
                                                     2        5.3530131       82.77852270    0.00000000
                                      P - F
                                                     0       63.2901397        4.94208760    0.00000000
                                                     1       23.3315302       25.86049760    0.00000000
                                                     2       24.6759423      132.47087420    0.00000000
                                                     2        4.6493040       57.31497940    0.00000000
                                      D - F
                                                     0      104.4839977        3.00545910    0.00000000
                                                     1       66.2307245       26.36378510    0.00000000
                                                     2       39.1283176      183.38491990    0.00000000
                                                     2       13.1164437       98.44530680    0.00000000
                                                     2        3.6280263       22.49013770    0.00000000
   14         16
                                   No pseudopotential on this center.
   15          1
                                   No pseudopotential on this center.
   16          1
                                   No pseudopotential on this center.
 ======================================================================================================
   222 basis functions,   553 primitive gaussians,   235 cartesian basis functions
    80 alpha electrons       80 beta electrons
       nuclear repulsion energy      1733.9065964403 Hartrees.
 NAtoms=   16 NActive=   16 NUniq=   16 SFac= 1.00D+00 NAtFMM=   60 NAOKFM=F Big=F
 Integral buffers will be    131072 words long.
 Raffenetti 2 integral format.
 Two-electron integral symmetry is turned off.
 One-electron integrals computed using PRISM.
   1 Symmetry operations used in ECPInt.
 ECPInt:  NShTT=    3003 NPrTT=   20388 LenC2=    2806 LenP2D=   13498.
 LDataN:  DoStor=T MaxTD1= 5 Len=  102
 NBasis=   222 RedAO= T EigKep=  1.35D-03  NBF=   222
 NBsUse=   222 1.00D-06 EigRej= -1.00D+00 NBFU=   222
 Defaulting to unpruned grid for atomic number  42.
 Defaulting to unpruned grid for atomic number  42.
 Defaulting to unpruned grid for atomic number  42.
 ExpMin= 2.47D-02 ExpMax= 2.19D+04 ExpMxC= 3.30D+03 IAcc=3 IRadAn=         5 AccDes= 0.00D+00
 Harris functional with IExCor=  402 and IRadAn=       5 diagonalized for initial guess.
 HarFok:  IExCor=  402 AccDes= 0.00D+00 IRadAn=         5 IDoV= 1 UseB2=F ITyADJ=14
 ICtDFT=  3500011 ScaDFX=  1.000000  1.000000  1.000000  1.000000
 Defaulting to unpruned grid for atomic number  42.
 FoFCou: FMM=F IPFlag=           0 FMFlag=      100000 FMFlg1=           0
         NFxFlg=           0 DoJE=T BraDBF=F KetDBF=T FulRan=T
         wScrn=  0.000000 ICntrl=       500 IOpCl=  0 I1Cent=   200000004 NGrid=           0
         NMat0=    1 NMatS0=      1 NMatT0=    0 NMatD0=    1 NMtDS0=    0 NMtDT0=    0
 Symmetry not used in FoFCou.
 Requested convergence on RMS density matrix=1.00D-08 within 128 cycles.
 Requested convergence on MAX density matrix=1.00D-06.
 Requested convergence on             energy=1.00D-06.
 No special actions if energy rises.
 Defaulting to unpruned grid for atomic number  42.
 Defaulting to unpruned grid for atomic number  42.
 Defaulting to unpruned grid for atomic number  42.
 Defaulting to unpruned grid for atomic number  42.
 Defaulting to unpruned grid for atomic number  42.
 Defaulting to unpruned grid for atomic number  42.
 Defaulting to unpruned grid for atomic number  42.
 Defaulting to unpruned grid for atomic number  42.
 Defaulting to unpruned grid for atomic number  42.
 Defaulting to unpruned grid for atomic number  42.
 Defaulting to unpruned grid for atomic number  42.
 Defaulting to unpruned grid for atomic number  42.
 Defaulting to unpruned grid for atomic number  42.
 Defaulting to unpruned grid for atomic number  42.
 Defaulting to unpruned grid for atomic number  42.
 Defaulting to unpruned grid for atomic number  42.
 Defaulting to unpruned grid for atomic number  42.
 Defaulting to unpruned grid for atomic number  42.
 Defaulting to unpruned grid for atomic number  42.
 Defaulting to unpruned grid for atomic number  42.
 Defaulting to unpruned grid for atomic number  42.
 Defaulting to unpruned grid for atomic number  42.
 Defaulting to unpruned grid for atomic number  42.
 Defaulting to unpruned grid for atomic number  42.
 EnCoef did     3 forward-backward iterations
 EnCoef did   100 forward-backward iterations
 EnCoef did     2 forward-backward iterations
 EnCoef did     2 forward-backward iterations
 Restarting incremental Fock formation.
 SCF Done:  E(RB3LYP) =  -2993.74207221     A.U. after   23 cycles
            NFock= 23  Conv=0.78D-08     -V/T= 2.0496

 **********************************************************************

            Population analysis using the SCF Density.

 **********************************************************************

 Alpha  occ. eigenvalues --  -88.92024 -88.91112 -88.89067 -88.88886 -88.88431
 Alpha  occ. eigenvalues --  -88.86459 -88.86428  -7.99722  -7.98785  -7.96940
 Alpha  occ. eigenvalues --   -7.96590  -7.96276  -7.94195  -7.93966  -5.95954
 Alpha  occ. eigenvalues --   -5.95579  -5.95494  -5.94779  -5.94735  -5.94694
 Alpha  occ. eigenvalues --   -5.92955  -5.92893  -5.92862  -5.92792  -5.92532
 Alpha  occ. eigenvalues --   -5.92442  -5.92331  -5.92157  -5.91980  -5.90454
 Alpha  occ. eigenvalues --   -5.90263  -5.90009  -5.89979  -5.89946  -5.89595
 Alpha  occ. eigenvalues --   -2.54911  -2.53316  -2.52759  -1.58529  -1.57919
 Alpha  occ. eigenvalues --   -1.57365  -1.56598  -1.55396  -1.55134  -1.54987
 Alpha  occ. eigenvalues --   -1.54398  -1.53244  -0.77500  -0.74916  -0.74260
 Alpha  occ. eigenvalues --   -0.73459  -0.71827  -0.71459  -0.70666  -0.47438
 Alpha  occ. eigenvalues --   -0.45725  -0.44715  -0.42598  -0.42295  -0.40310
 Alpha  occ. eigenvalues --   -0.40138  -0.39412  -0.38335  -0.37970  -0.35440
 Alpha  occ. eigenvalues --   -0.34938  -0.34220  -0.33704  -0.33229  -0.32855
 Alpha  occ. eigenvalues --   -0.32199  -0.30815  -0.30182  -0.29578  -0.28147
 Alpha  occ. eigenvalues --   -0.27226  -0.26276  -0.25400  -0.24319  -0.22818
 Alpha virt. eigenvalues --   -0.15145  -0.14394  -0.12958  -0.12357  -0.11429
 Alpha virt. eigenvalues --   -0.11099  -0.09747  -0.08896  -0.07737  -0.05121
 Alpha virt. eigenvalues --   -0.04669  -0.01481  -0.00252  -0.00119   0.00953
 Alpha virt. eigenvalues --    0.02037   0.02320   0.03187   0.03961   0.04367
 Alpha virt. eigenvalues --    0.05757   0.06066   0.06908   0.07382   0.07767
 Alpha virt. eigenvalues --    0.08064   0.09087   0.10912   0.12659   0.15309
 Alpha virt. eigenvalues --    0.16485   0.17060   0.18700   0.20883   0.23468
 Alpha virt. eigenvalues --    0.24420   0.26160   0.27532   0.28817   0.29373
 Alpha virt. eigenvalues --    0.29877   0.30672   0.31085   0.32811   0.33280
 Alpha virt. eigenvalues --    0.34174   0.34384   0.35178   0.35376   0.35990
 Alpha virt. eigenvalues --    0.37381   0.37903   0.38343   0.39460   0.40198
 Alpha virt. eigenvalues --    0.40836   0.41725   0.42259   0.43211   0.44618
 Alpha virt. eigenvalues --    0.44945   0.45079   0.45941   0.47237   0.48746
 Alpha virt. eigenvalues --    0.49581   0.50560   0.51701   0.52796   0.55107
 Alpha virt. eigenvalues --    0.56300   0.57704   0.58753   0.59031   0.60609
 Alpha virt. eigenvalues --    0.62398   0.63929   0.65458   0.66712   0.69880
 Alpha virt. eigenvalues --    0.70654   0.71820   0.73004   0.73788   0.74026
 Alpha virt. eigenvalues --    0.75248   0.75568   0.76508   0.77610   0.77877
 Alpha virt. eigenvalues --    0.78430   0.78736   0.79861   0.80965   0.82573
 Alpha virt. eigenvalues --    0.85032   0.85814   0.87529   0.88351   0.89839
 Alpha virt. eigenvalues --    0.91208   0.92980   0.93903   0.95202   0.96090
 Alpha virt. eigenvalues --    0.96380   0.98795   1.00190   1.01345   1.03684
 Alpha virt. eigenvalues --    1.04956   1.05621   1.07099   1.09490   1.11616
 Alpha virt. eigenvalues --    1.12560   1.13052   1.15310   1.15964   1.18942
 Alpha virt. eigenvalues --    1.22176   2.04938   2.05646   2.06664   2.07260
 Alpha virt. eigenvalues --    2.07967   2.08120   2.08517   2.08795   2.09371
 Alpha virt. eigenvalues --    2.11066   2.17788   2.22234   2.24927   2.69226
 Alpha virt. eigenvalues --    2.70555   2.71787   2.72469   2.74399   8.09779
 Alpha virt. eigenvalues --    8.81951  10.96513
          Condensed to atoms (all electrons):
               1          2          3          4          5          6
     1  Mo  13.580169   0.203407   0.235681   0.094003   0.261148  -0.029699
     2  S    0.203407  15.423620   0.002279   0.000664   0.001562   0.000019
     3  S    0.235681   0.002279  15.660489  -0.001420   0.005827  -0.000255
     4  S    0.094003   0.000664  -0.001420  15.507247  -0.024476  -0.003714
     5  S    0.261148   0.001562   0.005827  -0.024476  15.625090   0.273942
     6  H   -0.029699   0.000019  -0.000255  -0.003714   0.273942   0.654346
     7  Mo  -0.219325  -0.023686   0.217479   0.167835  -0.007161   0.001153
     8  S   -0.049534  -0.000120   0.011384   0.012900   0.000026  -0.000005
     9  H    0.001759   0.000001   0.000456  -0.000039  -0.000000   0.000000
    10  S   -0.013362  -0.005300  -0.001168  -0.029259  -0.000108   0.000003
    11  H    0.003029   0.000004  -0.000016   0.002748   0.000000   0.000000
    12  H   -0.025515   0.264903   0.000114   0.001185  -0.001800  -0.000011
    13  Mo  -0.032866   0.146312  -0.020954   0.153194  -0.001291   0.003698
    14  S   -0.019313  -0.006498  -0.000031  -0.000947   0.000084  -0.000004
    15  H    0.002495   0.000179   0.000000  -0.000806  -0.000000   0.000000
    16  H    0.046310  -0.006084  -0.000790  -0.014611   0.003240   0.000141
               7          8          9         10         11         12
     1  Mo  -0.219325  -0.049534   0.001759  -0.013362   0.003029  -0.025515
     2  S   -0.023686  -0.000120   0.000001  -0.005300   0.000004   0.264903
     3  S    0.217479   0.011384   0.000456  -0.001168  -0.000016   0.000114
     4  S    0.167835   0.012900  -0.000039  -0.029259   0.002748   0.001185
     5  S   -0.007161   0.000026  -0.000000  -0.000108   0.000000  -0.001800
     6  H    0.001153  -0.000005   0.000000   0.000003   0.000000  -0.000011
     7  Mo  13.567528   0.301388  -0.021202   0.203133  -0.030896   0.003496
     8  S    0.301388  15.664395   0.258770  -0.019095  -0.003217   0.000000
     9  H   -0.021202   0.258770   0.681161  -0.007100   0.001004   0.000000
    10  S    0.203133  -0.019095  -0.007100  15.611566   0.258091   0.000102
    11  H   -0.030896  -0.003217   0.001004   0.258091   0.700768   0.000000
    12  H    0.003496   0.000000   0.000000   0.000102   0.000000   0.672179
    13  Mo  -0.176170  -0.023407   0.000053   0.109907  -0.031447  -0.024383
    14  S   -0.015368   0.000037  -0.000002  -0.001365  -0.002086   0.001122
    15  H    0.000338  -0.000003   0.000000  -0.005630   0.000669  -0.000008
    16  H   -0.005622  -0.000009  -0.000000  -0.008459   0.000200  -0.017188
              13         14         15         16
     1  Mo  -0.032866  -0.019313   0.002495   0.046310
     2  S    0.146312  -0.006498   0.000179  -0.006084
     3  S   -0.020954  -0.000031   0.000000  -0.000790
     4  S    0.153194  -0.000947  -0.000806  -0.014611
     5  S   -0.001291   0.000084  -0.000000   0.003240
     6  H    0.003698  -0.000004   0.000000   0.000141
     7  Mo  -0.176170  -0.015368   0.000338  -0.005622
     8  S   -0.023407   0.000037  -0.000003  -0.000009
     9  H    0.000053  -0.000002   0.000000  -0.000000
    10  S    0.109907  -0.001365  -0.005630  -0.008459
    11  H   -0.031447  -0.002086   0.000669   0.000200
    12  H   -0.024383   0.001122  -0.000008  -0.017188
    13  Mo  13.562700   0.280880  -0.023621   0.190683
    14  S    0.280880  15.606836   0.263637  -0.008994
    15  H   -0.023621   0.263637   0.683967   0.002378
    16  H    0.190683  -0.008994   0.002378   0.738718
 Mulliken charges:
               1
     1  Mo  -0.038387
     2  S   -0.001260
     3  S   -0.109076
     4  S    0.135497
     5  S   -0.136083
     6  H    0.100389
     7  Mo   0.037080
     8  S   -0.153509
     9  H    0.085141
    10  S   -0.091956
    11  H    0.101145
    12  H    0.125803
    13  Mo  -0.113287
    14  S   -0.097989
    15  H    0.076405
    16  H    0.080087
 Sum of Mulliken charges =  -0.00000
 Mulliken charges with hydrogens summed into heavy atoms:
               1
     1  Mo  -0.038387
     2  S    0.124543
     3  S   -0.109076
     4  S    0.135497
     5  S   -0.035694
     7  Mo   0.037080
     8  S   -0.068368
    10  S    0.009189
    13  Mo  -0.033200
    14  S   -0.021584
 Electronic spatial extent (au):  <R**2>=          66883.5280
 Charge=             -0.0000 electrons
 Dipole moment (field-independent basis, Debye):
    X=              1.2889    Y=              0.2326    Z=             -0.5685  Tot=              1.4278
 Quadrupole moment (field-independent basis, Debye-Ang):
   XX=           -166.0711   YY=           -169.6051   ZZ=           -175.9685
   XY=             -0.9741   XZ=             21.6251   YZ=              7.7822
 Traceless Quadrupole moment (field-independent basis, Debye-Ang):
   XX=              4.4771   YY=              0.9431   ZZ=             -5.4202
   XY=             -0.9741   XZ=             21.6251   YZ=              7.7822
 Octapole moment (field-independent basis, Debye-Ang**2):
  XXX=            561.4375  YYY=          -1345.0569  ZZZ=          -5156.0608  XYY=            194.6792
  XXY=           -397.2555  XXZ=          -1698.6247  XZZ=            472.8001  YZZ=           -301.1082
  YYZ=          -1670.0771  XYZ=             21.0610
 Hexadecapole moment (field-independent basis, Debye-Ang**3):
 XXXX=          -4584.3945 YYYY=          -9320.8189 ZZZZ=        -104802.7144 XXXY=           1232.3596
 XXXZ=           5683.2788 YYYX=           1420.8543 YYYZ=         -12833.8005 ZZZX=           9035.1884
 ZZZY=         -10806.7331 XXYY=          -2172.4951 XXZZ=         -18429.6323 YYZZ=         -18301.9247
 XXYZ=          -3880.7594 YYXZ=           2024.8183 ZZXY=            882.5571
 N-N= 1.733906596440D+03 E-N=-1.051314972909D+04  KE= 2.852143526153D+03
   1 Symmetry operations used in ECPInt.
 ECPInt:  NShTT=    3003 NPrTT=   20388 LenC2=    2806 LenP2D=   13498.
 LDataN:  DoStor=T MaxTD1= 6 Len=  172
 Calling FoFJK, ICntrl=      2127 FMM=F ISym2X=0 I1Cent= 0 IOpClX= 0 NMat=1 NMatS=1 NMatT=0.
 Defaulting to unpruned grid for atomic number  42.
 Defaulting to unpruned grid for atomic number  42.
 Defaulting to unpruned grid for atomic number  42.
 Defaulting to unpruned grid for atomic number  42.
 Defaulting to unpruned grid for atomic number  42.
 Defaulting to unpruned grid for atomic number  42.
 Defaulting to unpruned grid for atomic number  42.
 Defaulting to unpruned grid for atomic number  42.
 Defaulting to unpruned grid for atomic number  42.
 Defaulting to unpruned grid for atomic number  42.
 Defaulting to unpruned grid for atomic number  42.
 Defaulting to unpruned grid for atomic number  42.
 Defaulting to unpruned grid for atomic number  42.
 Defaulting to unpruned grid for atomic number  42.
 Defaulting to unpruned grid for atomic number  42.
 Defaulting to unpruned grid for atomic number  42.
 Defaulting to unpruned grid for atomic number  42.
 Defaulting to unpruned grid for atomic number  42.
 Defaulting to unpruned grid for atomic number  42.
 Defaulting to unpruned grid for atomic number  42.
 Defaulting to unpruned grid for atomic number  42.
 Defaulting to unpruned grid for atomic number  42.
 Defaulting to unpruned grid for atomic number  42.
 Defaulting to unpruned grid for atomic number  42.
 -------------------------------------------------------------------
 Center     Atomic                   Forces (Hartrees/Bohr)
 Number     Number              X              Y              Z
 -------------------------------------------------------------------
      1       42           0.000702522   -0.008049939    0.010703500
      2       16          -0.003899887    0.005066823    0.008742374
      3       16           0.004331490    0.000439363    0.000739516
      4       16          -0.003708585    0.000104248    0.002103743
      5       16          -0.002232569    0.001072044   -0.000355396
      6        1           0.000238250   -0.000496893   -0.000989963
      7       42          -0.002720579   -0.000127164   -0.004153349
      8       16           0.001026776   -0.000789917    0.000073557
      9        1          -0.000484525    0.000756888   -0.000175584
     10       16          -0.003791397   -0.000236548    0.000030271
     11        1           0.000813483    0.000520735    0.000515752
     12        1          -0.001252922   -0.000490975   -0.000048447
     13       42           0.013085280    0.008367772   -0.019715571
     14       16          -0.015431867   -0.009588005   -0.000177489
     15        1           0.002887554    0.006667123    0.005854141
     16        1           0.010436978   -0.003215555   -0.003147058
 -------------------------------------------------------------------
 Cartesian Forces:  Max     0.019715571 RMS     0.005706951

 GradGradGradGradGradGradGradGradGradGradGradGradGradGradGradGradGradGrad
 Berny optimization.
 FormGI is forming the generalized inverse of G from B-inverse, IUseBI=4.
 Internal  Forces:  Max     0.011251431 RMS     0.002801837
 Search for a local minimum.
 Step number   1 out of a maximum of  100
 All quantities printed in internal units (Hartrees-Bohrs-Radians)
 Mixed Optimization -- RFO/linear search
 Second derivative matrix not updated -- first step.
 ITU=  0
     Eigenvalues ---    0.00230   0.00230   0.00230   0.01235   0.01406
     Eigenvalues ---    0.01451   0.03113   0.03334   0.03907   0.04275
     Eigenvalues ---    0.05771   0.06283   0.07164   0.08155   0.09294
     Eigenvalues ---    0.09421   0.09485   0.10119   0.10313   0.10679
     Eigenvalues ---    0.11261   0.12234   0.12886   0.12989   0.13511
     Eigenvalues ---    0.13575   0.13877   0.14120   0.14977   0.15161
     Eigenvalues ---    0.15203   0.15891   0.16000   0.16000   0.16000
     Eigenvalues ---    0.18730   0.21527   0.24328   0.25159   0.25384
     Eigenvalues ---    0.25804   0.25889
 RFO step:  Lambda=-9.37240597D-03 EMin= 2.30000000D-03
 Linear search not attempted -- first point.
 Iteration  1 RMS(Cart)=  0.05768692 RMS(Int)=  0.00489222
 Iteration  2 RMS(Cart)=  0.00469632 RMS(Int)=  0.00038144
 Iteration  3 RMS(Cart)=  0.00002648 RMS(Int)=  0.00038040
 Iteration  4 RMS(Cart)=  0.00000000 RMS(Int)=  0.00038040
 Variable       Old X    -DE/DX   Delta X   Delta X   Delta X     New X
                                 (Linear)    (Quad)   (Total)
    R1        4.66576   0.00300   0.00000   0.02820   0.02767   4.69343
    R2        4.35143  -0.00411   0.00000  -0.02222  -0.02212   4.32931
    R3        4.59518   0.00156   0.00000   0.01710   0.01696   4.61214
    R4        4.42352  -0.00171   0.00000  -0.01134  -0.01134   4.41218
    R5        5.08267  -0.00053   0.00000   0.01422   0.01418   5.09686
    R6        4.91971   0.00615   0.00000   0.03853   0.03865   4.95836
    R7        2.55743  -0.00113   0.00000  -0.00429  -0.00429   2.55314
    R8        4.69718   0.00315   0.00000   0.03258   0.03298   4.73016
    R9        4.39685   0.00358   0.00000   0.02035   0.02022   4.41706
   R10        4.47937  -0.00342   0.00000  -0.01960  -0.01923   4.46014
   R11        4.50637  -0.00007   0.00000  -0.00706  -0.00705   4.49932
   R12        2.54501   0.00108   0.00000   0.00403   0.00403   2.54904
   R13        4.45400  -0.00048   0.00000  -0.00330  -0.00330   4.45070
   R14        4.72995   0.00166   0.00000  -0.00354  -0.00402   4.72593
   R15        4.87042   0.00293   0.00000   0.02592   0.02603   4.89644
   R16        2.54707   0.00089   0.00000   0.00334   0.00334   2.55041
   R17        2.56305  -0.00081   0.00000  -0.00309  -0.00309   2.55996
   R18        4.72798   0.00183   0.00000   0.02312   0.02333   4.75130
   R19        4.75074  -0.01056   0.00000  -0.10132  -0.10132   4.64942
   R20        3.09573   0.01125   0.00000   0.07070   0.07070   3.16643
   R21        2.58450  -0.00766   0.00000  -0.03031  -0.03031   2.55419
    A1        1.83648  -0.00336   0.00000  -0.01754  -0.01759   1.81888
    A2        1.94520   0.00026   0.00000   0.00365   0.00326   1.94846
    A3        2.06185   0.00389   0.00000   0.01862   0.01872   2.08057
    A4        1.82913  -0.00233   0.00000  -0.01597  -0.01619   1.81295
    A5        1.85252   0.00054   0.00000  -0.00425  -0.00417   1.84835
    A6        2.14458  -0.00018   0.00000   0.00275   0.00282   2.14740
    A7        1.76619   0.00124   0.00000   0.00975   0.00974   1.77593
    A8        1.59426  -0.00091   0.00000  -0.00262  -0.00261   1.59166
    A9        2.32903  -0.00157   0.00000  -0.00362  -0.00353   2.32550
   A10        2.30661  -0.00156   0.00000  -0.01592  -0.01595   2.29065
   A11        1.79444  -0.00219   0.00000  -0.00522  -0.00503   1.78941
   A12        1.86788  -0.00349   0.00000  -0.01186  -0.01182   1.85606
   A13        1.89026   0.00073   0.00000   0.00432   0.00432   1.89458
   A14        2.65199  -0.00012   0.00000  -0.00336  -0.00342   2.64857
   A15        2.05601   0.00088   0.00000   0.00584   0.00585   2.06186
   A16        1.87428  -0.00023   0.00000  -0.00588  -0.00588   1.86840
   A17        1.87280   0.00095   0.00000   0.00153   0.00143   1.87424
   A18        2.37419  -0.00067   0.00000   0.00278   0.00286   2.37705
   A19        1.76816   0.00018   0.00000   0.00246   0.00250   1.77066
   A20        2.15924  -0.00029   0.00000   0.00033   0.00038   2.15962
   A21        1.64455   0.00070   0.00000   0.00472   0.00469   1.64924
   A22        1.57456  -0.00072   0.00000  -0.00218  -0.00217   1.57239
   A23        2.58579  -0.00107   0.00000  -0.00100  -0.00096   2.58483
   A24        1.86714  -0.00035   0.00000  -0.00204  -0.00204   1.86511
   A25        1.76505  -0.00104   0.00000   0.00142   0.00154   1.76658
   A26        1.83127  -0.00143   0.00000  -0.00972  -0.00974   1.82153
   A27        2.11471  -0.00161   0.00000  -0.01252  -0.01267   2.10204
   A28        2.32638   0.00514   0.00000   0.05282   0.05343   2.37982
   A29        1.26756   0.00122   0.00000   0.01004   0.01019   1.27776
   A30        1.96337   0.00073   0.00000   0.00996   0.00922   1.97260
   A31        1.88028  -0.00352   0.00000  -0.02172  -0.02211   1.85817
   A32        2.39839  -0.00505   0.00000  -0.03743  -0.03756   2.36084
   A33        1.79113   0.00786   0.00000   0.04985   0.04904   1.84017
   A34        1.16513   0.00496   0.00000   0.04043   0.04045   1.20558
   A35        1.63887  -0.00010   0.00000  -0.00448  -0.00460   1.63427
   A36        1.83261   0.00097   0.00000   0.02950   0.02976   1.86236
   A37        1.32338   0.00019   0.00000   0.00114   0.00129   1.32467
   A38        2.59867  -0.00350   0.00000  -0.01626  -0.01767   2.58100
   A39        2.21036  -0.00060   0.00000  -0.00132  -0.00115   2.20921
   A40        1.77735  -0.00383   0.00000  -0.03461  -0.03503   1.74231
   A41        2.71082   0.00036   0.00000  -0.00080  -0.00084   2.70998
   A42        1.06023   0.00403   0.00000   0.04225   0.04275   1.10298
   A43        1.75133   0.00260   0.00000   0.01537   0.01537   1.76670
    D1        2.84814  -0.00057   0.00000  -0.01128  -0.01123   2.83691
    D2       -1.43467  -0.00168   0.00000  -0.02429  -0.02430  -1.45897
    D3        0.37716  -0.00057   0.00000  -0.01524  -0.01524   0.36191
    D4       -2.44004  -0.00006   0.00000  -0.01126  -0.01116  -2.45120
    D5       -2.00059  -0.00061   0.00000   0.00480   0.00502  -1.99557
    D6        1.93621   0.00021   0.00000   0.00639   0.00642   1.94263
    D7        0.01181   0.00023   0.00000   0.01268   0.01259   0.02439
    D8        0.70268  -0.00091   0.00000  -0.00111  -0.00107   0.70162
    D9       -0.74765   0.00152   0.00000   0.01490   0.01470  -0.73296
   D10       -2.67074   0.00253   0.00000   0.02306   0.02291  -2.64782
   D11        0.52546   0.00098   0.00000   0.00977   0.00978   0.53524
   D12        0.86836   0.00167   0.00000   0.02241   0.02229   0.89065
   D13       -2.21863   0.00012   0.00000   0.00912   0.00915  -2.20948
   D14       -0.49625   0.00102   0.00000   0.01549   0.01538  -0.48088
   D15        3.09860   0.00318   0.00000   0.00709   0.00659   3.10520
   D16        3.03922   0.00057   0.00000   0.01631   0.01622   3.05544
   D17        2.25734  -0.00023   0.00000   0.00837   0.00845   2.26579
   D18       -0.43099   0.00194   0.00000  -0.00003  -0.00033  -0.43132
   D19       -0.49037  -0.00067   0.00000   0.00919   0.00929  -0.48108
   D20        1.30699   0.00374   0.00000   0.03305   0.03363   1.34062
   D21        2.36806   0.00147   0.00000   0.01983   0.01983   2.38789
   D22       -2.81176  -0.00153   0.00000  -0.00590  -0.00517  -2.81693
   D23       -0.65341  -0.00193   0.00000  -0.03213  -0.03384  -0.68725
   D24        0.22131   0.00055   0.00000   0.01052   0.01069   0.23200
   D25        1.25564   0.00119   0.00000   0.00538   0.00543   1.26107
   D26        2.97588  -0.00070   0.00000  -0.01334  -0.01320   2.96268
   D27        2.21247  -0.00004   0.00000   0.00116   0.00118   2.21365
   D28       -1.87603   0.00036   0.00000  -0.00567  -0.00569  -1.88172
   D29       -0.21400   0.00070   0.00000  -0.00143  -0.00147  -0.21548
   D30       -0.45750  -0.00067   0.00000  -0.01184  -0.01194  -0.46944
   D31        1.88797   0.00075   0.00000   0.00098   0.00091   1.88888
   D32        3.03736  -0.00027   0.00000  -0.00632  -0.00626   3.03110
   D33        0.93345  -0.00030   0.00000  -0.00472  -0.00471   0.92874
   D34       -1.22795   0.00002   0.00000  -0.00511  -0.00514  -1.23309
   D35       -0.03838  -0.00315   0.00000  -0.03227  -0.03200  -0.07037
   D36        2.87489   0.00515   0.00000   0.07661   0.07565   2.95054
   D37        1.25017   0.00059   0.00000   0.00337   0.00331   1.25348
   D38        2.64499  -0.00241   0.00000  -0.01970  -0.01933   2.62566
   D39       -0.72493   0.00589   0.00000   0.08918   0.08832  -0.63661
   D40       -2.34965   0.00133   0.00000   0.01594   0.01598  -2.33367
   D41       -1.78713  -0.00117   0.00000  -0.01863  -0.01850  -1.80563
   D42       -3.09762   0.00267   0.00000   0.00837   0.00792  -3.08970
   D43       -0.83116  -0.00123   0.00000  -0.01781  -0.01782  -0.84898
   D44        1.02275  -0.00076   0.00000   0.00696   0.00725   1.03001
   D45        0.28461  -0.00132   0.00000  -0.02477  -0.02463   0.25998
   D46        2.15719   0.00073   0.00000   0.20305   0.20293   2.36012
   D47       -3.12002   0.00613   0.00000   0.23188   0.23324  -2.88678
   D48        1.10772   0.00164   0.00000   0.18823   0.18683   1.29455
   D49        0.24434  -0.00131   0.00000   0.12984   0.13053   0.37487
   D50       -0.59153   0.00265   0.00000   0.19603   0.19580  -0.39573
   D51        2.22215   0.00347   0.00000   0.19163   0.19134   2.41349
         Item               Value     Threshold  Converged?
 Maximum Force            0.011251     0.000450     NO 
 RMS     Force            0.002802     0.000300     NO 
 Maximum Displacement     0.342102     0.001800     NO 
 RMS     Displacement     0.057930     0.001200     NO 
 Predicted change in Energy=-5.997547D-03
 GradGradGradGradGradGradGradGradGradGradGradGradGradGradGradGradGradGrad

                          Input orientation:                          
 ---------------------------------------------------------------------
 Center     Atomic      Atomic             Coordinates (Angstroms)
 Number     Number       Type             X           Y           Z
 ---------------------------------------------------------------------
      1         42           0        0.094190    2.001359   11.036378
      2         16           0        0.699232    4.404797   11.197524
      3         16           0       -1.656954    1.763124   12.494216
      4         16           0       -0.790323    1.441843    8.831544
      5         16           0        1.789990    0.412048   10.813299
      6          1           0        1.676147   -0.169823    9.601699
      7         42           0       -2.509973    2.035612   10.335144
      8         16           0       -4.662754    1.080867   10.303307
      9          1           0       -5.502430    2.024291    9.827530
     10         16           0       -3.332567    3.946547    8.947362
     11          1           0       -3.526915    3.339629    7.751946
     12          1           0        1.939136    4.431401   10.661521
     13         42           0       -0.856209    3.766208    9.343262
     14         16           0       -0.025466    4.952140    7.354081
     15          1           0       -1.078587    4.829555    6.515759
     16          1           0        0.738230    3.488778    8.909167
 ---------------------------------------------------------------------
                    Distance matrix (angstroms):
                    1          2          3          4          5
     1  Mo   0.000000
     2  S    2.483659   0.000000
     3  S    2.290972   3.769809   0.000000
     4  S    2.440638   4.073786   3.777491   0.000000
     5  S    2.334825   4.156853   4.065994   3.412601   0.000000
     6  H    3.045476   4.942486   4.817936   3.045338   1.348892
     7  Mo   2.697141   4.081144   2.337410   2.360206   4.621068
     8  S    4.900328   6.371737   3.781586   4.158378   6.507328
     9  H    5.725731   6.782648   4.686909   4.851307   7.533290
    10  S    4.459866   4.639895   4.489453   3.570708   6.497306
    11  H    5.068615   5.555800   5.335846   3.500866   6.797948
    12  H    3.073995   1.351062   4.838422   4.442546   4.024981
    13  Mo   2.623850   2.503094   3.818645   2.380938   4.518159
    14  S    4.720247   3.949281   6.265186   3.884596   5.989532
    15  H    5.459862   5.025931   6.743846   4.113703   6.797937
    16  H    2.674365   2.465195   4.644068   2.555865   3.768048
                    6          7          8          9         10
     6  H    0.000000
     7  Mo   4.788057   0.000000
     8  S    6.499088   2.355211   0.000000
     9  H    7.509801   3.035226   1.349618   0.000000
    10  S    6.516124   2.500854   3.438039   3.029533   0.000000
    11  H    6.542912   3.067172   3.591877   3.152907   1.354673
    12  H    4.729022   5.063684   7.412108   7.865534   5.564555
    13  Mo   4.687425   2.591087   4.756315   4.985596   2.514281
    14  S    5.846518   4.854446   6.722286   6.684862   3.806136
    15  H    6.488865   4.943955   6.422184   6.197397   3.431154
    16  H    3.839877   3.833527   6.075549   6.475643   4.096633
                   11         12         13         14         15
    11  H    0.000000
    12  H    6.287711   0.000000
    13  Mo   3.137982   3.161367   0.000000
    14  S    3.875388   3.882009   2.460367   0.000000
    15  H    3.121274   5.143201   3.029015   1.351619   0.000000
    16  H    4.421863   2.324103   1.675602   2.267808   3.290427
                   16
    16  H    0.000000
 Symmetry turned off by external request.
 Stoichiometry    H6Mo3S7
 Framework group  C1[X(H6Mo3S7)]
 Deg. of freedom    42
 Full point group                 C1      NOp   1
 Rotational constants (GHZ):           0.3217835           0.2918525           0.1927544
 Basis read from rwf:  (5D, 7F)
 Pseudo-potential data read from rwf file.
   222 basis functions,   553 primitive gaussians,   235 cartesian basis functions
    80 alpha electrons       80 beta electrons
       nuclear repulsion energy      1733.9845651705 Hartrees.
 NAtoms=   16 NActive=   16 NUniq=   16 SFac= 1.00D+00 NAtFMM=   60 NAOKFM=F Big=F
 Integral buffers will be    131072 words long.
 Raffenetti 2 integral format.
 Two-electron integral symmetry is turned off.
 One-electron integrals computed using PRISM.
   1 Symmetry operations used in ECPInt.
 ECPInt:  NShTT=    3003 NPrTT=   20388 LenC2=    2805 LenP2D=   13497.
 LDataN:  DoStor=T MaxTD1= 5 Len=  102
 NBasis=   222 RedAO= T EigKep=  1.37D-03  NBF=   222
 NBsUse=   222 1.00D-06 EigRej= -1.00D+00 NBFU=   222
 Defaulting to unpruned grid for atomic number  42.
 Defaulting to unpruned grid for atomic number  42.
 Defaulting to unpruned grid for atomic number  42.
 Initial guess from the checkpoint file:  "/localscratch/chegho/Gau-127348.chk"
 B after Tr=     0.068881   -0.264081    0.059283
         Rot=    0.999978    0.006330    0.001681    0.001420 Ang=   0.77 deg.
 ExpMin= 2.47D-02 ExpMax= 2.19D+04 ExpMxC= 3.30D+03 IAcc=3 IRadAn=         5 AccDes= 0.00D+00
 Harris functional with IExCor=  402 and IRadAn=       5 diagonalized for initial guess.
 HarFok:  IExCor=  402 AccDes= 0.00D+00 IRadAn=         5 IDoV= 1 UseB2=F ITyADJ=14
 ICtDFT=  3500011 ScaDFX=  1.000000  1.000000  1.000000  1.000000
 Defaulting to unpruned grid for atomic number  42.
 FoFCou: FMM=F IPFlag=           0 FMFlag=      100000 FMFlg1=           0
         NFxFlg=           0 DoJE=T BraDBF=F KetDBF=T FulRan=T
         wScrn=  0.000000 ICntrl=       500 IOpCl=  0 I1Cent=   200000004 NGrid=           0
         NMat0=    1 NMatS0=      1 NMatT0=    0 NMatD0=    1 NMtDS0=    0 NMtDT0=    0
 Symmetry not used in FoFCou.
 Requested convergence on RMS density matrix=1.00D-08 within 128 cycles.
 Requested convergence on MAX density matrix=1.00D-06.
 Requested convergence on             energy=1.00D-06.
 No special actions if energy rises.
 Defaulting to unpruned grid for atomic number  42.
 Defaulting to unpruned grid for atomic number  42.
 Defaulting to unpruned grid for atomic number  42.
 Defaulting to unpruned grid for atomic number  42.
 Defaulting to unpruned grid for atomic number  42.
 Defaulting to unpruned grid for atomic number  42.
 Defaulting to unpruned grid for atomic number  42.
 Defaulting to unpruned grid for atomic number  42.
 Defaulting to unpruned grid for atomic number  42.
 Defaulting to unpruned grid for atomic number  42.
 Defaulting to unpruned grid for atomic number  42.
 Defaulting to unpruned grid for atomic number  42.
 Defaulting to unpruned grid for atomic number  42.
 Defaulting to unpruned grid for atomic number  42.
 Defaulting to unpruned grid for atomic number  42.
 Defaulting to unpruned grid for atomic number  42.
 Defaulting to unpruned grid for atomic number  42.
 Defaulting to unpruned grid for atomic number  42.
 Defaulting to unpruned grid for atomic number  42.
 Defaulting to unpruned grid for atomic number  42.
 Defaulting to unpruned grid for atomic number  42.
 Defaulting to unpruned grid for atomic number  42.
 Defaulting to unpruned grid for atomic number  42.
 Defaulting to unpruned grid for atomic number  42.
 EnCoef did     6 forward-backward iterations
 EnCoef did     6 forward-backward iterations
 SCF Done:  E(RB3LYP) =  -2993.75041223     A.U. after   17 cycles
            NFock= 17  Conv=0.72D-08     -V/T= 2.0497
   1 Symmetry operations used in ECPInt.
 ECPInt:  NShTT=    3003 NPrTT=   20388 LenC2=    2805 LenP2D=   13497.
 LDataN:  DoStor=T MaxTD1= 6 Len=  172
 Calling FoFJK, ICntrl=      2127 FMM=F ISym2X=0 I1Cent= 0 IOpClX= 0 NMat=1 NMatS=1 NMatT=0.
 Defaulting to unpruned grid for atomic number  42.
 Defaulting to unpruned grid for atomic number  42.
 Defaulting to unpruned grid for atomic number  42.
 Defaulting to unpruned grid for atomic number  42.
 Defaulting to unpruned grid for atomic number  42.
 Defaulting to unpruned grid for atomic number  42.
 Defaulting to unpruned grid for atomic number  42.
 Defaulting to unpruned grid for atomic number  42.
 Defaulting to unpruned grid for atomic number  42.
 Defaulting to unpruned grid for atomic number  42.
 Defaulting to unpruned grid for atomic number  42.
 Defaulting to unpruned grid for atomic number  42.
 Defaulting to unpruned grid for atomic number  42.
 Defaulting to unpruned grid for atomic number  42.
 Defaulting to unpruned grid for atomic number  42.
 Defaulting to unpruned grid for atomic number  42.
 Defaulting to unpruned grid for atomic number  42.
 Defaulting to unpruned grid for atomic number  42.
 Defaulting to unpruned grid for atomic number  42.
 Defaulting to unpruned grid for atomic number  42.
 Defaulting to unpruned grid for atomic number  42.
 Defaulting to unpruned grid for atomic number  42.
 Defaulting to unpruned grid for atomic number  42.
 Defaulting to unpruned grid for atomic number  42.
 -------------------------------------------------------------------
 Center     Atomic                   Forces (Hartrees/Bohr)
 Number     Number              X              Y              Z
 -------------------------------------------------------------------
      1       42           0.000217036   -0.004541202    0.005875190
      2       16          -0.006870722    0.001721206    0.005310054
      3       16           0.001445185    0.000571052    0.000501354
      4       16          -0.001214412    0.000467684    0.002294214
      5       16          -0.001788163   -0.000023754   -0.000887353
      6        1           0.000253147   -0.000113388   -0.000132366
      7       42          -0.000909258    0.001675977   -0.000842980
      8       16          -0.000091189   -0.000694890   -0.000270445
      9        1           0.000112125    0.000030197    0.000109282
     10       16          -0.002623397    0.001152869    0.001955798
     11        1           0.001087137   -0.000176751   -0.000086750
     12        1          -0.000901276   -0.000837862   -0.000717115
     13       42           0.021463390    0.002802040   -0.018986418
     14       16          -0.010375288   -0.005938577    0.003178622
     15        1          -0.001700434    0.004563145    0.000614127
     16        1           0.001896118   -0.000657745    0.002084786
 -------------------------------------------------------------------
 Cartesian Forces:  Max     0.021463390 RMS     0.004962301

 GradGradGradGradGradGradGradGradGradGradGradGradGradGradGradGradGradGrad
 Berny optimization.
 Using GEDIIS/GDIIS optimizer.
 FormGI is forming the generalized inverse of G from B-inverse, IUseBI=4.
 Internal  Forces:  Max     0.007806622 RMS     0.002223603
 Search for a local minimum.
 Step number   2 out of a maximum of  100
 All quantities printed in internal units (Hartrees-Bohrs-Radians)
 Mixed Optimization -- RFO/linear search
 Update second derivatives using D2CorX and points    1    2
 DE= -8.34D-03 DEPred=-6.00D-03 R= 1.39D+00
 TightC=F SS=  1.41D+00  RLast= 5.33D-01 DXNew= 5.0454D-01 1.5985D+00
 Trust test= 1.39D+00 RLast= 5.33D-01 DXMaxT set to 5.05D-01
 ITU=  1  0
 Use linear search instead of GDIIS.
     Eigenvalues ---    0.00190   0.00230   0.00230   0.01221   0.01397
     Eigenvalues ---    0.01449   0.01906   0.03201   0.03689   0.04178
     Eigenvalues ---    0.05103   0.05836   0.06448   0.07881   0.08152
     Eigenvalues ---    0.09482   0.09624   0.09965   0.10444   0.10748
     Eigenvalues ---    0.11264   0.11961   0.12497   0.13038   0.13504
     Eigenvalues ---    0.13585   0.13714   0.14115   0.14510   0.15247
     Eigenvalues ---    0.15528   0.15991   0.16000   0.16000   0.17413
     Eigenvalues ---    0.18874   0.21569   0.25150   0.25376   0.25769
     Eigenvalues ---    0.25871   0.28552
 RFO step:  Lambda=-8.58177102D-03 EMin= 1.90454453D-03
 Quartic linear search produced a step of  2.00000.
 Iteration  1 RMS(Cart)=  0.10032458 RMS(Int)=  0.05274759
 Iteration  2 RMS(Cart)=  0.05968171 RMS(Int)=  0.00871058
 Iteration  3 RMS(Cart)=  0.00591672 RMS(Int)=  0.00673886
 Iteration  4 RMS(Cart)=  0.00005745 RMS(Int)=  0.00673862
 Iteration  5 RMS(Cart)=  0.00000032 RMS(Int)=  0.00673862
 Variable       Old X    -DE/DX   Delta X   Delta X   Delta X     New X
                                 (Linear)    (Quad)   (Total)
    R1        4.69343   0.00032   0.05534  -0.00665   0.04006   4.73349
    R2        4.32931  -0.00194  -0.04424  -0.00491  -0.04648   4.28283
    R3        4.61214  -0.00014   0.03392  -0.01177   0.02006   4.63219
    R4        4.41218  -0.00092  -0.02267  -0.00699  -0.02966   4.38252
    R5        5.09686  -0.00162   0.02837  -0.01433   0.01262   5.10948
    R6        4.95836   0.00463   0.07730   0.03707   0.11722   5.07558
    R7        2.55314  -0.00056  -0.00858  -0.00234  -0.01093   2.54221
    R8        4.73016  -0.00068   0.06596  -0.03626   0.03563   4.76579
    R9        4.41706   0.00168   0.04043  -0.00016   0.03712   4.45418
   R10        4.46014  -0.00167  -0.03845  -0.00014  -0.03177   4.42837
   R11        4.49932  -0.00031  -0.01410  -0.01375  -0.02815   4.47117
   R12        2.54904   0.00015   0.00805  -0.00165   0.00641   2.55544
   R13        4.45070   0.00025  -0.00659   0.00736   0.00077   4.45147
   R14        4.72593   0.00102  -0.00803  -0.01396  -0.02810   4.69783
   R15        4.89644   0.00221   0.05206   0.02796   0.08087   4.97732
   R16        2.55041  -0.00009   0.00668  -0.00343   0.00325   2.55366
   R17        2.55996   0.00000  -0.00617   0.00237  -0.00380   2.55616
   R18        4.75130   0.00060   0.04665   0.01201   0.06140   4.81270
   R19        4.64942  -0.00781  -0.20263  -0.11033  -0.31297   4.33645
   R20        3.16643   0.00137   0.14140  -0.03480   0.10660   3.27303
   R21        2.55419   0.00053  -0.06061   0.02894  -0.03167   2.52251
    A1        1.81888  -0.00320  -0.03519  -0.02879  -0.06442   1.75446
    A2        1.94846  -0.00025   0.00652  -0.00656  -0.00528   1.94318
    A3        2.08057   0.00395   0.03743   0.03708   0.07397   2.15454
    A4        1.81295  -0.00254  -0.03237  -0.03177  -0.06669   1.74626
    A5        1.84835   0.00079  -0.00833   0.00497  -0.00186   1.84649
    A6        2.14740  -0.00007   0.00564   0.00013   0.00761   2.15501
    A7        1.77593   0.00087   0.01947   0.01101   0.02944   1.80537
    A8        1.59166  -0.00116  -0.00521  -0.00754  -0.01186   1.57980
    A9        2.32550  -0.00140  -0.00706  -0.00445  -0.00888   2.31662
   A10        2.29065  -0.00126  -0.03191  -0.01418  -0.04601   2.24464
   A11        1.78941  -0.00229  -0.01005  -0.01875  -0.02352   1.76589
   A12        1.85606  -0.00349  -0.02363  -0.03827  -0.06048   1.79559
   A13        1.89458   0.00061   0.00863   0.00610   0.01473   1.90931
   A14        2.64857  -0.00035  -0.00684  -0.00736  -0.01625   2.63232
   A15        2.06186   0.00056   0.01170   0.00575   0.01803   2.07989
   A16        1.86840   0.00019  -0.01175   0.00007  -0.01104   1.85736
   A17        1.87424   0.00016   0.00287  -0.00379  -0.00278   1.87145
   A18        2.37705  -0.00104   0.00572  -0.00501   0.00165   2.37870
   A19        1.77066   0.00062   0.00500   0.01231   0.01828   1.78894
   A20        2.15962  -0.00010   0.00076  -0.00354  -0.00297   2.15666
   A21        1.64924   0.00081   0.00938   0.01009   0.01881   1.66805
   A22        1.57239  -0.00019  -0.00434   0.00164  -0.00148   1.57091
   A23        2.58483  -0.00073  -0.00192  -0.00271  -0.00377   2.58106
   A24        1.86511  -0.00024  -0.00408  -0.00214  -0.00622   1.85888
   A25        1.76658  -0.00137   0.00308  -0.00961  -0.00399   1.76259
   A26        1.82153  -0.00201  -0.01948  -0.02920  -0.04867   1.77286
   A27        2.10204  -0.00153  -0.02535  -0.02180  -0.04914   2.05289
   A28        2.37982   0.00529   0.10686   0.09539   0.21009   2.58991
   A29        1.27776   0.00043   0.02039   0.00344   0.02565   1.30341
   A30        1.97260   0.00013   0.01845   0.00374   0.01144   1.98404
   A31        1.85817  -0.00346  -0.04423  -0.03687  -0.08640   1.77177
   A32        2.36084  -0.00497  -0.07512  -0.05993  -0.13584   2.22500
   A33        1.84017   0.00758   0.09808   0.08629   0.16457   2.00474
   A34        1.20558   0.00341   0.08090   0.01252   0.09236   1.29794
   A35        1.63427   0.00059  -0.00920   0.00684  -0.00380   1.63047
   A36        1.86236   0.00077   0.05952   0.04026   0.10428   1.96664
   A37        1.32467   0.00020   0.00258   0.02541   0.03017   1.35484
   A38        2.58100  -0.00365  -0.03534  -0.03880  -0.09311   2.48789
   A39        2.20921  -0.00059  -0.00229   0.01208   0.01294   2.22215
   A40        1.74231  -0.00399  -0.07007  -0.06632  -0.14124   1.60108
   A41        2.70998   0.00177  -0.00168   0.04797   0.04691   2.75689
   A42        1.10298   0.00500   0.08550   0.09357   0.18481   1.28779
   A43        1.76670   0.00267   0.03075   0.02947   0.06022   1.82692
    D1        2.83691  -0.00005  -0.02247   0.00502  -0.01709   2.81982
    D2       -1.45897  -0.00098  -0.04859  -0.00787  -0.05481  -1.51377
    D3        0.36191  -0.00045  -0.03049  -0.00143  -0.03192   0.32999
    D4       -2.45120   0.00000  -0.02232  -0.00071  -0.02123  -2.47243
    D5       -1.99557  -0.00025   0.01003  -0.00407   0.00914  -1.98643
    D6        1.94263   0.00001   0.01283  -0.00491   0.00912   1.95175
    D7        0.02439  -0.00012   0.02517  -0.00573   0.01781   0.04220
    D8        0.70162  -0.00056  -0.00213  -0.00682  -0.00873   0.69288
    D9       -0.73296   0.00123   0.02939   0.00187   0.02831  -0.70465
   D10       -2.64782   0.00189   0.04583   0.00650   0.04823  -2.59960
   D11        0.53524   0.00048   0.01956   0.00459   0.02372   0.55896
   D12        0.89065   0.00096   0.04457  -0.00305   0.03892   0.92957
   D13       -2.20948  -0.00044   0.01830  -0.00496   0.01442  -2.19506
   D14       -0.48088   0.00124   0.03075   0.02398   0.05176  -0.42912
   D15        3.10520   0.00336   0.01319   0.01905   0.02140   3.12660
   D16        3.05544  -0.00048   0.03244  -0.02836   0.00125   3.05669
   D17        2.26579   0.00014   0.01690   0.01745   0.03519   2.30098
   D18       -0.43132   0.00226  -0.00067   0.01252   0.00483  -0.42650
   D19       -0.48108  -0.00158   0.01858  -0.03489  -0.01532  -0.49640
   D20        1.34062   0.00310   0.06727   0.04054   0.11483   1.45545
   D21        2.38789   0.00128   0.03966   0.02653   0.06738   2.45527
   D22       -2.81693  -0.00124  -0.01035  -0.00908  -0.00841  -2.82534
   D23       -0.68725  -0.00251  -0.06768  -0.06240  -0.15859  -0.84584
   D24        0.23200   0.00066   0.02138   0.00258   0.02700   0.25901
   D25        1.26107   0.00125   0.01087   0.01305   0.02544   1.28651
   D26        2.96268  -0.00030  -0.02641   0.01340  -0.01004   2.95264
   D27        2.21365  -0.00024   0.00236   0.00905   0.01182   2.22547
   D28       -1.88172   0.00011  -0.01138   0.00218  -0.00972  -1.89144
   D29       -0.21548   0.00095  -0.00295   0.01520   0.01171  -0.20376
   D30       -0.46944  -0.00075  -0.02388  -0.01816  -0.04436  -0.51380
   D31        1.88888   0.00032   0.00182  -0.00626  -0.00601   1.88286
   D32        3.03110   0.00018  -0.01252  -0.00048  -0.01222   3.01889
   D33        0.92874  -0.00040  -0.00942  -0.00974  -0.01938   0.90936
   D34       -1.23309  -0.00033  -0.01028  -0.00689  -0.01736  -1.25046
   D35       -0.07037  -0.00234  -0.06399  -0.03434  -0.09322  -0.16360
   D36        2.95054   0.00553   0.15130   0.13810   0.26672  -3.06593
   D37        1.25348  -0.00053   0.00662  -0.04272  -0.03796   1.21551
   D38        2.62566  -0.00188  -0.03866  -0.00977  -0.04078   2.58489
   D39       -0.63661   0.00598   0.17663   0.16267   0.31917  -0.31744
   D40       -2.33367  -0.00007   0.03195  -0.01815   0.01448  -2.31919
   D41       -1.80563  -0.00114  -0.03700  -0.02389  -0.05918  -1.86482
   D42       -3.08970   0.00238   0.01585   0.01751   0.02784  -3.06186
   D43       -0.84898  -0.00100  -0.03564  -0.01986  -0.05638  -0.90536
   D44        1.03001  -0.00058   0.01451   0.01459   0.03418   1.06418
   D45        0.25998  -0.00085  -0.04926   0.01400  -0.03289   0.22709
   D46        2.36012   0.00009   0.40585   0.01559   0.41966   2.77978
   D47       -2.88678   0.00588   0.46648   0.07460   0.56424  -2.32255
   D48        1.29455   0.00148   0.37366   0.00626   0.35655   1.65110
   D49        0.37487  -0.00157   0.26105  -0.09275   0.18536   0.56023
   D50       -0.39573   0.00198   0.39159   0.01193   0.39863   0.00290
   D51        2.41349   0.00408   0.38268   0.06398   0.43650   2.84999
         Item               Value     Threshold  Converged?
 Maximum Force            0.007807     0.000450     NO 
 RMS     Force            0.002224     0.000300     NO 
 Maximum Displacement     0.754454     0.001800     NO 
 RMS     Displacement     0.144185     0.001200     NO 
 Predicted change in Energy=-1.530646D-02
 GradGradGradGradGradGradGradGradGradGradGradGradGradGradGradGradGradGrad

                          Input orientation:                          
 ---------------------------------------------------------------------
 Center     Atomic      Atomic             Coordinates (Angstroms)
 Number     Number       Type             X           Y           Z
 ---------------------------------------------------------------------
      1         42           0        0.127842    1.973725   11.077564
      2         16           0        0.628540    4.424585   11.207521
      3         16           0       -1.632571    1.835002   12.498183
      4         16           0       -0.744893    1.357499    8.871383
      5         16           0        1.766659    0.341543   10.908370
      6          1           0        1.671454   -0.267348    9.704686
      7         42           0       -2.461251    2.061326   10.303244
      8         16           0       -4.632982    1.149197   10.279975
      9          1           0       -5.440848    2.094626    9.751171
     10         16           0       -3.230743    3.931081    8.856860
     11          1           0       -3.402760    3.290972    7.677720
     12          1           0        1.885039    4.459844   10.728203
     13         42           0       -0.718051    3.700177    9.201991
     14         16           0       -0.275931    4.861055    7.272540
     15          1           0       -1.477826    5.172251    6.782184
     16          1           0        0.933068    3.362841    8.802145
 ---------------------------------------------------------------------
                    Distance matrix (angstroms):
                    1          2          3          4          5
     1  Mo   0.000000
     2  S    2.504856   0.000000
     3  S    2.266375   3.672107   0.000000
     4  S    2.451252   4.092784   3.764261   0.000000
     5  S    2.319129   4.249240   4.038897   3.389598   0.000000
     6  H    3.047940   5.035913   4.810414   3.028738   1.352283
     7  Mo   2.703821   3.993685   2.357051   2.343391   4.604243
     8  S    4.897085   6.266748   3.793842   4.140622   6.480940
     9  H    5.725753   6.662367   4.702813   4.834188   7.507367
    10  S    4.476926   4.545681   4.495212   3.578126   6.485946
    11  H    5.075355   5.476856   5.337629   3.496771   6.771936
    12  H    3.064406   1.345280   4.732463   4.470892   4.123939
    13  Mo   2.685879   2.521949   3.896165   2.366043   4.512863
    14  S    4.793528   4.061114   6.189087   3.879578   6.149586
    15  H    5.590977   4.957760   6.620711   4.410700   7.133571
    16  H    2.784881   2.646861   4.751578   2.615673   3.776148
                    6          7          8          9         10
     6  H    0.000000
     7  Mo   4.781239   0.000000
     8  S    6.487177   2.355618   0.000000
     9  H    7.494393   3.030494   1.351340   0.000000
    10  S    6.509773   2.485987   3.424969   3.009472   0.000000
    11  H    6.520573   3.048253   3.587810   3.143922   1.352664
    12  H    4.841441   4.982340   7.324335   7.759992   5.472910
    13  Mo   4.658722   2.633882   4.795438   5.018386   2.546773
    14  S    6.000679   4.668969   6.465790   6.361847   3.479343
    15  H    6.931682   4.800296   6.194716   5.830282   2.986218
    16  H    3.812881   3.933020   6.169693   6.567787   4.202763
                   11         12         13         14         15
    11  H    0.000000
    12  H    6.215507   0.000000
    13  Mo   3.114243   3.111672   0.000000
    14  S    3.522270   4.095408   2.294752   0.000000
    15  H    2.836646   5.233302   2.932529   1.334857   0.000000
    16  H    4.479833   2.412336   1.732013   2.458864   3.628584
                   16
    16  H    0.000000
 Symmetry turned off by external request.
 Stoichiometry    H6Mo3S7
 Framework group  C1[X(H6Mo3S7)]
 Deg. of freedom    42
 Full point group                 C1      NOp   1
 Rotational constants (GHZ):           0.3191984           0.2951271           0.1941107
 Basis read from rwf:  (5D, 7F)
 Pseudo-potential data read from rwf file.
   222 basis functions,   553 primitive gaussians,   235 cartesian basis functions
    80 alpha electrons       80 beta electrons
       nuclear repulsion energy      1740.6127517056 Hartrees.
 NAtoms=   16 NActive=   16 NUniq=   16 SFac= 1.00D+00 NAtFMM=   60 NAOKFM=F Big=F
 Integral buffers will be    131072 words long.
 Raffenetti 2 integral format.
 Two-electron integral symmetry is turned off.
 One-electron integrals computed using PRISM.
   1 Symmetry operations used in ECPInt.
 ECPInt:  NShTT=    3003 NPrTT=   20388 LenC2=    2805 LenP2D=   13515.
 LDataN:  DoStor=T MaxTD1= 5 Len=  102
 NBasis=   222 RedAO= T EigKep=  1.37D-03  NBF=   222
 NBsUse=   222 1.00D-06 EigRej= -1.00D+00 NBFU=   222
 Defaulting to unpruned grid for atomic number  42.
 Defaulting to unpruned grid for atomic number  42.
 Defaulting to unpruned grid for atomic number  42.
 Initial guess from the checkpoint file:  "/localscratch/chegho/Gau-127348.chk"
 B after Tr=     0.106661   -0.633025    0.123138
         Rot=    0.999873    0.015411    0.002333    0.003393 Ang=   1.83 deg.
 ExpMin= 2.47D-02 ExpMax= 2.19D+04 ExpMxC= 3.30D+03 IAcc=3 IRadAn=         5 AccDes= 0.00D+00
 Harris functional with IExCor=  402 and IRadAn=       5 diagonalized for initial guess.
 HarFok:  IExCor=  402 AccDes= 0.00D+00 IRadAn=         5 IDoV= 1 UseB2=F ITyADJ=14
[...]

 Dipole orientation:
    42        -14.67946144         -8.42884706         13.14090418
    16        -15.19569666         -4.77166106         16.04976613
    16        -18.84046234         -9.05438804         12.22722603
    16        -12.63888769         -6.94589818          9.31190287
    16        -11.83552912        -11.76086148         13.40513325
     1        -10.15541735        -11.57691591         11.49403307
    42        -17.06748018         -6.20627191          9.28809186
    16        -18.14428319         -6.11420531          4.97153858
     1        -18.66791310         -3.63950390          4.60046643
    16        -18.17039128         -1.85264973         10.16200120
     1        -17.72132226         -0.53893943          7.99297826
     1        -12.91813243         -4.80106322         17.20603486
    42        -13.86632072         -3.47256045         11.74396856
    16        -11.52830900          0.01926989         10.32734583
     1        -13.26782904          1.20767098          8.87394141
     1        -10.97176858         -3.98314645         13.05538196

 Electric dipole moment (dipole orientation):
 (Debye = 10**-18 statcoulomb cm , SI units = C m)
                  (au)            (Debye)         (10**-30 SI)
   Tot        0.436869D+00      0.111041D+01      0.370393D+01
   x          0.000000D+00      0.000000D+00      0.000000D+00
   y          0.000000D+00      0.000000D+00      0.000000D+00
   z          0.436869D+00      0.111041D+01      0.370393D+01

 Dipole polarizability, Alpha (dipole orientation).
 (esu units = cm**3 , SI units = C**2 m**2 J**-1)
 Alpha(0;0):
               (au)            (10**-24 esu)      (10**-40 SI)
   iso        0.272036D+03      0.403116D+02      0.448527D+02
   aniso      0.108623D+03      0.160963D+02      0.179096D+02
   xx         0.247009D+03      0.366030D+02      0.407263D+02
   yx         0.905329D+00      0.134156D+00      0.149269D+00
   yy         0.303153D+03      0.449227D+02      0.499832D+02
   zx         0.418700D+02      0.620449D+01      0.690343D+01
   zy        -0.369220D+02     -0.547128D+01     -0.608762D+01
   zz         0.265946D+03      0.394091D+02      0.438485D+02

 ----------------------------------------------------------------------
 Unable to Open any file for archive entry.
 1\1\GINC-NODE21\Freq\RB3LYP\Gen\H6Mo3S7\CHEGHO\08-Jul-2023\0\\#N Geom=
 AllCheck Guess=TCheck SCRF=Check GenChk RB3LYP/ChkBas Freq\\Title Card
  Required\\0,1\Mo,0.1688764154,1.9580143663,11.168306649\S,0.543057022
 7,4.4168169118,11.1071068297\S,-1.6353094479,1.9486186076,12.559911627
 3\S,-0.5979750527,1.2493993806,8.978051971\S,1.7437712514,0.2513554918
 ,11.1881994119\H,1.6785015823,-0.4230590996,10.0204722199\Mo,-2.359530
 5685,2.1114038854,10.3194162452\S,-4.2938121421,1.0567197134,9.4881927
 388\H,-4.9291999794,2.0765319096,8.8664691967\S,-3.0082592957,4.362602
 3146,9.7083372531\H,-3.7668073623,4.2521997076,8.5815677266\H,1.807825
 8876,4.4494013198,10.6311678888\Mo,-0.6354036293,3.5824001942,9.088654
 6327\S,-0.6921765693,4.3837778814,6.8837485297\H,-2.0041479148,4.69609
 19156,6.7590521483\H,0.9753368027,3.3761024999,8.5750849311\\Version=E
 S64L-G16RevC.01\HF=-2993.7792992\RMSD=4.320e-09\RMSF=1.043e-05\ZeroPoi
 nt=0.0622344\Thermal=0.0805067\ETot=-2993.6987925\HTot=-2993.6978483\G
 Tot=-2993.7651516\Dipole=0.290505,0.2349236,0.2264343\DipoleDeriv=0.95
 39792,-0.3560027,-0.135433,-0.5645537,0.886984,-0.139975,-0.1988483,0.
 128157,0.2095348,0.0227465,-0.0865495,-0.260565,-0.17229,-0.2160187,-0
 .1225748,-0.2755539,-0.0532346,-0.0778959,-0.3089676,0.0914691,0.14300
 21,0.0058115,-0.0009905,0.0428778,-0.0133627,0.0030272,-0.6076591,0.10
 92812,0.0153446,0.0243353,0.1024159,-0.1714629,-0.2230836,0.0813747,-0
 .1960582,0.0648639,-0.6380754,0.4559759,-0.0421206,0.5030485,-0.609969
 2,0.1360821,-0.0160749,0.112808,0.0076969,0.1055844,-0.0332906,-0.0793
 304,0.0349958,0.1134941,0.0242465,-0.0012585,-0.0832049,0.0108944,0.73
 38128,0.1706502,0.2917777,0.3277128,0.3023815,0.2685939,0.5209354,0.15
 56849,0.4025755,-0.745585,-0.2690144,-0.1254535,-0.4313532,-0.071295,-
 0.2637465,-0.3082388,-0.2634709,-0.209092,0.0155735,-0.0920626,0.01182
 28,0.1169336,-0.0502377,0.1126639,-0.0165041,0.0486936,0.0980086,-0.14
 34582,-0.0085243,0.1725647,0.0361129,-0.2554122,0.0101934,0.086716,0.0
 04363,0.0926399,-0.0769941,0.0448588,-0.0430471,0.0060444,0.054516,-0.
 0576591,-0.1552003,0.0581692,-0.0849781,0.064041,0.012497,0.0088466,0.
 0599025,0.0660098,-0.0548079,0.0491795,-0.0030669,0.0304496,0.0585888,
 0.0397575,0.1095079,0.1246218,0.1756154,-0.0363403,0.1126194,-0.270254
 9,0.9303267,0.239212,0.002962,-0.1293083,-0.0684619,-0.2445919,0.20281
 46,-0.0583286,0.3600454,-0.8375523,-0.1022337,0.058538,-0.0293093,-0.0
 207831,0.0324693,0.0881274,0.138087,0.0156972,0.02131,-0.2875053,-0.04
 66089,0.08271,-0.0601579,-0.011492,0.0125875,0.0544581,-0.0173553,-0.0
 511227\Polar=309.2264897,-9.1626073,246.1830072,28.0106494,-44.4347029
 ,260.6987746\Quadrupole=-0.1577197,-1.2938822,1.4516018,-2.536489,11.2
 807369,6.8865947\PG=C01 [X(H6Mo3S7)]\NImag=0\\0.25523114,-0.04241178,0
 .21637950,-0.00600108,0.02453546,0.20378457,-0.01002524,-0.01182664,0.
 00391780,0.25802586,-0.00658674,-0.07995343,-0.00550277,0.02146723,0.1
 0193892,0.00502085,-0.00018975,-0.00076549,-0.06932067,0.02006060,0.09
 901037,-0.08052104,-0.00182087,0.05829643,-0.00114563,-0.00147913,0.00
 173932,0.08767038,-0.00361750,-0.01099029,-0.00107442,-0.00175892,0.00
 084309,0.00233150,0.00078457,0.01581983,0.06811725,-0.00645710,-0.0679
 3128,0.00031694,0.00179985,0.00019962,-0.04706621,-0.00569832,0.171155
 57,-0.01694326,-0.00558223,-0.02181747,0.00298319,-0.00318528,-0.00457
 957,-0.00021748,-0.00020761,0.00263393,0.09084173,-0.00600390,-0.01334
 398,-0.03064580,0.00004085,-0.00039890,-0.00206726,-0.00097174,0.00351
 006,0.00515583,-0.02400882,0.15491705,-0.02653760,-0.02418055,-0.07535
 259,0.00074127,0.00078095,0.00017618,0.00314352,-0.00178545,-0.0048048
 9,-0.02142283,0.04805100,0.12276717,-0.05107252,0.04109360,-0.00516454
 ,0.00214519,0.00250649,-0.00168949,-0.00293724,-0.00053355,0.00030121,
 -0.00390670,0.00383001,-0.00153513,0.06701530,0.04832273,-0.07233757,-
 0.00318938,-0.00030720,0.00042618,0.00085842,0.00607291,0.00223344,-0.
 00282472,0.00071219,0.00068048,0.00054040,-0.04519979,0.13105051,0.005
 74105,-0.01677350,-0.02839445,-0.00033564,0.00072433,-0.00041460,-0.00
 217282,-0.00239504,0.00362303,-0.00562448,0.00533709,-0.00030609,0.023
 77744,0.11269498,0.22358700,-0.00413142,0.01121559,0.00718486,-0.00000
 526,-0.00020161,-0.00006789,-0.00018665,0.00023265,0.00066762,-0.00065
 589,-0.00030704,-0.00012652,-0.00804846,-0.01139419,-0.02103594,0.0112
 3705,0.00531413,-0.00931068,-0.00654329,-0.00003068,0.00019702,-0.0004
 1863,-0.00042963,-0.00041013,0.00094998,-0.00006150,0.00045087,0.00123
 978,-0.00707674,-0.06281759,-0.10448301,0.00194569,0.07095873,0.001718
 21,0.00059992,0.00337929,0.00041719,0.00005405,0.00031892,-0.00034017,
 -0.00001131,-0.00050724,-0.00025335,0.00094179,0.00057462,-0.01478161,
 -0.11048275,-0.20182078,0.01427355,0.10959732,0.19889256,-0.07450540,-
 0.00367732,-0.01981619,-0.00367836,-0.00262050,0.00015902,-0.01146396,
 0.00404084,-0.02213939,-0.06071107,0.03263036,0.04659067,-0.00307086,0
 .00099577,0.00228796,0.00188421,0.00150073,-0.00186136,0.29323167,0.01
 881640,-0.00745608,0.00447456,-0.00080073,-0.00181487,-0.00061997,-0.0
 0485230,-0.01225160,0.00418673,0.02848096,-0.01388979,-0.02464589,0.00
 345850,0.00308965,0.00363698,-0.00262111,-0.00051894,-0.00048559,0.012
 39980,0.18880922,-0.03599417,0.00579273,-0.00105523,-0.00146351,-0.000
 04724,0.00369364,-0.01604738,0.00370441,-0.09744396,0.04720709,-0.0265
 8961,-0.04294402,-0.00140741,-0.00151871,0.00185385,0.00118561,0.00073
 599,-0.00078827,0.01956833,-0.02730157,0.21770551,-0.00370827,-0.00169
 863,-0.00165308,0.00044805,-0.00030981,-0.00005759,-0.00132401,0.00150
 902,-0.00354411,-0.00269256,-0.00105086,-0.00227574,0.00013526,0.00088
 465,0.00074966,-0.00031165,0.00024050,0.00005571,-0.06738968,-0.036721
 65,-0.02816987,0.13290102,-0.00853135,0.00420173,-0.00212810,-0.001033
 02,-0.00063101,-0.00010200,-0.00025032,0.00072939,-0.00231771,-0.00105
 525,0.00197405,-0.00006664,-0.00075387,-0.00072084,0.00039376,0.000737
 33,0.00096924,-0.00026118,-0.02530046,-0.03727674,-0.00004836,-0.04862
 260,0.18853413,-0.00414937,-0.00160009,-0.00175696,0.00017361,0.000290
 62,-0.00022617,0.00179073,-0.00109325,0.00194363,0.00157074,-0.0012198
 6,0.00065246,0.00023827,0.00001723,0.00001075,-0.00016845,0.00007286,0
 .00016174,-0.02973408,-0.00773150,-0.02253807,0.08410634,-0.07703095,0
 .07069294,0.00143181,-0.00101406,-0.00057393,0.00026284,0.00038304,-0.
 00009632,0.00059294,-0.00042657,0.00013891,0.00094217,-0.00096262,0.00
 010476,-0.00008005,0.00005640,-0.00020606,-0.00004754,-0.00014983,0.00
 007785,-0.01091663,0.00469306,-0.00623698,-0.05625679,0.08391605,-0.05
 192117,0.06453786,0.00060331,-0.00089782,0.00042063,0.00032414,-0.0001
 1570,-0.00001179,0.00014353,0.00025151,0.00034316,-0.00010042,-0.00019
 835,0.00012108,0.00036869,0.00025995,0.00003608,-0.00027871,-0.0001904
 9,0.00008645,0.00053917,0.00370068,-0.00535190,0.08699449,-0.15352690,
 0.09009702,-0.08537979,0.15090136,0.00229514,-0.00043298,0.00141467,0.
 00031121,-0.00016284,0.00004091,-0.00054216,0.00021448,-0.00014775,-0.
 00083198,0.00058966,0.00066794,0.00013237,0.00038653,0.00015748,-0.000
 22116,-0.00014037,0.00001776,-0.00381974,-0.00080725,-0.00542365,-0.05
 298689,0.08768292,-0.05362190,0.05681345,-0.08706544,0.05635798,-0.001
 20321,0.00289277,0.00207115,-0.00188449,-0.00066541,-0.00121699,0.0008
 1065,-0.00136530,-0.00124606,-0.00352135,0.00004803,0.00007906,0.00033
 654,-0.00035875,-0.00016937,0.00003690,-0.00007524,0.00002419,-0.01237
 534,0.01477461,-0.01064389,-0.00019997,-0.00397199,-0.00090584,-0.0000
 2816,-0.00286042,0.00137045,0.13790468,0.00317321,-0.00026860,-0.00112
 386,0.00068617,0.00030591,-0.00089048,0.00067179,0.00036661,0.00124199
 ,0.00513086,-0.00186951,0.00276426,-0.00063575,-0.00025252,-0.00044790
 ,0.00022799,0.00008937,0.00008350,0.00505978,-0.07417546,0.00755490,0.
 00157620,-0.00391518,-0.00122285,-0.00125757,-0.00024541,0.00085626,-0
 .01149312,0.10683522,0.00010212,0.00134415,-0.00169112,-0.00052233,0.0
 0032030,-0.00016586,-0.00282086,0.00043473,-0.00249880,0.00117200,-0.0
 0198669,0.00346879,0.00000781,-0.00007962,-0.00046794,0.00000944,-0.00
 007409,0.00008747,-0.00356041,0.02246339,-0.01106179,0.00027044,0.0001
 5954,-0.00017674,-0.00079857,-0.00183296,0.00028188,0.09503139,0.01404
 909,0.20544576,0.00142708,-0.00010177,-0.00011724,0.00004728,0.0004253
 0,0.00000034,-0.00048566,-0.00036496,-0.00127685,0.00047515,-0.0014073
 0,0.00073703,-0.00029648,0.00001815,-0.00020995,0.00010514,-0.00000727
 ,0.00001799,-0.00356894,0.00595687,0.00066007,0.00170800,-0.00025636,0
 .00112008,-0.00001146,0.00126103,-0.00062892,-0.07380785,-0.01666696,-
 0.09498404,0.08123780,0.00031804,-0.00021085,0.00005042,-0.00028696,0.
 00022683,0.00039602,-0.00010369,0.00028188,0.00032361,-0.00111040,0.00
 068478,-0.00042328,0.00008951,0.00000918,0.00019941,0.00000365,0.00003
 027,-0.00002780,0.00866183,-0.00119914,0.00942642,-0.00037849,0.000303
 08,0.00003073,-0.00073136,0.00032553,-0.00068606,-0.01978114,-0.018314
 47,-0.02692756,0.00946279,0.01956138,0.00050960,-0.00089100,0.00057610
 ,0.00029789,-0.00007186,-0.00056261,0.00011635,0.00016336,0.00019864,0
 .00020838,0.00142869,0.00003047,-0.00013848,0.00000252,-0.00010948,0.0
 0006512,-0.00002119,0.00006391,-0.00612897,0.00254556,-0.00187429,0.00
 088683,-0.00139651,0.00067194,0.00093427,0.00111000,-0.00000128,-0.098
 99273,-0.02268739,-0.17220566,0.10201744,0.01763075,0.16748661,-0.0005
 5291,-0.00168431,0.00035825,-0.22300478,-0.00412353,0.08380049,0.00041
 491,0.00028482,-0.00031780,0.00000853,0.00046181,-0.00001772,-0.000218
 73,0.00038299,0.00005895,-0.00000381,0.00001174,-0.00005897,-0.0000106
 7,-0.00021842,-0.00117438,-0.00001941,0.00016795,0.00002150,-0.0000303
 1,-0.00004760,-0.00005810,0.00041482,-0.00017177,0.00004217,0.00000599
 ,0.00001498,0.00003848,0.22908137,-0.00960636,-0.00051208,0.00313526,0
 .00321627,-0.01202202,-0.00078572,0.00053091,-0.00020860,-0.00006371,0
 .00005338,-0.00017987,-0.00001211,0.00095806,-0.00035837,-0.00032275,0
 .00012750,0.00003450,0.00008262,-0.00006083,-0.00018394,-0.00064478,0.
 00022834,-0.00012147,0.00005344,0.00000833,0.00013209,0.00002986,-0.00
 005728,0.00021461,0.00035113,0.00004455,0.00005262,-0.00017212,0.00716
 934,0.01467462,0.00156782,-0.00143146,-0.00113888,0.08992304,0.0028559
 6,-0.04167901,0.00025551,0.00046273,0.00058639,0.00036537,0.00082437,0
 .00079010,0.00034113,0.00034339,0.00034933,-0.00036360,-0.00007087,-0.
 00000855,-0.00020573,0.00013257,-0.00141307,0.00006462,0.00003104,-0.0
 0003585,-0.00003427,-0.00000355,0.00004171,-0.00002861,0.00020027,0.00
 011604,0.00008295,-0.00011011,0.00016853,-0.08237649,-0.00026739,0.044
 47400,-0.01635584,0.01862255,-0.02144992,-0.02768565,-0.00442807,-0.01
 086886,0.01042780,0.00226602,0.00309743,-0.00708598,0.00109725,0.00167
 019,0.00008680,-0.00085102,-0.00329850,-0.00012043,-0.00158666,0.00114
 562,-0.04834124,-0.05046562,0.03345124,-0.00362205,0.00758145,-0.00215
 724,-0.00098795,-0.00189519,-0.00289940,-0.04007873,0.01500067,-0.0040
 4923,-0.00910855,0.00432918,0.00078251,-0.00847478,-0.00283465,-0.0093
 5849,0.28553432,0.00020878,-0.02960186,0.01878376,-0.01295417,-0.01027
 766,-0.01958874,0.00183577,0.00068548,0.00249457,0.00809153,-0.1329213
 5,-0.00846048,0.00191422,-0.00054217,0.00188151,0.00019909,0.00062523,
 -0.00017296,-0.03346250,-0.05294641,0.03695145,-0.00239549,-0.00062312
 ,0.00061546,0.00134014,-0.00040742,-0.00069623,0.02693720,-0.01182994,
 -0.01003947,0.00190798,-0.00179861,0.00277827,-0.00298466,-0.00103090,
 -0.00304468,-0.00800582,0.29519960,-0.01354382,0.01663915,-0.02490993,
 -0.02657985,-0.01620211,-0.05484514,0.00522347,0.00597097,-0.00406859,
 0.00250780,-0.00441731,-0.00724869,-0.00043275,0.00206951,0.00120224,-
 0.00089614,-0.00101706,-0.00051805,0.01784975,0.02688757,-0.04027733,0
 .00057664,-0.00716109,0.00332582,0.00228580,0.00244975,0.00050464,0.01
 028576,0.00043600,-0.01481516,-0.00930132,0.00034376,0.00396362,-0.001
 58794,-0.00170649,-0.00065196,-0.01272360,-0.05538547,0.26869602,0.002
 38927,-0.00332548,0.00025228,0.00109450,0.00015369,-0.00003770,-0.0016
 8911,-0.00046756,0.00020176,0.00187990,-0.00066550,-0.00120796,-0.0005
 3563,-0.00008512,0.00078309,0.00033546,0.00058685,-0.00039175,0.002742
 91,0.00730555,0.00018912,0.00007206,-0.00264980,0.00025271,0.00070242,
 0.00039758,0.00091196,-0.00112354,-0.00097489,0.00362156,0.00171034,-0
 .00037751,0.00050887,0.00032186,0.00010429,0.00007097,-0.02598628,0.00
 293318,-0.00085727,0.26030881,0.00042901,0.00145593,0.00046759,0.00206
 478,0.00089689,0.00294935,-0.00060857,0.00036515,0.00039512,0.00028595
 ,0.00014416,0.00193265,0.00009773,-0.00010304,-0.00041635,0.00002975,-
 0.00016235,-0.00001256,-0.00071340,-0.00019926,0.00085763,-0.00048418,
 -0.00000290,-0.00030228,0.00005977,-0.00006781,-0.00010675,0.00048494,
 0.00228539,0.00070005,0.00028573,-0.00024992,-0.00086537,0.00017069,-0
 .00001925,0.00041658,-0.00071680,-0.02099806,0.03148510,-0.05482548,0.
 03761901,-0.00119665,0.00550725,-0.00708200,-0.00101928,-0.00144432,-0
 .00028294,0.00037695,-0.00070703,-0.00021847,0.00010748,0.00168072,-0.
 00012107,0.00030756,0.00047311,0.00010222,-0.00049037,-0.00013160,0.00
 041973,0.00068680,-0.00079158,-0.00121398,0.00127408,0.00268601,0.0009
 6984,-0.00029720,-0.00042262,-0.00078523,-0.00049372,0.00131311,-0.006
 71871,-0.00129443,0.00023425,0.00169112,0.00027077,0.00011223,-0.00036
 588,0.01186466,0.02845645,-0.09280885,0.01144011,-0.04199456,0.1168400
 8,-0.00018505,-0.00021112,0.00053642,0.00019426,0.00010658,-0.00001826
 ,0.00019621,0.00007872,-0.00006679,-0.00030114,0.00004171,0.00007814,-
 0.00000034,0.00007109,-0.00004898,-0.00001243,-0.00003774,0.00001252,-
 0.00100695,-0.00065069,-0.00022734,0.00010975,-0.00010466,0.00004774,0
 .00004277,0.00002152,0.00001203,0.00134716,-0.00111972,0.00374977,0.00
 051698,0.00000405,-0.00161868,-0.00003710,0.00001032,0.00010981,-0.001
 99365,0.00277640,-0.00387251,-0.24141744,0.05299557,-0.01712419,0.2414
 0473,-0.00026595,0.00009448,0.00103451,0.00011002,0.00012365,-0.000236
 81,0.00082192,-0.00004005,-0.00041011,-0.00016870,0.00080114,0.0006089
 4,0.00002239,-0.00019625,0.00012948,0.00001017,0.00006572,-0.00001244,
 0.00038485,-0.00097857,-0.00090231,0.00012029,0.00028061,-0.00000894,-
 0.00026435,0.00006030,-0.00001685,-0.00018054,-0.00117381,-0.00045994,
 -0.00088222,0.00024894,0.00003108,-0.00016794,0.00002183,0.00006945,0.
 00316785,-0.00120610,0.00099029,0.05163120,-0.01930415,0.00578787,-0.0
 5511344,0.02003945,0.00034173,-0.00173464,0.00088672,0.00014624,0.0000
 8922,-0.00027003,-0.00028476,-0.00002374,-0.00009499,0.00055360,0.0000
 7526,-0.00005582,-0.00021718,-0.00008176,0.00030107,0.00017198,0.00025
 804,-0.00016051,0.00031847,0.00239595,0.00002841,0.00008542,-0.0012946
 4,0.00008934,0.00029670,0.00025039,0.00050089,0.00019062,-0.00083475,-
 0.00082765,0.00146239,0.00002897,0.00026244,-0.00000935,0.00003792,0.0
 0003952,-0.01264289,0.00384384,-0.00591744,-0.01065420,0.00491325,-0.0
 1091504,0.01955699,-0.00814285,0.01652447,-0.00127516,-0.00047029,0.00
 397628,0.00222825,-0.00144224,-0.00276667,-0.00014210,-0.00045466,0.00
 018216,-0.00109525,-0.00277223,-0.00002115,0.00044792,0.00067918,-0.00
 029641,-0.00007521,-0.00014436,-0.00005562,-0.00081968,0.00044478,-0.0
 0089652,0.00015025,0.00012689,-0.00028557,-0.00015393,-0.00009133,0.00
 014172,-0.00662811,0.00079311,0.00272874,0.00004518,-0.00011448,0.0005
 1313,0.00210502,0.00010783,-0.00041405,-0.10620780,0.01165836,0.031065
 97,-0.00080555,0.00044449,-0.00441257,0.00114225,0.00077445,0.00068425
 ,0.11108393,-0.00016201,0.00275160,-0.00269460,0.00108886,0.00025509,-
 0.00168474,-0.00034514,-0.00118576,0.00088084,-0.00727467,-0.00036083,
 0.00353531,-0.00013951,-0.00042105,-0.00019508,0.00007324,-0.00001077,
 0.00002095,-0.00037811,0.00729124,-0.00261906,0.00010822,-0.00017406,-
 0.00096764,-0.00027063,0.00001846,0.00035505,-0.00432835,0.00194778,0.
 00157796,0.00032444,0.00004850,0.00041522,0.00073390,-0.00049377,-0.00
 040830,0.01871887,-0.03232672,-0.00138257,0.00025898,-0.00165980,-0.00
 075930,0.00113140,0.00116281,0.00021953,-0.00953949,0.02315729,0.00200
 892,-0.00072759,0.00003660,0.00299609,-0.00354474,-0.00422780,-0.00166
 793,-0.00049364,0.00000910,-0.00179673,0.00284213,0.00170542,0.0002608
 0,0.00079084,0.00032636,-0.00018812,0.00004615,-0.00011260,-0.00019513
 ,-0.00433998,0.00275224,0.00061754,0.00085393,-0.00016278,-0.00048725,
 -0.00022630,-0.00000606,0.00464460,-0.00129216,0.00122947,0.00171447,-
 0.00048953,-0.00036006,0.00101014,0.00017260,-0.00127242,0.02743648,0.
 00158271,-0.03163118,-0.00508354,-0.00041947,0.00048917,-0.00112666,0.
 00153862,-0.00039139,-0.03014369,0.00370642,0.03161592\\-0.00002306,0.
 00001618,-0.00000002,0.00001850,-0.00000908,-0.00002759,0.00000630,-0.
 00001829,0.00002019,-0.00000424,-0.00000121,-0.00001007,-0.00000779,0.
 00000282,0.00000706,0.00000059,-0.00000342,0.00000303,0.00001647,0.000
 00162,-0.00000471,-0.00000673,0.00000247,-0.00000930,0.00000355,0.0000
 0327,0.,-0.00002137,0.00000861,0.00000486,0.00000667,-0.00000873,-0.00
 000279,0.00000321,0.00000609,0.00000626,0.00001863,0.00000242,0.000004
 96,-0.00000668,0.00000578,-0.00000648,-0.00000394,0.00000346,-0.000002
 57,-0.00000010,-0.00001199,0.00001717\\\@
 The archive entry for this job was punched.


 TIMES HAVE CHANGED. IN THE BIBLE WHEN AN ASS
 SPOKE IT WAS CONSIDERED A MIRACLE.
 Job cpu time:       0 days  0 hours 27 minutes 15.0 seconds.
 Elapsed time:       0 days  0 hours  1 minutes 38.3 seconds.
 File lengths (MBytes):  RWF=    154 Int=      0 D2E=      0 Chk=      6 Scr=      2
 Normal termination of Gaussian 16 at Sat Jul  8 16:40:32 2023.
