 Entering Gaussian System, Link 0=g16
 Initial command:
 /home/chesagar/softwares/G16_AVX2//g16/l1.exe "/home/chesagar/scratch/Gau-130210.inp" -scrdir="/home/chesagar/scratch/"
 Entering Link 1 = /home/chesagar/softwares/G16_AVX2//g16/l1.exe PID=    130211.
  
 Copyright (c) 1988-2019, Gaussian, Inc.  All Rights Reserved.
  
 This is part of the Gaussian(R) 16 program.  It is based on
 the Gaussian(R) 09 system (copyright 2009, Gaussian, Inc.),
 the Gaussian(R) 03 system (copyright 2003, Gaussian, Inc.),
 the Gaussian(R) 98 system (copyright 1998, Gaussian, Inc.),
 the Gaussian(R) 94 system (copyright 1995, Gaussian, Inc.),
 the Gaussian 92(TM) system (copyright 1992, Gaussian, Inc.),
 the Gaussian 90(TM) system (copyright 1990, Gaussian, Inc.),
 the Gaussian 88(TM) system (copyright 1988, Gaussian, Inc.),
 the Gaussian 86(TM) system (copyright 1986, Carnegie Mellon
 University), and the Gaussian 82(TM) system (copyright 1983,
 Carnegie Mellon University). Gaussian is a federally registered
 trademark of Gaussian, Inc.
  
 This software contains proprietary and confidential information,
 including trade secrets, belonging to Gaussian, Inc.
  
 This software is provided under written license and may be
 used, copied, transmitted, or stored only in accord with that
 written license.
  
 The following legend is applicable only to US Government
 contracts under FAR:
  
                    RESTRICTED RIGHTS LEGEND
  
 Use, reproduction and disclosure by the US Government is
 subject to restrictions as set forth in subparagraphs (a)
 and (c) of the Commercial Computer Software - Restricted
 Rights clause in FAR 52.227-19.
  
 Gaussian, Inc.
 340 Quinnipiac St., Bldg. 40, Wallingford CT 06492
  
  
 ---------------------------------------------------------------
 Warning -- This program may not be used in any manner that
 competes with the business of Gaussian, Inc. or will provide
 assistance to any competitor of Gaussian, Inc.  The licensee
 of this program is prohibited from giving any competitor of
 Gaussian, Inc. access to this program.  By using this program,
 the user acknowledges that Gaussian, Inc. is engaged in the
 business of creating and licensing software in the field of
 computational chemistry and represents and warrants to the
 licensee that it is not a competitor of Gaussian, Inc. and that
 it will not use this program in any manner prohibited above.
 ---------------------------------------------------------------
  

 Cite this work as:
 Gaussian 16, Revision C.01,
 M. J. Frisch, G. W. Trucks, H. B. Schlegel, G. E. Scuseria, 
 M. A. Robb, J. R. Cheeseman, G. Scalmani, V. Barone, 
 G. A. Petersson, H. Nakatsuji, X. Li, M. Caricato, A. V. Marenich, 
 J. Bloino, B. G. Janesko, R. Gomperts, B. Mennucci, H. P. Hratchian, 
 J. V. Ortiz, A. F. Izmaylov, J. L. Sonnenberg, D. Williams-Young, 
 F. Ding, F. Lipparini, F. Egidi, J. Goings, B. Peng, A. Petrone, 
 T. Henderson, D. Ranasinghe, V. G. Zakrzewski, J. Gao, N. Rega, 
 G. Zheng, W. Liang, M. Hada, M. Ehara, K. Toyota, R. Fukuda, 
 J. Hasegawa, M. Ishida, T. Nakajima, Y. Honda, O. Kitao, H. Nakai, 
 T. Vreven, K. Throssell, J. A. Montgomery, Jr., J. E. Peralta, 
 F. Ogliaro, M. J. Bearpark, J. J. Heyd, E. N. Brothers, K. N. Kudin, 
 V. N. Staroverov, T. A. Keith, R. Kobayashi, J. Normand, 
 K. Raghavachari, A. P. Rendell, J. C. Burant, S. S. Iyengar, 
 J. Tomasi, M. Cossi, J. M. Millam, M. Klene, C. Adamo, R. Cammi, 
 J. W. Ochterski, R. L. Martin, K. Morokuma, O. Farkas, 
 J. B. Foresman, and D. J. Fox, Gaussian, Inc., Wallingford CT, 2019.
 
 ******************************************
 Gaussian 16:  ES64L-G16RevC.01  3-Jul-2019
                26-Oct-2022 
 ******************************************
 %nprocshared=48
 Will use up to   48 processors via shared memory.
 %chk=Mo3_SH_H2S.chk
 %mem=50GB
 ---------------------------------------
 # opt freq b3lyp/gen nosymm pseudo=read
 ---------------------------------------
 1/18=20,19=15,26=3,38=1/1,3;
 2/9=110,12=2,15=1,17=6,18=5,40=1/2;
 3/5=7,11=2,16=1,17=8,25=1,30=1,71=1,74=-5/1,2,3;
 4//1;
 5/5=2,38=5/2;
 6/7=2,8=2,9=2,10=2,28=1/1;
 7/30=1/1,2,3,16;
 1/18=20,19=15,26=3/3(2);
 2/9=110,15=1/2;
 99//99;
 2/9=110,15=1/2;
 3/5=7,6=1,11=2,16=1,17=8,25=1,30=1,71=1,74=-5,82=7/1,2,3;
 4/5=5,16=3,69=1/1;
 5/5=2,38=5/2;
 7/30=1/1,2,3,16;
 1/18=20,19=15,26=3/3(-5);
 2/9=110,15=1/2;
 6/7=2,8=2,9=2,10=2,19=2,28=1/1;
 99/9=1/99;
 -------------------
 Title Card Required
 -------------------
 Symbolic Z-matrix:
 Charge =  0 Multiplicity = 1
 42                   -0.25127   1.5357    11.35348 
 16                    0.31823   3.77936   11.29341 
 16                   -2.16915   1.5649    12.65848 
 16                   -1.00645   0.9742    9.09896 
 16                    1.29648  -0.21466   11.31457 
 1                     1.19687  -0.86385   10.13677 
 42                   -2.79918   1.72738   10.44415 
 16                   -4.85189   0.80268   9.75864 
 1                    -5.38811   1.73154   8.93602 
 16                   -3.37495   4.00742   9.73731 
 1                    -3.95818   3.90658   8.50838 
 42                   -1.0321    3.3102    9.47662 
 16                   -0.88998   5.09497   7.94273 
 1                     0.44581   5.05474   7.72728 
 16                    1.52016   3.04326   9.12617 
 1                     1.6141    3.12551   7.80204 
 1                     1.85702   1.75854   9.19622 
 

 GradGradGradGradGradGradGradGradGradGradGradGradGradGradGradGradGradGrad
 Berny optimization.
 Initialization pass.
                           ----------------------------
                           !    Initial Parameters    !
                           ! (Angstroms and Degrees)  !
 --------------------------                            --------------------------
 ! Name  Definition              Value          Derivative Info.                !
 --------------------------------------------------------------------------------
 ! R1    R(1,2)                  2.3156         estimate D2E/DX2                !
 ! R2    R(1,3)                  2.3199         estimate D2E/DX2                !
 ! R3    R(1,4)                  2.443          estimate D2E/DX2                !
 ! R4    R(1,5)                  2.3368         estimate D2E/DX2                !
 ! R5    R(1,7)                  2.7121         estimate D2E/DX2                !
 ! R6    R(1,12)                 2.6984         estimate D2E/DX2                !
 ! R7    R(2,12)                 2.3118         estimate D2E/DX2                !
 ! R8    R(3,7)                  2.3079         estimate D2E/DX2                !
 ! R9    R(4,7)                  2.3645         estimate D2E/DX2                !
 ! R10   R(4,12)                 2.3665         estimate D2E/DX2                !
 ! R11   R(5,6)                  1.3486         estimate D2E/DX2                !
 ! R12   R(7,8)                  2.3534         estimate D2E/DX2                !
 ! R13   R(7,10)                 2.4555         estimate D2E/DX2                !
 ! R14   R(7,12)                 2.562          estimate D2E/DX2                !
 ! R15   R(8,9)                  1.3517         estimate D2E/DX2                !
 ! R16   R(10,11)                1.364          estimate D2E/DX2                !
 ! R17   R(10,12)                2.4583         estimate D2E/DX2                !
 ! R18   R(12,13)                2.3576         estimate D2E/DX2                !
 ! R19   R(12,15)                2.59           estimate D2E/DX2                !
 ! R20   R(13,14)                1.3536         estimate D2E/DX2                !
 ! R21   R(15,16)                1.33           estimate D2E/DX2                !
 ! R22   R(15,17)                1.33           estimate D2E/DX2                !
 ! A1    A(2,1,3)              101.8715         estimate D2E/DX2                !
 ! A2    A(2,1,4)              105.9487         estimate D2E/DX2                !
 ! A3    A(2,1,5)              124.2247         estimate D2E/DX2                !
 ! A4    A(2,1,7)               98.8514         estimate D2E/DX2                !
 ! A5    A(3,1,4)              105.4534         estimate D2E/DX2                !
 ! A6    A(3,1,5)              124.4949         estimate D2E/DX2                !
 ! A7    A(3,1,12)              98.2654         estimate D2E/DX2                !
 ! A8    A(4,1,5)               90.9865         estimate D2E/DX2                !
 ! A9    A(5,1,7)              132.0352         estimate D2E/DX2                !
 ! A10   A(5,1,12)             132.2724         estimate D2E/DX2                !
 ! A11   A(1,5,6)              109.0385         estimate D2E/DX2                !
 ! A12   A(1,7,8)              152.787          estimate D2E/DX2                !
 ! A13   A(1,7,10)             112.4837         estimate D2E/DX2                !
 ! A14   A(3,7,4)              108.448          estimate D2E/DX2                !
 ! A15   A(3,7,8)              119.3346         estimate D2E/DX2                !
 ! A16   A(3,7,10)             113.9261         estimate D2E/DX2                !
 ! A17   A(3,7,12)             102.5645         estimate D2E/DX2                !
 ! A18   A(4,7,8)              111.7427         estimate D2E/DX2                !
 ! A19   A(4,7,10)             108.0462         estimate D2E/DX2                !
 ! A20   A(8,7,10)              94.3856         estimate D2E/DX2                !
 ! A21   A(8,7,12)             137.2504         estimate D2E/DX2                !
 ! A22   A(7,8,9)              104.6718         estimate D2E/DX2                !
 ! A23   A(7,10,11)            106.9153         estimate D2E/DX2                !
 ! A24   A(11,10,12)           106.9171         estimate D2E/DX2                !
 ! A25   A(1,12,10)            112.8639         estimate D2E/DX2                !
 ! A26   A(1,12,13)            158.8945         estimate D2E/DX2                !
 ! A27   A(1,12,15)             75.0            estimate D2E/DX2                !
 ! A28   A(2,12,4)             108.628          estimate D2E/DX2                !
 ! A29   A(2,12,7)             103.3836         estimate D2E/DX2                !
 ! A30   A(2,12,10)            114.569          estimate D2E/DX2                !
 ! A31   A(2,12,13)            108.8115         estimate D2E/DX2                !
 ! A32   A(2,12,15)             63.3622         estimate D2E/DX2                !
 ! A33   A(4,12,10)            107.8924         estimate D2E/DX2                !
 ! A34   A(4,12,13)            130.0            estimate D2E/DX2                !
 ! A35   A(4,12,15)             82.2984         estimate D2E/DX2                !
 ! A36   A(7,12,13)            139.022          estimate D2E/DX2                !
 ! A37   A(7,12,15)            131.8432         estimate D2E/DX2                !
 ! A38   A(10,12,13)            84.9365         estimate D2E/DX2                !
 ! A39   A(13,12,15)            86.0194         estimate D2E/DX2                !
 ! A40   A(12,13,14)            98.0794         estimate D2E/DX2                !
 ! A41   A(12,15,16)           101.4169         estimate D2E/DX2                !
 ! A42   A(12,15,17)           110.0            estimate D2E/DX2                !
 ! A43   A(16,15,17)            95.4101         estimate D2E/DX2                !
 ! A44   L(10,12,15,1,-1)      187.8639         estimate D2E/DX2                !
 ! A45   L(10,12,15,1,-2)      187.615          estimate D2E/DX2                !
 ! D1    D(2,1,5,6)           -110.8729         estimate D2E/DX2                !
 ! D2    D(3,1,5,6)            108.8364         estimate D2E/DX2                !
 ! D3    D(4,1,5,6)             -0.747          estimate D2E/DX2                !
 ! D4    D(7,1,5,6)             38.8722         estimate D2E/DX2                !
 ! D5    D(12,1,5,6)           -40.523          estimate D2E/DX2                !
 ! D6    D(2,1,7,8)            176.1385         estimate D2E/DX2                !
 ! D7    D(2,1,7,10)             5.7891         estimate D2E/DX2                !
 ! D8    D(5,1,7,8)             21.0756         estimate D2E/DX2                !
 ! D9    D(5,1,7,10)          -149.2739         estimate D2E/DX2                !
 ! D10   D(3,1,12,10)           -5.9405         estimate D2E/DX2                !
 ! D11   D(3,1,12,13)          139.7981         estimate D2E/DX2                !
 ! D12   D(3,1,12,15)          166.4445         estimate D2E/DX2                !
 ! D13   D(5,1,12,10)          148.9436         estimate D2E/DX2                !
 ! D14   D(5,1,12,13)          -65.3178         estimate D2E/DX2                !
 ! D15   D(5,1,12,15)          -38.6714         estimate D2E/DX2                !
 ! D16   D(1,4,7,12)            74.9404         estimate D2E/DX2                !
 ! D17   D(1,7,8,9)           -154.7333         estimate D2E/DX2                !
 ! D18   D(3,7,8,9)            136.9718         estimate D2E/DX2                !
 ! D19   D(4,7,8,9)            -95.0828         estimate D2E/DX2                !
 ! D20   D(10,7,8,9)            16.3295         estimate D2E/DX2                !
 ! D21   D(12,7,8,9)           -30.335          estimate D2E/DX2                !
 ! D22   D(1,7,10,11)          131.6306         estimate D2E/DX2                !
 ! D23   D(3,7,10,11)         -168.8193         estimate D2E/DX2                !
 ! D24   D(4,7,10,11)           70.6059         estimate D2E/DX2                !
 ! D25   D(8,7,10,11)          -43.9598         estimate D2E/DX2                !
 ! D26   D(3,7,12,2)             0.2882         estimate D2E/DX2                !
 ! D27   D(3,7,12,13)         -140.9146         estimate D2E/DX2                !
 ! D28   D(3,7,12,15)           66.3609         estimate D2E/DX2                !
 ! D29   D(8,7,12,2)           168.9702         estimate D2E/DX2                !
 ! D30   D(8,7,12,13)           27.7674         estimate D2E/DX2                !
 ! D31   D(8,7,12,15)         -124.9571         estimate D2E/DX2                !
 ! D32   D(11,10,12,1)        -131.8985         estimate D2E/DX2                !
 ! D33   D(11,10,12,2)         168.2311         estimate D2E/DX2                !
 ! D34   D(11,10,12,4)         -70.6597         estimate D2E/DX2                !
 ! D35   D(11,10,12,13)         59.8439         estimate D2E/DX2                !
 ! D36   D(1,12,13,14)          24.0715         estimate D2E/DX2                !
 ! D37   D(2,12,13,14)          58.4332         estimate D2E/DX2                !
 ! D38   D(4,12,13,14)         -78.1478         estimate D2E/DX2                !
 ! D39   D(7,12,13,14)        -161.6535         estimate D2E/DX2                !
 ! D40   D(10,12,13,14)        172.6877         estimate D2E/DX2                !
 ! D41   D(15,12,13,14)         -1.666          estimate D2E/DX2                !
 ! D42   D(1,12,15,16)         143.79           estimate D2E/DX2                !
 ! D43   D(1,12,15,17)          43.6612         estimate D2E/DX2                !
 ! D44   D(2,12,15,16)        -158.8872         estimate D2E/DX2                !
 ! D45   D(2,12,15,17)         100.9841         estimate D2E/DX2                !
 ! D46   D(4,12,15,16)          85.7444         estimate D2E/DX2                !
 ! D47   D(4,12,15,17)         -14.3843         estimate D2E/DX2                !
 ! D48   D(7,12,15,16)         116.9413         estimate D2E/DX2                !
 ! D49   D(7,12,15,17)          16.8125         estimate D2E/DX2                !
 ! D50   D(13,12,15,16)        -45.5263         estimate D2E/DX2                !
 ! D51   D(13,12,15,17)       -145.655          estimate D2E/DX2                !
 --------------------------------------------------------------------------------
 Trust Radius=3.00D-01 FncErr=1.00D-07 GrdErr=1.00D-06 EigMax=2.50D+02 EigMin=1.00D-04
 Number of steps in this run=    102 maximum allowed number of steps=    102.
 GradGradGradGradGradGradGradGradGradGradGradGradGradGradGradGradGradGrad

                          Input orientation:                          
 ---------------------------------------------------------------------
 Center     Atomic      Atomic             Coordinates (Angstroms)
 Number     Number       Type             X           Y           Z
 ---------------------------------------------------------------------
      1         42           0       -0.251266    1.535699   11.353482
      2         16           0        0.318231    3.779363   11.293406
      3         16           0       -2.169150    1.564895   12.658481
      4         16           0       -1.006448    0.974204    9.098955
      5         16           0        1.296481   -0.214661   11.314572
      6          1           0        1.196871   -0.863854   10.136771
      7         42           0       -2.799181    1.727381   10.444154
      8         16           0       -4.851892    0.802683    9.758638
      9          1           0       -5.388108    1.731540    8.936015
     10         16           0       -3.374949    4.007417    9.737314
     11          1           0       -3.958178    3.906578    8.508377
     12         42           0       -1.032104    3.310196    9.476619
     13         16           0       -0.889977    5.094970    7.942728
     14          1           0        0.445808    5.054743    7.727276
     15         16           0        1.520156    3.043264    9.126168
     16          1           0        1.614104    3.125510    7.802042
     17          1           0        1.857024    1.758541    9.196223
 ---------------------------------------------------------------------
                    Distance matrix (angstroms):
                    1          2          3          4          5
     1  Mo   0.000000
     2  S    2.315592   0.000000
     3  S    2.319947   3.599217   0.000000
     4  S    2.443045   3.799909   3.790912   0.000000
     5  S    2.336834   4.112134   4.121105   3.409669   0.000000
     6  H    3.055379   4.865108   4.856742   3.051251   1.348551
     7  Mo   2.712101   3.827547   2.307940   2.364472   4.615583
     8  S    4.924084   6.160058   4.023327   3.905386   6.423271
     9  H    5.680638   6.504858   4.924045   4.449613   7.357239
    10  S    4.298696   4.014101   3.994131   3.900985   6.491221
    11  H    5.239932   5.104924   5.089937   4.202417   7.243672
    12  Mo   2.698363   2.311761   3.803051   2.366463   4.607059
    13  S    4.970875   3.797055   6.027938   4.281488   6.658987
    14  H    5.100878   3.789479   6.582843   4.543275   6.431093
    15  S    3.220499   2.585225   5.317310   3.265804   3.931058
    16  H    4.315070   3.781062   6.350868   3.630067   4.857519
    17  H    3.024617   3.293900   5.313643   2.970541   2.948751
                    6          7          8          9         10
     6  H    0.000000
     7  Mo   4.772569   0.000000
     8  S    6.285528   2.353428   0.000000
     9  H    7.179125   2.996171   1.351670   0.000000
    10  S    6.692562   2.455544   3.528758   3.142373   0.000000
    11  H    7.209939   3.136783   3.463530   2.637871   1.364042
    12  Mo   4.777743   2.562028   4.577984   4.664673   2.458252
    13  S    6.684036   4.608996   6.117028   5.703724   3.252445
    14  H    6.434249   5.383560   7.090280   6.821972   4.442446
    15  S    4.048629   4.703754   6.784041   7.034265   5.026445
    16  H    4.641127   5.330347   7.143731   7.229109   5.423438
    17  H    2.863108   4.820637   6.799965   7.249853   5.720469
                   11         12         13         14         15
    11  H    0.000000
    12  Mo   3.139279   0.000000
    13  S    3.338577   2.357634   0.000000
    14  H    4.617737   2.878866   1.353646   0.000000
    15  S    5.580244   2.590000   3.379167   2.675289   0.000000
    16  H    5.670917   3.136994   3.188884   2.256645   1.330000
    17  H    6.237288   3.291400   4.499891   3.874827   1.330000
                   16         17
    16  H    0.000000
    17  H    1.967576   0.000000
 Symmetry turned off by external request.
 Stoichiometry    H6Mo3S8
 Framework group  C1[X(H6Mo3S8)]
 Deg. of freedom    45
 Full point group                 C1      NOp   1
 Rotational constants (GHZ):           0.2965108           0.2674611           0.1767943
 General basis read from cards:  (5D, 7F)
 ======================================================================================================
                                       Pseudopotential Parameters
 ======================================================================================================
  Center     Atomic      Valence      Angular      Power
  Number     Number     Electrons     Momentum     of R      Exponent        Coefficient   SO-Coeffient
 ======================================================================================================
    1         42           14
                                      F and up 
                                                     0      537.9667807       -0.04694920    0.00000000
                                                     1      147.8982938      -20.20800840    0.00000000
                                                     2       45.7358898     -106.21163020    0.00000000
                                                     2       13.2911467      -41.81073680    0.00000000
                                                     2        4.7059961       -4.20541030    0.00000000
                                      S - F
                                                     0      110.2991760        2.80637170    0.00000000
                                                     1       23.2014645       44.51620120    0.00000000
                                                     2        5.3530131       82.77852270    0.00000000
                                      P - F
                                                     0       63.2901397        4.94208760    0.00000000
                                                     1       23.3315302       25.86049760    0.00000000
                                                     2       24.6759423      132.47087420    0.00000000
                                                     2        4.6493040       57.31497940    0.00000000
                                      D - F
                                                     0      104.4839977        3.00545910    0.00000000
                                                     1       66.2307245       26.36378510    0.00000000
                                                     2       39.1283176      183.38491990    0.00000000
                                                     2       13.1164437       98.44530680    0.00000000
                                                     2        3.6280263       22.49013770    0.00000000
    2         16
                                   No pseudopotential on this center.
    3         16
                                   No pseudopotential on this center.
    4         16
                                   No pseudopotential on this center.
    5         16
                                   No pseudopotential on this center.
    6          1
                                   No pseudopotential on this center.
    7         42           14
                                      F and up 
                                                     0      537.9667807       -0.04694920    0.00000000
                                                     1      147.8982938      -20.20800840    0.00000000
                                                     2       45.7358898     -106.21163020    0.00000000
                                                     2       13.2911467      -41.81073680    0.00000000
                                                     2        4.7059961       -4.20541030    0.00000000
                                      S - F
                                                     0      110.2991760        2.80637170    0.00000000
                                                     1       23.2014645       44.51620120    0.00000000
                                                     2        5.3530131       82.77852270    0.00000000
                                      P - F
                                                     0       63.2901397        4.94208760    0.00000000
                                                     1       23.3315302       25.86049760    0.00000000
                                                     2       24.6759423      132.47087420    0.00000000
                                                     2        4.6493040       57.31497940    0.00000000
                                      D - F
                                                     0      104.4839977        3.00545910    0.00000000
                                                     1       66.2307245       26.36378510    0.00000000
                                                     2       39.1283176      183.38491990    0.00000000
                                                     2       13.1164437       98.44530680    0.00000000
                                                     2        3.6280263       22.49013770    0.00000000
    8         16
                                   No pseudopotential on this center.
    9          1
                                   No pseudopotential on this center.
   10         16
                                   No pseudopotential on this center.
   11          1
                                   No pseudopotential on this center.
   12         42           14
                                      F and up 
                                                     0      537.9667807       -0.04694920    0.00000000
                                                     1      147.8982938      -20.20800840    0.00000000
                                                     2       45.7358898     -106.21163020    0.00000000
                                                     2       13.2911467      -41.81073680    0.00000000
                                                     2        4.7059961       -4.20541030    0.00000000
                                      S - F
                                                     0      110.2991760        2.80637170    0.00000000
                                                     1       23.2014645       44.51620120    0.00000000
                                                     2        5.3530131       82.77852270    0.00000000
                                      P - F
                                                     0       63.2901397        4.94208760    0.00000000
                                                     1       23.3315302       25.86049760    0.00000000
                                                     2       24.6759423      132.47087420    0.00000000
                                                     2        4.6493040       57.31497940    0.00000000
                                      D - F
                                                     0      104.4839977        3.00545910    0.00000000
                                                     1       66.2307245       26.36378510    0.00000000
                                                     2       39.1283176      183.38491990    0.00000000
                                                     2       13.1164437       98.44530680    0.00000000
                                                     2        3.6280263       22.49013770    0.00000000
   13         16
                                   No pseudopotential on this center.
   14          1
                                   No pseudopotential on this center.
   15         16
                                   No pseudopotential on this center.
   16          1
                                   No pseudopotential on this center.
   17          1
                                   No pseudopotential on this center.
 ======================================================================================================
   240 basis functions,   605 primitive gaussians,   254 cartesian basis functions
    88 alpha electrons       88 beta electrons
       nuclear repulsion energy      2120.4952803963 Hartrees.
 NAtoms=   17 NActive=   17 NUniq=   17 SFac= 1.00D+00 NAtFMM=   60 NAOKFM=F Big=F
 Integral buffers will be    131072 words long.
 Raffenetti 2 integral format.
 Two-electron integral symmetry is turned off.
 One-electron integrals computed using PRISM.
   1 Symmetry operations used in ECPInt.
 ECPInt:  NShTT=    3403 NPrTT=   23974 LenC2=    3156 LenP2D=   15419.
 LDataN:  DoStor=T MaxTD1= 5 Len=  102
 NBasis=   240 RedAO= T EigKep=  1.20D-03  NBF=   240
 NBsUse=   240 1.00D-06 EigRej= -1.00D+00 NBFU=   240
 Defaulting to unpruned grid for atomic number  42.
 Defaulting to unpruned grid for atomic number  42.
 Defaulting to unpruned grid for atomic number  42.
 ExpMin= 2.47D-02 ExpMax= 2.19D+04 ExpMxC= 3.30D+03 IAcc=3 IRadAn=         5 AccDes= 0.00D+00
 Harris functional with IExCor=  402 and IRadAn=       5 diagonalized for initial guess.
 HarFok:  IExCor=  402 AccDes= 0.00D+00 IRadAn=         5 IDoV= 1 UseB2=F ITyADJ=14
 ICtDFT=  3500011 ScaDFX=  1.000000  1.000000  1.000000  1.000000
 Defaulting to unpruned grid for atomic number  42.
 FoFCou: FMM=F IPFlag=           0 FMFlag=      100000 FMFlg1=           0
         NFxFlg=           0 DoJE=T BraDBF=F KetDBF=T FulRan=T
         wScrn=  0.000000 ICntrl=       500 IOpCl=  0 I1Cent=   200000004 NGrid=           0
         NMat0=    1 NMatS0=      1 NMatT0=    0 NMatD0=    1 NMtDS0=    0 NMtDT0=    0
 Symmetry not used in FoFCou.
 Requested convergence on RMS density matrix=1.00D-08 within 128 cycles.
 Requested convergence on MAX density matrix=1.00D-06.
 Requested convergence on             energy=1.00D-06.
 No special actions if energy rises.
 Defaulting to unpruned grid for atomic number  42.
 Defaulting to unpruned grid for atomic number  42.
 Defaulting to unpruned grid for atomic number  42.
 Defaulting to unpruned grid for atomic number  42.
 Defaulting to unpruned grid for atomic number  42.
 Defaulting to unpruned grid for atomic number  42.
 Defaulting to unpruned grid for atomic number  42.
 Defaulting to unpruned grid for atomic number  42.
 Defaulting to unpruned grid for atomic number  42.
 Defaulting to unpruned grid for atomic number  42.
 Defaulting to unpruned grid for atomic number  42.
 Defaulting to unpruned grid for atomic number  42.
 Defaulting to unpruned grid for atomic number  42.
 Defaulting to unpruned grid for atomic number  42.
 Defaulting to unpruned grid for atomic number  42.
 Defaulting to unpruned grid for atomic number  42.
 Defaulting to unpruned grid for atomic number  42.
 Defaulting to unpruned grid for atomic number  42.
 Defaulting to unpruned grid for atomic number  42.
 Defaulting to unpruned grid for atomic number  42.
 Defaulting to unpruned grid for atomic number  42.
 Defaulting to unpruned grid for atomic number  42.
 Defaulting to unpruned grid for atomic number  42.
 Defaulting to unpruned grid for atomic number  42.
 Defaulting to unpruned grid for atomic number  42.
 Defaulting to unpruned grid for atomic number  42.
 Defaulting to unpruned grid for atomic number  42.
 Defaulting to unpruned grid for atomic number  42.
 Defaulting to unpruned grid for atomic number  42.
 Defaulting to unpruned grid for atomic number  42.
 Defaulting to unpruned grid for atomic number  42.
 Defaulting to unpruned grid for atomic number  42.
 Defaulting to unpruned grid for atomic number  42.
 Defaulting to unpruned grid for atomic number  42.
 Defaulting to unpruned grid for atomic number  42.
 Defaulting to unpruned grid for atomic number  42.
 Defaulting to unpruned grid for atomic number  42.
 Defaulting to unpruned grid for atomic number  42.
 Defaulting to unpruned grid for atomic number  42.
 Defaulting to unpruned grid for atomic number  42.
 Defaulting to unpruned grid for atomic number  42.
 Defaulting to unpruned grid for atomic number  42.
 Defaulting to unpruned grid for atomic number  42.
 Defaulting to unpruned grid for atomic number  42.
 Defaulting to unpruned grid for atomic number  42.
 Defaulting to unpruned grid for atomic number  42.
 Defaulting to unpruned grid for atomic number  42.
 Defaulting to unpruned grid for atomic number  42.
 EnCoef did     2 forward-backward iterations
 EnCoef did     6 forward-backward iterations
 Restarting incremental Fock formation.
 SCF Done:  E(RB3LYP) =  -3391.98340597     A.U. after   21 cycles
            NFock= 21  Conv=0.96D-08     -V/T= 2.0437

 **********************************************************************

            Population analysis using the SCF Density.

 **********************************************************************

 Alpha  occ. eigenvalues --  -88.93782 -88.90044 -88.90017 -88.88016 -88.87775
 Alpha  occ. eigenvalues --  -88.87523 -88.87234 -88.86610  -8.01618  -7.97768
 Alpha  occ. eigenvalues --   -7.97615  -7.95858  -7.95751  -7.95393  -7.94978
 Alpha  occ. eigenvalues --   -7.94386  -5.97899  -5.97655  -5.97100  -5.93887
 Alpha  occ. eigenvalues --   -5.93745  -5.93723  -5.93687  -5.93436  -5.93401
 Alpha  occ. eigenvalues --   -5.91849  -5.91795  -5.91757  -5.91722  -5.91705
 Alpha  occ. eigenvalues --   -5.91672  -5.91607  -5.91276  -5.91249  -5.91098
 Alpha  occ. eigenvalues --   -5.90780  -5.90731  -5.90664  -5.90207  -5.90141
 Alpha  occ. eigenvalues --   -2.53724  -2.53304  -2.53041  -1.58055  -1.56925
 Alpha  occ. eigenvalues --   -1.56664  -1.55912  -1.55444  -1.55111  -1.54883
 Alpha  occ. eigenvalues --   -1.54228  -1.53933  -0.82712  -0.75358  -0.73981
 Alpha  occ. eigenvalues --   -0.72994  -0.72581  -0.71898  -0.71605  -0.70549
 Alpha  occ. eigenvalues --   -0.52326  -0.47251  -0.45305  -0.44416  -0.43088
 Alpha  occ. eigenvalues --   -0.42156  -0.40241  -0.39308  -0.38878  -0.37416
 Alpha  occ. eigenvalues --   -0.37324  -0.36382  -0.34782  -0.34425  -0.33286
 Alpha  occ. eigenvalues --   -0.32958  -0.32717  -0.32136  -0.31574  -0.30370
 Alpha  occ. eigenvalues --   -0.29579  -0.28751  -0.28295  -0.27289  -0.26591
 Alpha  occ. eigenvalues --   -0.25797  -0.24524  -0.22140
 Alpha virt. eigenvalues --   -0.13904  -0.13087  -0.12522  -0.12029  -0.11292
 Alpha virt. eigenvalues --   -0.09206  -0.08484  -0.08083  -0.07224  -0.06271
 Alpha virt. eigenvalues --   -0.05211  -0.02738  -0.01607  -0.01041   0.00157
 Alpha virt. eigenvalues --    0.01433   0.01939   0.03430   0.03829   0.03939
 Alpha virt. eigenvalues --    0.04761   0.05122   0.05825   0.06301   0.06674
 Alpha virt. eigenvalues --    0.08062   0.08614   0.11939   0.13275   0.14347
 Alpha virt. eigenvalues --    0.16274   0.17482   0.17855   0.18102   0.20024
 Alpha virt. eigenvalues --    0.21614   0.24686   0.25386   0.27462   0.27693
 Alpha virt. eigenvalues --    0.29200   0.30333   0.30587   0.30956   0.31650
 Alpha virt. eigenvalues --    0.32495   0.33121   0.34096   0.34829   0.35218
 Alpha virt. eigenvalues --    0.35737   0.36346   0.37166   0.38049   0.38443
 Alpha virt. eigenvalues --    0.39002   0.39480   0.40194   0.40823   0.42307
 Alpha virt. eigenvalues --    0.42740   0.43275   0.44757   0.44988   0.45884
 Alpha virt. eigenvalues --    0.47628   0.48217   0.48670   0.50653   0.51710
 Alpha virt. eigenvalues --    0.52570   0.53651   0.54669   0.55541   0.56582
 Alpha virt. eigenvalues --    0.58111   0.58989   0.59584   0.62067   0.63869
 Alpha virt. eigenvalues --    0.64453   0.65612   0.66555   0.67948   0.69347
 Alpha virt. eigenvalues --    0.71231   0.71966   0.72607   0.73641   0.73757
 Alpha virt. eigenvalues --    0.74474   0.74977   0.76304   0.76832   0.77218
 Alpha virt. eigenvalues --    0.77545   0.78480   0.79326   0.80247   0.81753
 Alpha virt. eigenvalues --    0.82690   0.83772   0.84272   0.86779   0.87672
 Alpha virt. eigenvalues --    0.88206   0.89614   0.90838   0.93505   0.94261
 Alpha virt. eigenvalues --    0.94706   0.95542   0.96178   0.96626   0.98873
 Alpha virt. eigenvalues --    1.00970   1.02247   1.03091   1.06001   1.06311
 Alpha virt. eigenvalues --    1.07385   1.08260   1.09805   1.11683   1.11947
 Alpha virt. eigenvalues --    1.14480   1.15870   1.16914   1.19414   1.20406
 Alpha virt. eigenvalues --    1.22893   1.95500   2.01631   2.06749   2.06872
 Alpha virt. eigenvalues --    2.07090   2.07817   2.08138   2.08556   2.09846
 Alpha virt. eigenvalues --    2.10439   2.13392   2.18788   2.68994   2.69565
 Alpha virt. eigenvalues --    2.72513   2.72841   2.73309   2.80743   7.83868
 Alpha virt. eigenvalues --    9.00711  11.80257
          Condensed to atoms (all electrons):
               1          2          3          4          5          6
     1  Mo  13.781181   0.224313   0.210808   0.081653   0.296124  -0.039589
     2  S    0.224313  15.922248  -0.008146  -0.000300   0.005599  -0.000115
     3  S    0.210808  -0.008146  15.662500  -0.009920   0.006486  -0.000135
     4  S    0.081653  -0.000300  -0.009920  15.592619  -0.022769  -0.004267
     5  S    0.296124   0.005599   0.006486  -0.022769  15.650582   0.272030
     6  H   -0.039589  -0.000115  -0.000135  -0.004267   0.272030   0.675593
     7  Mo  -0.192761  -0.019840   0.247647   0.216575  -0.006297   0.003521
     8  S   -0.044432  -0.000040   0.010963   0.016777   0.000030  -0.000007
     9  H    0.001568   0.000001   0.000159  -0.000062  -0.000000  -0.000000
    10  S    0.007082   0.009513   0.006181  -0.000833  -0.000032   0.000002
    11  H    0.000494  -0.000045   0.000075   0.000882   0.000000  -0.000000
    12  Mo  -0.180446   0.166882  -0.025622   0.113084  -0.014255   0.002895
    13  S   -0.040301   0.007882   0.000026   0.009938  -0.000022  -0.000003
    14  H    0.003759  -0.002149  -0.000000   0.000082   0.000003   0.000000
    15  S   -0.035646  -0.278644  -0.000622  -0.046390  -0.016157   0.000381
    16  H    0.007147   0.016564   0.000003   0.000956   0.000409  -0.000010
    17  H   -0.011330   0.002435  -0.000102  -0.001481  -0.000188   0.000852
               7          8          9         10         11         12
     1  Mo  -0.192761  -0.044432   0.001568   0.007082   0.000494  -0.180446
     2  S   -0.019840  -0.000040   0.000001   0.009513  -0.000045   0.166882
     3  S    0.247647   0.010963   0.000159   0.006181   0.000075  -0.025622
     4  S    0.216575   0.016777  -0.000062  -0.000833   0.000882   0.113084
     5  S   -0.006297   0.000030  -0.000000  -0.000032   0.000000  -0.014255
     6  H    0.003521  -0.000007  -0.000000   0.000002  -0.000000   0.002895
     7  Mo  13.444410   0.303021  -0.023609   0.189389  -0.026218  -0.198614
     8  S    0.303021  15.634191   0.255942  -0.017421  -0.004223  -0.007197
     9  H   -0.023609   0.255942   0.693688  -0.007524   0.005655   0.000738
    10  S    0.189389  -0.017421  -0.007524  15.405501   0.241700   0.170394
    11  H   -0.026218  -0.004223   0.005655   0.241700   0.739895  -0.039213
    12  Mo  -0.198614  -0.007197   0.000738   0.170394  -0.039213  13.797499
    13  S   -0.020291   0.000184  -0.000022  -0.030554  -0.000619   0.321376
    14  H    0.001533   0.000000  -0.000000   0.001554   0.000005  -0.021313
    15  S   -0.004128  -0.000016  -0.000000  -0.005785   0.000027   0.116184
    16  H   -0.000566  -0.000000   0.000000   0.000049   0.000000  -0.016379
    17  H    0.001588   0.000001  -0.000000   0.000039  -0.000000  -0.003417
              13         14         15         16         17
     1  Mo  -0.040301   0.003759  -0.035646   0.007147  -0.011330
     2  S    0.007882  -0.002149  -0.278644   0.016564   0.002435
     3  S    0.000026  -0.000000  -0.000622   0.000003  -0.000102
     4  S    0.009938   0.000082  -0.046390   0.000956  -0.001481
     5  S   -0.000022   0.000003  -0.016157   0.000409  -0.000188
     6  H   -0.000003   0.000000   0.000381  -0.000010   0.000852
     7  Mo  -0.020291   0.001533  -0.004128  -0.000566   0.001588
     8  S    0.000184   0.000000  -0.000016  -0.000000   0.000001
     9  H   -0.000022  -0.000000  -0.000000   0.000000  -0.000000
    10  S   -0.030554   0.001554  -0.005785   0.000049   0.000039
    11  H   -0.000619   0.000005   0.000027   0.000000  -0.000000
    12  Mo   0.321376  -0.021313   0.116184  -0.016379  -0.003417
    13  S   15.609583   0.239235  -0.013923  -0.002070   0.000730
    14  H    0.239235   0.744236  -0.010438   0.002589   0.000262
    15  S   -0.013923  -0.010438  15.680772   0.206271   0.283467
    16  H   -0.002070   0.002589   0.206271   0.713084  -0.014339
    17  H    0.000730   0.000262   0.283467  -0.014339   0.606667
 Mulliken charges:
               1
     1  Mo  -0.069624
     2  S   -0.046159
     3  S   -0.100299
     4  S    0.053455
     5  S   -0.171544
     6  H    0.088852
     7  Mo   0.084642
     8  S   -0.147774
     9  H    0.073468
    10  S    0.030746
    11  H    0.081585
    12  Mo  -0.182595
    13  S   -0.081149
    14  H    0.040643
    15  S    0.124647
    16  H    0.086291
    17  H    0.134816
 Sum of Mulliken charges =  -0.00000
 Mulliken charges with hydrogens summed into heavy atoms:
               1
     1  Mo  -0.069624
     2  S   -0.046159
     3  S   -0.100299
     4  S    0.053455
     5  S   -0.082692
     7  Mo   0.084642
     8  S   -0.074306
    10  S    0.112331
    12  Mo  -0.182595
    13  S   -0.040506
    15  S    0.345754
 Electronic spatial extent (au):  <R**2>=          74429.4792
 Charge=             -0.0000 electrons
 Dipole moment (field-independent basis, Debye):
    X=              2.8646    Y=             -0.3866    Z=             -3.1953  Tot=              4.3087
 Quadrupole moment (field-independent basis, Debye-Ang):
   XX=           -178.3509   YY=           -188.2516   ZZ=           -241.4131
   XY=              2.6321   XZ=             28.9197   YZ=             -9.9142
 Traceless Quadrupole moment (field-independent basis, Debye-Ang):
   XX=             24.3209   YY=             14.4203   ZZ=            -38.7412
   XY=              2.6321   XZ=             28.9197   YZ=             -9.9142
 Octapole moment (field-independent basis, Debye-Ang**2):
  XXX=            655.0788  YYY=          -1317.8792  ZZZ=          -6393.7446  XYY=            238.1615
  XXY=           -372.2969  XXZ=          -1862.0473  XZZ=            518.8676  YZZ=           -568.4827
  YYZ=          -1933.0074  XYZ=             32.4650
 Hexadecapole moment (field-independent basis, Debye-Ang**3):
 XXXX=          -5347.9530 YYYY=          -8783.4847 ZZZZ=        -125625.2349 XXXY=           1246.2913
 XXXZ=           6771.6016 YYYX=           1597.0801 YYYZ=         -12920.8179 ZZZX=           9819.0829
 ZZZY=         -14214.3022 XXYY=          -2162.5285 XXZZ=         -20578.0515 YYZZ=         -21569.1999
 XXYZ=          -3763.9902 YYXZ=           2381.0390 ZZXY=            907.6008
 N-N= 2.120495280396D+03 E-N=-1.223357995265D+04  KE= 3.250049058050D+03
   1 Symmetry operations used in ECPInt.
 ECPInt:  NShTT=    3403 NPrTT=   23974 LenC2=    3156 LenP2D=   15419.
 LDataN:  DoStor=T MaxTD1= 6 Len=  172
 Calling FoFJK, ICntrl=      2127 FMM=F ISym2X=0 I1Cent= 0 IOpClX= 0 NMat=1 NMatS=1 NMatT=0.
 Defaulting to unpruned grid for atomic number  42.
 Defaulting to unpruned grid for atomic number  42.
 Defaulting to unpruned grid for atomic number  42.
 Defaulting to unpruned grid for atomic number  42.
 Defaulting to unpruned grid for atomic number  42.
 Defaulting to unpruned grid for atomic number  42.
 Defaulting to unpruned grid for atomic number  42.
 Defaulting to unpruned grid for atomic number  42.
 Defaulting to unpruned grid for atomic number  42.
 Defaulting to unpruned grid for atomic number  42.
 Defaulting to unpruned grid for atomic number  42.
 Defaulting to unpruned grid for atomic number  42.
 Defaulting to unpruned grid for atomic number  42.
 Defaulting to unpruned grid for atomic number  42.
 Defaulting to unpruned grid for atomic number  42.
 Defaulting to unpruned grid for atomic number  42.
 Defaulting to unpruned grid for atomic number  42.
 Defaulting to unpruned grid for atomic number  42.
 Defaulting to unpruned grid for atomic number  42.
 Defaulting to unpruned grid for atomic number  42.
 Defaulting to unpruned grid for atomic number  42.
 Defaulting to unpruned grid for atomic number  42.
 Defaulting to unpruned grid for atomic number  42.
 Defaulting to unpruned grid for atomic number  42.
 Defaulting to unpruned grid for atomic number  42.
 Defaulting to unpruned grid for atomic number  42.
 Defaulting to unpruned grid for atomic number  42.
 Defaulting to unpruned grid for atomic number  42.
 Defaulting to unpruned grid for atomic number  42.
 Defaulting to unpruned grid for atomic number  42.
 Defaulting to unpruned grid for atomic number  42.
 Defaulting to unpruned grid for atomic number  42.
 Defaulting to unpruned grid for atomic number  42.
 Defaulting to unpruned grid for atomic number  42.
 Defaulting to unpruned grid for atomic number  42.
 Defaulting to unpruned grid for atomic number  42.
 Defaulting to unpruned grid for atomic number  42.
 Defaulting to unpruned grid for atomic number  42.
 Defaulting to unpruned grid for atomic number  42.
 Defaulting to unpruned grid for atomic number  42.
 Defaulting to unpruned grid for atomic number  42.
 Defaulting to unpruned grid for atomic number  42.
 Defaulting to unpruned grid for atomic number  42.
 Defaulting to unpruned grid for atomic number  42.
 Defaulting to unpruned grid for atomic number  42.
 Defaulting to unpruned grid for atomic number  42.
 Defaulting to unpruned grid for atomic number  42.
 Defaulting to unpruned grid for atomic number  42.
 -------------------------------------------------------------------
 Center     Atomic                   Forces (Hartrees/Bohr)
 Number     Number              X              Y              Z
 -------------------------------------------------------------------
      1       42          -0.008723059    0.001659861    0.011403801
      2       16          -0.021410130    0.007166545    0.053205303
      3       16          -0.000190459    0.000197265   -0.000443599
      4       16          -0.012024662   -0.008644624   -0.000687982
      5       16           0.003762159   -0.003361647   -0.000155324
      6        1          -0.000448201   -0.001149084    0.000396375
      7       42          -0.004943924   -0.000335135    0.002155403
      8       16           0.000466201   -0.001787499   -0.001335460
      9        1          -0.000422505    0.000466475    0.000891482
     10       16          -0.006545783   -0.002647490    0.007508110
     11        1           0.002707375   -0.000929607   -0.000492349
     12       42           0.018721281    0.001194250   -0.013224850
     13       16           0.000973277    0.004155159   -0.005521637
     14        1          -0.001853585    0.003688682   -0.002221755
     15       16           0.020015420    0.017658123   -0.031044048
     16        1           0.009148586   -0.006588551   -0.020822037
     17        1           0.000768010   -0.010742723    0.000388567
 -------------------------------------------------------------------
 Cartesian Forces:  Max     0.053205303 RMS     0.011629396

 GradGradGradGradGradGradGradGradGradGradGradGradGradGradGradGradGradGrad
 Berny optimization.
 FormGI is forming the generalized inverse of G from B-inverse, IUseBI=4.
 Internal  Forces:  Max     0.045102888 RMS     0.011228036
 Search for a local minimum.
 Step number   1 out of a maximum of  102
 All quantities printed in internal units (Hartrees-Bohrs-Radians)
 Mixed Optimization -- RFO/linear search
 Second derivative matrix not updated -- first step.
 ITU=  0
     Eigenvalues ---    0.00230   0.00230   0.00230   0.00230   0.01357
     Eigenvalues ---    0.01635   0.02379   0.03286   0.03652   0.03673
     Eigenvalues ---    0.06329   0.06666   0.08088   0.08477   0.08848
     Eigenvalues ---    0.10135   0.10685   0.11129   0.11524   0.12084
     Eigenvalues ---    0.13409   0.13553   0.13573   0.13692   0.13822
     Eigenvalues ---    0.14012   0.14260   0.14786   0.15501   0.16000
     Eigenvalues ---    0.16000   0.16000   0.16000   0.16000   0.16563
     Eigenvalues ---    0.16864   0.16998   0.19161   0.21381   0.24588
     Eigenvalues ---    0.25360   0.25510   0.25750   0.27239   0.27239
 RFO step:  Lambda=-7.44859430D-02 EMin= 2.30000000D-03
 Linear search not attempted -- first point.
 Maximum step size (   0.300) exceeded in Quadratic search.
    -- Step size scaled by   0.603
 Iteration  1 RMS(Cart)=  0.07536030 RMS(Int)=  0.00214252
 Iteration  2 RMS(Cart)=  0.00251186 RMS(Int)=  0.00092002
 Iteration  3 RMS(Cart)=  0.00001028 RMS(Int)=  0.00092001
 Iteration  4 RMS(Cart)=  0.00000003 RMS(Int)=  0.00092001
 Variable       Old X    -DE/DX   Delta X   Delta X   Delta X     New X
                                 (Linear)    (Quad)   (Total)
    R1        4.37583  -0.00056   0.00000  -0.00336  -0.00490   4.37093
    R2        4.38406  -0.00205   0.00000  -0.00597  -0.00599   4.37808
    R3        4.61669   0.00686   0.00000   0.01895   0.01891   4.63560
    R4        4.41598   0.00557   0.00000   0.01546   0.01546   4.43144
    R5        5.12513  -0.00742   0.00000  -0.00573  -0.00606   5.11906
    R6        5.09917   0.01380   0.00000   0.03441   0.03466   5.13382
    R7        4.36859   0.02549   0.00000   0.07569   0.07668   4.44527
    R8        4.36137   0.00034   0.00000   0.00002  -0.00032   4.36106
    R9        4.46820  -0.00333   0.00000  -0.01547  -0.01504   4.45317
   R10        4.47197   0.00393   0.00000   0.01445   0.01467   4.48664
   R11        2.54839   0.00024   0.00000   0.00043   0.00043   2.54883
   R12        4.44733   0.00061   0.00000   0.00174   0.00174   4.44907
   R13        4.64031  -0.00655   0.00000  -0.01213  -0.01256   4.62774
   R14        4.84153   0.01644   0.00000   0.04673   0.04723   4.88876
   R15        2.55429  -0.00006   0.00000  -0.00010  -0.00010   2.55418
   R16        2.57767  -0.00064   0.00000  -0.00121  -0.00121   2.57645
   R17        4.64542   0.00758   0.00000   0.01808   0.01833   4.66376
   R18        4.45528   0.01092   0.00000   0.03135   0.03135   4.48663
   R19        4.89439   0.03643   0.00000   0.14132   0.14132   5.03571
   R20        2.55802  -0.00159   0.00000  -0.00291  -0.00291   2.55511
   R21        2.51334   0.02097   0.00000   0.03644   0.03644   2.54977
   R22        2.51334   0.01059   0.00000   0.01841   0.01841   2.53174
    A1        1.77799  -0.01631   0.00000  -0.03705  -0.03721   1.74078
    A2        1.84915   0.01018   0.00000   0.03003   0.02877   1.87793
    A3        2.16813   0.01360   0.00000   0.02859   0.02884   2.19697
    A4        1.72528  -0.00774   0.00000  -0.01616  -0.01769   1.70759
    A5        1.84051  -0.00003   0.00000  -0.00659  -0.00674   1.83377
    A6        2.17285  -0.00067   0.00000  -0.00462  -0.00484   2.16801
    A7        1.71506   0.00665   0.00000   0.01646   0.01691   1.73196
    A8        1.58801  -0.00265   0.00000   0.00164   0.00207   1.59009
    A9        2.30445  -0.00140   0.00000   0.00195   0.00268   2.30713
   A10        2.30859  -0.00697   0.00000  -0.01246  -0.01255   2.29604
   A11        1.90308   0.00129   0.00000   0.00332   0.00332   1.90640
   A12        2.66664   0.00283   0.00000   0.00588   0.00633   2.67296
   A13        1.96321  -0.00021   0.00000  -0.00103  -0.00096   1.96225
   A14        1.89277   0.00244   0.00000   0.00205   0.00183   1.89460
   A15        2.08278   0.00149   0.00000  -0.00097  -0.00120   2.08159
   A16        1.98839   0.00055   0.00000   0.00867   0.00964   1.99803
   A17        1.79009   0.00576   0.00000   0.01261   0.01305   1.80314
   A18        1.95028  -0.00336   0.00000  -0.00508  -0.00484   1.94544
   A19        1.88576   0.00106   0.00000  -0.00013  -0.00043   1.88534
   A20        1.64734  -0.00281   0.00000  -0.00497  -0.00550   1.64184
   A21        2.39547  -0.00702   0.00000  -0.01064  -0.01086   2.38461
   A22        1.82687  -0.00016   0.00000  -0.00041  -0.00041   1.82646
   A23        1.86602  -0.00238   0.00000  -0.00285  -0.00264   1.86338
   A24        1.86606  -0.00680   0.00000  -0.01326  -0.01314   1.85292
   A25        1.96985  -0.01120   0.00000  -0.02289  -0.02289   1.94695
   A26        2.77323   0.00761   0.00000   0.02274   0.02251   2.79574
   A27        1.30900   0.02939   0.00000   0.08056   0.08065   1.38965
   A28        1.89592   0.00344   0.00000   0.00816   0.00565   1.90157
   A29        1.80438  -0.02205   0.00000  -0.05334  -0.05428   1.75011
   A30        1.99961  -0.02797   0.00000  -0.06245  -0.06247   1.93714
   A31        1.89912   0.01489   0.00000   0.03892   0.03867   1.93779
   A32        1.10588   0.04510   0.00000   0.14517   0.14465   1.25052
   A33        1.88308  -0.00542   0.00000  -0.01826  -0.01852   1.86456
   A34        2.26893   0.00116   0.00000   0.00786   0.00733   2.27626
   A35        1.43638   0.00997   0.00000   0.00237   0.00410   1.44048
   A36        2.42639  -0.00237   0.00000  -0.01243  -0.01225   2.41414
   A37        2.30110   0.01802   0.00000   0.03736   0.03496   2.33606
   A38        1.48242   0.00335   0.00000  -0.00123  -0.00096   1.48146
   A39        1.50132  -0.02013   0.00000  -0.04639  -0.04653   1.45480
   A40        1.71181   0.01124   0.00000   0.02889   0.02889   1.74069
   A41        1.77006   0.01901   0.00000   0.04785   0.04800   1.81806
   A42        1.91986  -0.00646   0.00000  -0.01729  -0.01716   1.90270
   A43        1.66522  -0.00658   0.00000  -0.01964  -0.01920   1.64602
   A44        3.27884   0.01819   0.00000   0.05767   0.05776   3.33661
   A45        3.27450  -0.00690   0.00000  -0.05821  -0.05613   3.21837
    D1       -1.93510  -0.01075   0.00000  -0.03591  -0.03602  -1.97112
    D2        1.89955   0.00141   0.00000   0.00195   0.00215   1.90171
    D3       -0.01304   0.00357   0.00000   0.01014   0.01024  -0.00280
    D4        0.67845   0.00066   0.00000   0.00267   0.00281   0.68126
    D5       -0.70726   0.00229   0.00000  -0.00093  -0.00125  -0.70851
    D6        3.07420   0.01250   0.00000   0.04296   0.04290   3.11710
    D7        0.10104   0.01556   0.00000   0.04568   0.04593   0.14696
    D8        0.36784  -0.00145   0.00000   0.00200   0.00218   0.37002
    D9       -2.60532   0.00161   0.00000   0.00471   0.00521  -2.60011
   D10       -0.10368   0.00440   0.00000   0.01002   0.01039  -0.09329
   D11        2.43994  -0.00160   0.00000  -0.01252  -0.01289   2.42704
   D12        2.90501   0.01130   0.00000   0.06824   0.06652   2.97153
   D13        2.59956   0.00304   0.00000   0.00969   0.01033   2.60988
   D14       -1.14001  -0.00296   0.00000  -0.01286  -0.01296  -1.15297
   D15       -0.67494   0.00994   0.00000   0.06790   0.06646  -0.60849
   D16        1.30796   0.00205   0.00000   0.00197   0.00197   1.30992
   D17       -2.70061   0.00231   0.00000  -0.00380  -0.00393  -2.70454
   D18        2.39061  -0.00116   0.00000   0.00039   0.00070   2.39131
   D19       -1.65951   0.00043   0.00000  -0.00268  -0.00263  -1.66214
   D20        0.28500  -0.00049   0.00000  -0.00632  -0.00673   0.27827
   D21       -0.52945  -0.00378   0.00000  -0.00869  -0.00850  -0.53795
   D22        2.29739   0.00060   0.00000  -0.00199  -0.00214   2.29525
   D23       -2.94645   0.00126   0.00000  -0.00107  -0.00096  -2.94741
   D24        1.23231  -0.00293   0.00000  -0.00913  -0.00922   1.22308
   D25       -0.76724   0.00155   0.00000  -0.00167  -0.00177  -0.76901
   D26        0.00503  -0.01782   0.00000  -0.04635  -0.04578  -0.04075
   D27       -2.45942  -0.00176   0.00000  -0.00220  -0.00316  -2.46258
   D28        1.15822   0.02129   0.00000   0.09779   0.09892   1.25713
   D29        2.94909  -0.01558   0.00000  -0.03895  -0.03830   2.91079
   D30        0.48463   0.00048   0.00000   0.00521   0.00432   0.48895
   D31       -2.18091   0.02353   0.00000   0.10519   0.10640  -2.07452
   D32       -2.30206  -0.00246   0.00000  -0.00451  -0.00430  -2.30636
   D33        2.93619   0.01148   0.00000   0.02879   0.02842   2.96461
   D34       -1.23324  -0.00632   0.00000  -0.01486  -0.01447  -1.24771
   D35        1.04447  -0.00479   0.00000  -0.00985  -0.00982   1.03465
   D36        0.42013   0.00373   0.00000   0.02484   0.02528   0.44541
   D37        1.01985   0.02329   0.00000   0.06298   0.06322   1.08307
   D38       -1.36394  -0.00839   0.00000  -0.02492  -0.02555  -1.38949
   D39       -2.82139  -0.00221   0.00000  -0.00509  -0.00542  -2.82681
   D40        3.01397  -0.00434   0.00000  -0.00131  -0.00161   3.01236
   D41       -0.02908  -0.01313   0.00000  -0.06471  -0.06413  -0.09321
   D42        2.50961   0.00417   0.00000   0.01335   0.01101   2.52062
   D43        0.76203   0.00543   0.00000   0.02017   0.01799   0.78002
   D44       -2.77310  -0.01267   0.00000  -0.03320  -0.02900  -2.80210
   D45        1.76250  -0.01142   0.00000  -0.02638  -0.02201   1.74049
   D46        1.49652   0.00690   0.00000   0.01486   0.01469   1.51121
   D47       -0.25105   0.00816   0.00000   0.02168   0.02167  -0.22938
   D48        2.04101  -0.01247   0.00000  -0.07072  -0.07264   1.96837
   D49        0.29343  -0.01121   0.00000  -0.06390  -0.06565   0.22778
   D50       -0.79458   0.00296   0.00000  -0.00392  -0.00411  -0.79869
   D51       -2.54216   0.00421   0.00000   0.00290   0.00287  -2.53929
         Item               Value     Threshold  Converged?
 Maximum Force            0.045103     0.000450     NO 
 RMS     Force            0.011228     0.000300     NO 
 Maximum Displacement     0.379626     0.001800     NO 
 RMS     Displacement     0.076100     0.001200     NO 
 Predicted change in Energy=-3.695876D-02
 GradGradGradGradGradGradGradGradGradGradGradGradGradGradGradGradGradGrad

                          Input orientation:                          
 ---------------------------------------------------------------------
 Center     Atomic      Atomic             Coordinates (Angstroms)
 Number     Number       Type             X           Y           Z
 ---------------------------------------------------------------------
      1         42           0       -0.287174    1.524010   11.423319
      2         16           0        0.207714    3.783042   11.465898
      3         16           0       -2.228140    1.524087   12.688274
      4         16           0       -1.009847    0.965905    9.146539
      5         16           0        1.274830   -0.224966   11.404979
      6          1           0        1.209364   -0.866606   10.220403
      7         42           0       -2.813236    1.717251   10.464277
      8         16           0       -4.856004    0.807069    9.728325
      9          1           0       -5.373005    1.747578    8.906730
     10         16           0       -3.372174    3.993915    9.756128
     11          1           0       -3.926930    3.894554    8.514664
     12         42           0       -1.013001    3.311984    9.511045
     13         16           0       -0.875301    5.110007    7.966670
     14          1           0        0.457116    5.112393    7.736788
     15         16           0        1.581721    3.050132    8.963383
     16          1           0        1.645837    3.137578    7.618465
     17          1           0        1.905650    1.750535    8.995334
 ---------------------------------------------------------------------
                    Distance matrix (angstroms):
                    1          2          3          4          5
     1  Mo   0.000000
     2  S    2.312996   0.000000
     3  S    2.316778   3.539840   0.000000
     4  S    2.453052   3.846835   3.786778   0.000000
     5  S    2.345018   4.148080   4.120295   3.426146   0.000000
     6  H    3.066215   4.916684   4.860270   3.071837   1.348780
     7  Mo   2.708892   3.794322   2.307772   2.356515   4.622706
     8  S    4.925568   6.125098   4.022572   3.893151   6.439208
     9  H    5.678810   6.468144   4.923434   4.439107   7.370610
    10  S    4.289194   3.972830   4.000793   3.888577   6.489400
    11  H    5.227579   5.081093   5.091564   4.181581   7.237588
    12  Mo   2.716702   2.352337   3.842905   2.374228   4.618568
    13  S    5.015346   3.895941   6.081327   4.310890   6.701266
    14  H    5.198170   3.966817   6.678604   4.618738   6.527763
    15  S    3.445737   2.947479   5.542442   3.330732   4.096564
    16  H    4.562571   4.157832   6.581339   3.755508   5.077602
    17  H    3.279467   3.621844   5.547730   3.023017   3.179140
                    6          7          8          9         10
     6  H    0.000000
     7  Mo   4.787181   0.000000
     8  S    6.311261   2.354349   0.000000
     9  H    7.203283   2.996546   1.351616   0.000000
    10  S    6.695574   2.448895   3.515468   3.125833   0.000000
    11  H    7.208308   3.127612   3.445101   2.618082   1.363400
    12  Mo   4.785677   2.587020   4.592438   4.671424   2.467953
    13  S    6.719006   4.637286   6.120842   5.693767   3.268362
    14  H    6.517872   5.446227   7.122590   6.832354   4.471262
    15  S    4.130325   4.831657   6.860086   7.075880   5.104923
    16  H    4.795215   5.477163   7.221962   7.270205   5.521173
    17  H    2.972379   4.942347   6.866395   7.279195   5.785066
                   11         12         13         14         15
    11  H    0.000000
    12  Mo   3.134190   0.000000
    13  S    3.330175   2.374225   0.000000
    14  H    4.616068   2.924159   1.352105   0.000000
    15  S    5.591032   2.664786   3.357600   2.649942   0.000000
    16  H    5.694904   3.268287   3.219917   2.308019   1.349283
    17  H    6.232725   3.350015   4.480836   3.870953   1.339740
                   16         17
    16  H    0.000000
    17  H    1.971588   0.000000
 Symmetry turned off by external request.
 Stoichiometry    H6Mo3S8
 Framework group  C1[X(H6Mo3S8)]
 Deg. of freedom    45
 Full point group                 C1      NOp   1
 Rotational constants (GHZ):           0.2881321           0.2645948           0.1749624
 Basis read from rwf:  (5D, 7F)
 Pseudo-potential data read from rwf file.
   240 basis functions,   605 primitive gaussians,   254 cartesian basis functions
    88 alpha electrons       88 beta electrons
       nuclear repulsion energy      2100.2553055820 Hartrees.
 NAtoms=   17 NActive=   17 NUniq=   17 SFac= 1.00D+00 NAtFMM=   60 NAOKFM=F Big=F
 Integral buffers will be    131072 words long.
 Raffenetti 2 integral format.
 Two-electron integral symmetry is turned off.
 One-electron integrals computed using PRISM.
   1 Symmetry operations used in ECPInt.
 ECPInt:  NShTT=    3403 NPrTT=   23974 LenC2=    3147 LenP2D=   15308.
 LDataN:  DoStor=T MaxTD1= 5 Len=  102
 NBasis=   240 RedAO= T EigKep=  1.22D-03  NBF=   240
 NBsUse=   240 1.00D-06 EigRej= -1.00D+00 NBFU=   240
 Defaulting to unpruned grid for atomic number  42.
 Defaulting to unpruned grid for atomic number  42.
 Defaulting to unpruned grid for atomic number  42.
 Initial guess from the checkpoint file:  "Mo3_SH_H2S.chk"
 B after Tr=     0.179400    0.006843    0.079348
         Rot=    0.999987   -0.000423    0.005165   -0.000231 Ang=  -0.59 deg.
 ExpMin= 2.47D-02 ExpMax= 2.19D+04 ExpMxC= 3.30D+03 IAcc=3 IRadAn=         5 AccDes= 0.00D+00
 Harris functional with IExCor=  402 and IRadAn=       5 diagonalized for initial guess.
 HarFok:  IExCor=  402 AccDes= 0.00D+00 IRadAn=         5 IDoV= 1 UseB2=F ITyADJ=14
 ICtDFT=  3500011 ScaDFX=  1.000000  1.000000  1.000000  1.000000
 Defaulting to unpruned grid for atomic number  42.
 FoFCou: FMM=F IPFlag=           0 FMFlag=      100000 FMFlg1=           0
         NFxFlg=           0 DoJE=T BraDBF=F KetDBF=T FulRan=T
         wScrn=  0.000000 ICntrl=       500 IOpCl=  0 I1Cent=   200000004 NGrid=           0
         NMat0=    1 NMatS0=      1 NMatT0=    0 NMatD0=    1 NMtDS0=    0 NMtDT0=    0
 Symmetry not used in FoFCou.
 Requested convergence on RMS density matrix=1.00D-08 within 128 cycles.
 Requested convergence on MAX density matrix=1.00D-06.
 Requested convergence on             energy=1.00D-06.
 No special actions if energy rises.
 Defaulting to unpruned grid for atomic number  42.
 Defaulting to unpruned grid for atomic number  42.
 Defaulting to unpruned grid for atomic number  42.
 Defaulting to unpruned grid for atomic number  42.
 Defaulting to unpruned grid for atomic number  42.
 Defaulting to unpruned grid for atomic number  42.
 Defaulting to unpruned grid for atomic number  42.
 Defaulting to unpruned grid for atomic number  42.
 Defaulting to unpruned grid for atomic number  42.
 Defaulting to unpruned grid for atomic number  42.
 Defaulting to unpruned grid for atomic number  42.
 Defaulting to unpruned grid for atomic number  42.
 Defaulting to unpruned grid for atomic number  42.
 Defaulting to unpruned grid for atomic number  42.
 Defaulting to unpruned grid for atomic number  42.
 Defaulting to unpruned grid for atomic number  42.
 Defaulting to unpruned grid for atomic number  42.
 Defaulting to unpruned grid for atomic number  42.
 Defaulting to unpruned grid for atomic number  42.
 Defaulting to unpruned grid for atomic number  42.
 Defaulting to unpruned grid for atomic number  42.
 Defaulting to unpruned grid for atomic number  42.
 Defaulting to unpruned grid for atomic number  42.
 Defaulting to unpruned grid for atomic number  42.
 Defaulting to unpruned grid for atomic number  42.
 Defaulting to unpruned grid for atomic number  42.
 Defaulting to unpruned grid for atomic number  42.
 Defaulting to unpruned grid for atomic number  42.
 Defaulting to unpruned grid for atomic number  42.
 Defaulting to unpruned grid for atomic number  42.
 Defaulting to unpruned grid for atomic number  42.
 Defaulting to unpruned grid for atomic number  42.
 Defaulting to unpruned grid for atomic number  42.
 Defaulting to unpruned grid for atomic number  42.
 Defaulting to unpruned grid for atomic number  42.
 Defaulting to unpruned grid for atomic number  42.
 Defaulting to unpruned grid for atomic number  42.
 Defaulting to unpruned grid for atomic number  42.
 Defaulting to unpruned grid for atomic number  42.
 Defaulting to unpruned grid for atomic number  42.
 Defaulting to unpruned grid for atomic number  42.
 Defaulting to unpruned grid for atomic number  42.
 Defaulting to unpruned grid for atomic number  42.
 Defaulting to unpruned grid for atomic number  42.
 Defaulting to unpruned grid for atomic number  42.
 Defaulting to unpruned grid for atomic number  42.
 Defaulting to unpruned grid for atomic number  42.
 Defaulting to unpruned grid for atomic number  42.
 EnCoef did     5 forward-backward iterations
 SCF Done:  E(RB3LYP) =  -3392.01250735     A.U. after   17 cycles
            NFock= 17  Conv=0.95D-08     -V/T= 2.0438
   1 Symmetry operations used in ECPInt.
 ECPInt:  NShTT=    3403 NPrTT=   23974 LenC2=    3147 LenP2D=   15308.
 LDataN:  DoStor=T MaxTD1= 6 Len=  172
 Calling FoFJK, ICntrl=      2127 FMM=F ISym2X=0 I1Cent= 0 IOpClX= 0 NMat=1 NMatS=1 NMatT=0.
 Defaulting to unpruned grid for atomic number  42.
 Defaulting to unpruned grid for atomic number  42.
 Defaulting to unpruned grid for atomic number  42.
 Defaulting to unpruned grid for atomic number  42.
 Defaulting to unpruned grid for atomic number  42.
 Defaulting to unpruned grid for atomic number  42.
 Defaulting to unpruned grid for atomic number  42.
 Defaulting to unpruned grid for atomic number  42.
 Defaulting to unpruned grid for atomic number  42.
 Defaulting to unpruned grid for atomic number  42.
 Defaulting to unpruned grid for atomic number  42.
 Defaulting to unpruned grid for atomic number  42.
 Defaulting to unpruned grid for atomic number  42.
 Defaulting to unpruned grid for atomic number  42.
 Defaulting to unpruned grid for atomic number  42.
 Defaulting to unpruned grid for atomic number  42.
 Defaulting to unpruned grid for atomic number  42.
 Defaulting to unpruned grid for atomic number  42.
 Defaulting to unpruned grid for atomic number  42.
 Defaulting to unpruned grid for atomic number  42.
 Defaulting to unpruned grid for atomic number  42.
 Defaulting to unpruned grid for atomic number  42.
 Defaulting to unpruned grid for atomic number  42.
 Defaulting to unpruned grid for atomic number  42.
 Defaulting to unpruned grid for atomic number  42.
 Defaulting to unpruned grid for atomic number  42.
 Defaulting to unpruned grid for atomic number  42.
 Defaulting to unpruned grid for atomic number  42.
 Defaulting to unpruned grid for atomic number  42.
 Defaulting to unpruned grid for atomic number  42.
 Defaulting to unpruned grid for atomic number  42.
 Defaulting to unpruned grid for atomic number  42.
 Defaulting to unpruned grid for atomic number  42.
 Defaulting to unpruned grid for atomic number  42.
 Defaulting to unpruned grid for atomic number  42.
 Defaulting to unpruned grid for atomic number  42.
 Defaulting to unpruned grid for atomic number  42.
 Defaulting to unpruned grid for atomic number  42.
 Defaulting to unpruned grid for atomic number  42.
 Defaulting to unpruned grid for atomic number  42.
 Defaulting to unpruned grid for atomic number  42.
 Defaulting to unpruned grid for atomic number  42.
 Defaulting to unpruned grid for atomic number  42.
 Defaulting to unpruned grid for atomic number  42.
 Defaulting to unpruned grid for atomic number  42.
 Defaulting to unpruned grid for atomic number  42.
 Defaulting to unpruned grid for atomic number  42.
 Defaulting to unpruned grid for atomic number  42.
 -------------------------------------------------------------------
 Center     Atomic                   Forces (Hartrees/Bohr)
 Number     Number              X              Y              Z
 -------------------------------------------------------------------
      1       42          -0.005392728    0.002607452    0.005164141
      2       16          -0.011226870   -0.002127022    0.013841103
      3       16          -0.001556366    0.000054923   -0.000592528
      4       16          -0.006955905   -0.005409747    0.001119745
      5       16           0.003140217   -0.000506791   -0.000162430
      6        1          -0.001027360   -0.000837084    0.000393865
      7       42          -0.003683512    0.002416400   -0.001635424
      8       16           0.000778934   -0.002432244   -0.000752451
      9        1          -0.000226980    0.000692216    0.000854623
     10       16          -0.003533540   -0.001361080    0.006818293
     11        1           0.001874023   -0.001006992   -0.000397641
     12       42           0.018408740    0.000523080   -0.001947290
     13       16          -0.001563955    0.002744453   -0.003216975
     14        1          -0.001465544    0.003021900   -0.001365434
     15       16           0.010205389    0.010411191   -0.014364975
     16        1           0.002544594   -0.003884136   -0.003989126
     17        1          -0.000319137   -0.004906519    0.000232504
 -------------------------------------------------------------------
 Cartesian Forces:  Max     0.018408740 RMS     0.005297777

 GradGradGradGradGradGradGradGradGradGradGradGradGradGradGradGradGradGrad
 Berny optimization.
 Using GEDIIS/GDIIS optimizer.
 FormGI is forming the generalized inverse of G from B-inverse, IUseBI=4.
 Internal  Forces:  Max     0.015668862 RMS     0.004291467
 Search for a local minimum.
 Step number   2 out of a maximum of  102
 All quantities printed in internal units (Hartrees-Bohrs-Radians)
 Mixed Optimization -- RFO/linear search
 Update second derivatives using D2CorX and points    1    2
 DE= -2.91D-02 DEPred=-3.70D-02 R= 7.87D-01
 TightC=F SS=  1.41D+00  RLast= 3.89D-01 DXNew= 5.0454D-01 1.1679D+00
 Trust test= 7.87D-01 RLast= 3.89D-01 DXMaxT set to 5.05D-01
 ITU=  1  0
 Use linear search instead of GDIIS.
     Eigenvalues ---    0.00230   0.00230   0.00230   0.00231   0.01339
     Eigenvalues ---    0.01656   0.02391   0.03597   0.03651   0.03969
     Eigenvalues ---    0.06487   0.06657   0.08305   0.08509   0.09285
     Eigenvalues ---    0.10105   0.10890   0.11187   0.11542   0.12480
     Eigenvalues ---    0.13161   0.13415   0.13578   0.13692   0.13972
     Eigenvalues ---    0.13982   0.14268   0.14937   0.15442   0.15870
     Eigenvalues ---    0.16000   0.16000   0.16000   0.16079   0.16550
     Eigenvalues ---    0.16931   0.18399   0.19912   0.23425   0.24588
     Eigenvalues ---    0.25359   0.25510   0.25750   0.27204   0.28327
 RFO step:  Lambda=-1.39088713D-02 EMin= 2.29904989D-03
 Quartic linear search produced a step of  1.33347.
 Iteration  1 RMS(Cart)=  0.11911172 RMS(Int)=  0.01008412
 Iteration  2 RMS(Cart)=  0.01033860 RMS(Int)=  0.00352991
 Iteration  3 RMS(Cart)=  0.00013024 RMS(Int)=  0.00352911
 Iteration  4 RMS(Cart)=  0.00000102 RMS(Int)=  0.00352911
 Iteration  5 RMS(Cart)=  0.00000003 RMS(Int)=  0.00352911
 Variable       Old X    -DE/DX   Delta X   Delta X   Delta X     New X
                                 (Linear)    (Quad)   (Total)
    R1        4.37093  -0.00234  -0.00654  -0.03313  -0.04299   4.32794
    R2        4.37808   0.00034  -0.00799   0.01526   0.00927   4.38734
    R3        4.63560   0.00177   0.02522   0.00141   0.02455   4.66014
    R4        4.43144   0.00241   0.02062   0.00208   0.02270   4.45414
    R5        5.11906  -0.00295  -0.00809   0.01980   0.01202   5.13108
    R6        5.13382   0.00517   0.04621  -0.00600   0.04093   5.17476
    R7        4.44527   0.00456   0.10225  -0.09053   0.01355   4.45882
    R8        4.36106  -0.00091  -0.00042  -0.01085  -0.01337   4.34769
    R9        4.45317  -0.00260  -0.02005  -0.03416  -0.05312   4.40004
   R10        4.48664   0.00400   0.01957   0.03883   0.05983   4.54647
   R11        2.54883   0.00010   0.00058  -0.00010   0.00048   2.54930
   R12        4.44907   0.00016   0.00232  -0.00128   0.00104   4.45011
   R13        4.62774  -0.00481  -0.01675  -0.03620  -0.05361   4.57413
   R14        4.88876   0.00839   0.06298   0.02577   0.08832   4.97708
   R15        2.55418   0.00005  -0.00014   0.00063   0.00050   2.55468
   R16        2.57645  -0.00033  -0.00162  -0.00024  -0.00185   2.57460
   R17        4.66376   0.00386   0.02445   0.02292   0.04838   4.71214
   R18        4.48663   0.00717   0.04181   0.04322   0.08503   4.57166
   R19        5.03571   0.01567   0.18845   0.08410   0.27256   5.30827
   R20        2.55511  -0.00121  -0.00388  -0.00402  -0.00791   2.54720
   R21        2.54977   0.00385   0.04859  -0.04924  -0.00065   2.54913
   R22        2.53174   0.00469   0.02454  -0.00271   0.02184   2.55358
    A1        1.74078  -0.00501  -0.04962   0.04075  -0.01057   1.73022
    A2        1.87793   0.00295   0.03837  -0.01448   0.02096   1.89889
    A3        2.19697   0.00448   0.03846  -0.03841   0.00009   2.19707
    A4        1.70759  -0.00336  -0.02359   0.01441  -0.01322   1.69437
    A5        1.83377  -0.00080  -0.00898  -0.01932  -0.02908   1.80470
    A6        2.16801  -0.00013  -0.00645   0.00601   0.00053   2.16854
    A7        1.73196   0.00282   0.02255  -0.00288   0.01945   1.75141
    A8        1.59009  -0.00073   0.00276   0.01483   0.02008   1.61016
    A9        2.30713   0.00001   0.00357   0.01370   0.02057   2.32770
   A10        2.29604  -0.00280  -0.01674   0.00417  -0.01264   2.28339
   A11        1.90640  -0.00026   0.00443  -0.01067  -0.00624   1.90016
   A12        2.67296   0.00060   0.00844  -0.01617  -0.00856   2.66440
   A13        1.96225  -0.00068  -0.00128  -0.01089  -0.01189   1.95036
   A14        1.89460   0.00092   0.00244  -0.00125   0.00019   1.89480
   A15        2.08159  -0.00023  -0.00160  -0.01177  -0.01453   2.06705
   A16        1.99803  -0.00067   0.01286  -0.02378  -0.00845   1.98958
   A17        1.80314   0.00241   0.01741  -0.00539   0.01295   1.81609
   A18        1.94544  -0.00158  -0.00645  -0.00943  -0.01604   1.92940
   A19        1.88534   0.00147  -0.00057   0.02284   0.02154   1.90688
   A20        1.64184   0.00010  -0.00734   0.02915   0.02208   1.66392
   A21        2.38461  -0.00200  -0.01449   0.01990   0.00558   2.39019
   A22        1.82646  -0.00092  -0.00054  -0.01138  -0.01193   1.81453
   A23        1.86338  -0.00254  -0.00353  -0.01694  -0.01963   1.84375
   A24        1.85292  -0.00409  -0.01752  -0.02805  -0.04479   1.80813
   A25        1.94695  -0.00572  -0.03053  -0.02018  -0.04924   1.89771
   A26        2.79574   0.00590   0.03002   0.03477   0.05690   2.85265
   A27        1.38965   0.01105   0.10755   0.00735   0.11364   1.50329
   A28        1.90157   0.00018   0.00753  -0.00840  -0.00710   1.89446
   A29        1.75011  -0.00819  -0.07238   0.02804  -0.04641   1.70369
   A30        1.93714  -0.01092  -0.08330   0.01895  -0.06490   1.87225
   A31        1.93779   0.00759   0.05157  -0.00096   0.04697   1.98476
   A32        1.25052   0.01527   0.19288   0.00695   0.19791   1.44844
   A33        1.86456  -0.00308  -0.02469  -0.01668  -0.04177   1.82279
   A34        2.27626   0.00054   0.00978   0.03073   0.03233   2.30859
   A35        1.44048   0.00571   0.00547  -0.02289  -0.01298   1.42750
   A36        2.41414  -0.00373  -0.01634  -0.04122  -0.05251   2.36163
   A37        2.33606   0.00682   0.04662  -0.01824   0.01350   2.34956
   A38        1.48146  -0.00008  -0.00128  -0.02898  -0.02402   1.45743
   A39        1.45480  -0.00500  -0.06204   0.04820  -0.01803   1.43676
   A40        1.74069   0.00855   0.03852   0.05081   0.08933   1.83003
   A41        1.81806   0.00643   0.06401  -0.02992   0.03447   1.85253
   A42        1.90270  -0.00437  -0.02288  -0.02936  -0.05186   1.85084
   A43        1.64602  -0.00215  -0.02561  -0.01779  -0.04212   1.60390
   A44        3.33661   0.00533   0.07702  -0.01282   0.06439   3.40100
   A45        3.21837  -0.00065  -0.07485  -0.04094  -0.11079   3.10758
    D1       -1.97112  -0.00331  -0.04804  -0.06162  -0.11023  -2.08135
    D2        1.90171  -0.00022   0.00287  -0.09238  -0.08835   1.81336
    D3       -0.00280   0.00133   0.01365  -0.08081  -0.06712  -0.06992
    D4        0.68126  -0.00037   0.00375  -0.09288  -0.08877   0.59249
    D5       -0.70851  -0.00074  -0.00167  -0.11268  -0.11535  -0.82386
    D6        3.11710   0.00370   0.05720  -0.02955   0.02747  -3.13862
    D7        0.14696   0.00351   0.06124  -0.06225   0.00118   0.14814
    D8        0.37002  -0.00014   0.00291   0.00729   0.00994   0.37996
    D9       -2.60011  -0.00034   0.00695  -0.02541  -0.01635  -2.61646
   D10       -0.09329   0.00240   0.01386   0.01252   0.02625  -0.06704
   D11        2.42704  -0.00160  -0.01719  -0.09373  -0.11737   2.30967
   D12        2.97153   0.00305   0.08871   0.05346   0.13704   3.10857
   D13        2.60988   0.00256   0.01377   0.03085   0.04652   2.65641
   D14       -1.15297  -0.00144  -0.01728  -0.07540  -0.09710  -1.25007
   D15       -0.60849   0.00321   0.08862   0.07179   0.15731  -0.45117
   D16        1.30992   0.00024   0.00262  -0.01361  -0.01048   1.29945
   D17       -2.70454   0.00031  -0.00525  -0.07566  -0.08004  -2.78458
   D18        2.39131  -0.00040   0.00094  -0.06013  -0.05784   2.33347
   D19       -1.66214  -0.00086  -0.00351  -0.08250  -0.08625  -1.74839
   D20        0.27827   0.00045  -0.00898  -0.04647  -0.05662   0.22166
   D21       -0.53795  -0.00212  -0.01134  -0.07950  -0.09165  -0.62960
   D22        2.29525   0.00026  -0.00285  -0.00595  -0.00999   2.28526
   D23       -2.94741   0.00057  -0.00128  -0.01219  -0.01339  -2.96080
   D24        1.22308  -0.00124  -0.01230  -0.01166  -0.02377   1.19932
   D25       -0.76901   0.00009  -0.00236  -0.01795  -0.02055  -0.78956
   D26       -0.04075  -0.00579  -0.06104   0.03047  -0.03031  -0.07106
   D27       -2.46258  -0.00076  -0.00421   0.04311   0.02810  -2.43448
   D28        1.25713   0.00711   0.13190   0.06814   0.20152   1.45865
   D29        2.91079  -0.00439  -0.05107   0.04673  -0.00192   2.90887
[...]
   zy        -0.315994D+02     -0.468254D+01     -0.521003D+01
   zz         0.280342D+03      0.415424D+02      0.462222D+02

 ----------------------------------------------------------------------
 Unable to Open any file for archive entry.
 1\1\GINC-NODE18-IB\Freq\RB3LYP\Gen\H6Mo3S8\CHESAGAR\26-Oct-2022\0\\#N 
 Geom=AllCheck Guess=TCheck SCRF=Check GenChk RB3LYP/ChkBas Freq\\Title
  Card Required\\0,1\Mo,-0.3526087118,1.4002953005,11.4549308053\S,0.11
 14698281,3.6241836929,11.7128559506\S,-2.3800635921,1.3098380604,12.58
 181909\S,-0.9406716775,1.0030932129,9.102593514\S,1.3445693632,-0.2362
 500938,11.3611794685\H,1.2584236324,-0.8499299274,10.1632507393\Mo,-2.
 8049691072,1.701926446,10.3446592712\S,-4.796846496,0.892245169,9.3923
 925822\H,-5.3060808932,2.008652794,8.8231866024\S,-3.2224198081,4.0655
 985001,10.1669546047\H,-3.8177384863,4.279738028,8.9592505315\Mo,-0.90
 90508994,3.3402414874,9.5881740555\S,-1.1738031158,4.8133405239,7.7254
 976764\H,0.0568397809,4.9593245813,7.1853318317\S,1.6585171131,3.26363
 90958,8.7352430688\H,1.6071606361,2.4373884352,7.6692744899\H,2.194694
 0655,2.325142532,9.5446276702\\Version=ES64L-G16RevC.01\HF=-3392.02952
 03\RMSD=9.878e-09\RMSF=9.444e-06\ZeroPoint=0.0649726\Thermal=0.0855999
 \ETot=-3391.9439205\HTot=-3391.9429763\GTot=-3392.0156707\Dipole=1.183
 0597,-0.0249084,-1.1150097\DipoleDeriv=0.810657,-0.3662446,-0.0200986,
 -0.4116085,0.9738626,-0.0195862,-0.3250674,0.2581029,-0.0296235,-0.219
 267,-0.149982,-0.242726,-0.0824672,-0.4407721,-0.1574984,-0.3442102,-0
 .1465363,-0.2960443,-0.2692848,0.0834663,0.0309907,-0.0662964,-0.03905
 82,0.1712192,0.1513334,0.1388937,-0.571067,-0.0226035,0.0355223,0.1147
 699,0.1048096,-0.1197038,-0.2314335,0.1908728,-0.2595757,-0.1173697,-0
 .6375635,0.5225601,0.0093861,0.4533219,-0.6420032,0.1248379,0.0894345,
 0.0518997,0.0054504,0.0486743,-0.0206719,-0.1012564,0.0301715,0.097248
 9,0.0280241,0.0053837,-0.0790381,-0.0244172,0.7546609,0.0705221,0.2800
 989,0.2080143,0.1908325,0.147007,0.4545755,0.0731944,0.6881977,-0.8239
 623,-0.2019908,-0.2274621,-0.3278044,-0.0085826,-0.2519487,-0.431603,-
 0.2324475,-0.2918469,0.0027994,-0.1027449,0.0064109,0.0915908,-0.05420
 14,0.0995541,0.0133122,0.0347243,0.1163772,-0.1397449,-0.007745,0.1188
 72,-0.0433134,-0.138913,-0.0366299,0.0113396,-0.1094816,0.1450617,-0.0
 207139,0.0513674,-0.0329303,0.0847464,0.0542278,-0.0240752,-0.115591,0
 .073157,-0.0631615,0.596442,0.136408,-0.0308252,-0.1604622,0.3621416,-
 0.2052322,0.3200351,-0.2767979,0.8645896,0.0840972,0.001302,-0.101961,
 -0.0078974,-0.5555916,0.3862105,-0.0604148,0.3847152,-0.6403182,-0.107
 8814,-0.0188093,0.0853141,0.0313542,0.0923889,0.0087201,0.016929,0.086
 1251,0.0246181,-0.2064103,0.0103444,0.1092339,-0.0342662,0.178644,0.05
 12535,0.0608215,0.0032271,0.049699,0.0378512,-0.0296758,-0.0299918,0.0
 340299,0.0175684,-0.080903,-0.0167222,0.0249636,0.0827126,0.1122495,-0
 .0136284,0.0321748,0.096077,0.0319112,-0.0095195,-0.0204285,-0.0251258
 ,0.0571421\Polar=337.79292,-1.1048571,271.8092155,17.3335142,-47.47060
 29,254.5206133\Quadrupole=15.764448,10.6598526,-26.4243006,1.7601115,2
 0.0479063,-4.3781785\PG=C01 [X(H6Mo3S8)]\NImag=0\\0.23197859,-0.037341
 48,0.24243709,0.00731794,0.00852279,0.22507843,-0.01482417,-0.02996896
 ,0.00204621,0.05000748,-0.02179234,-0.11976881,-0.02638155,0.03813252,
 0.13187535,0.00255884,-0.02961209,-0.01242105,0.02902583,0.04098409,0.
 10039905,-0.07125619,-0.00229098,0.05400714,-0.00316881,-0.01162467,0.
 00459722,0.09102610,-0.00615469,-0.01050176,-0.00230614,-0.00259613,-0
 .00049120,0.00811114,0.00535404,0.02129704,0.06205025,-0.00157873,-0.0
 5188174,-0.00367622,0.00064742,0.00352356,-0.04555398,-0.01785025,0.16
 623409,-0.01496408,0.00111001,-0.01348300,0.00424411,-0.00300487,-0.00
 622866,-0.00215994,-0.00114163,0.00217253,0.10596524,0.00208172,-0.005
 36791,-0.01408649,0.00033715,-0.00449148,0.00078694,-0.00310210,0.0037
 2361,0.00258645,-0.02050759,0.12464464,-0.01968916,-0.00888726,-0.0768
 8985,0.00116878,-0.00012026,-0.00008268,0.00308923,-0.00234983,-0.0030
 6632,-0.03856049,0.04786434,0.11924041,-0.05371385,0.03581028,-0.00495
 385,0.00436292,0.00770180,-0.00167929,-0.00347118,-0.00053739,-0.00016
 494,-0.00278687,0.00283000,-0.00098710,0.06153619,0.04365070,-0.057857
 43,-0.00005627,0.00138199,-0.00222534,0.00059409,0.00652302,0.00255759
 ,-0.00261235,0.00184135,0.00018520,0.00042903,-0.04160519,0.11203230,0
 .00683188,-0.01504177,-0.02973006,0.00128259,0.00049980,-0.00012273,-0
 .00151869,-0.00194035,0.00294342,-0.00515924,0.00405336,0.00170818,0.0
 2392567,0.10624220,0.23495385,-0.00462207,0.00916587,0.00747165,-0.000
 93261,-0.00107610,0.00004704,-0.00001411,-0.00001427,0.00065179,-0.000
 53364,-0.00030967,-0.00051786,-0.00569492,-0.01101188,-0.02464727,0.01
 036598,0.00374741,-0.00721634,-0.00800827,-0.00021747,-0.00014832,-0.0
 0040485,-0.00015609,-0.00049012,0.00119956,-0.00046580,0.00002061,0.00
 156930,-0.00666980,-0.05427219,-0.09713398,0.00315535,0.06079636,0.001
 26169,0.00024625,0.00302668,0.00031827,0.00069130,0.00030708,-0.000528
 66,0.00006986,-0.00048045,-0.00043869,0.00119717,0.00032799,-0.0183957
 6,-0.10415796,-0.21352443,0.01807068,0.10310720,0.21077399,-0.05906165
 ,0.00282831,-0.03232623,-0.01029349,-0.00166033,-0.00504947,-0.0131698
 7,0.00575096,-0.01709512,-0.08029247,0.02893297,0.05584426,0.00044699,
 -0.00049667,0.00198804,0.00032601,0.00136727,-0.00108048,0.29515172,0.
 02573815,-0.01247385,0.01295433,-0.00707038,-0.00009329,-0.00698111,0.
 00124088,-0.01301547,0.01143720,0.02813544,-0.00897617,-0.01875398,-0.
 00072332,0.00192033,0.00200967,-0.00009313,-0.00006619,-0.00073800,-0.
 00069351,0.20438412,-0.05196545,0.00924881,-0.01377196,-0.00504468,0.0
 0061864,0.00166435,-0.00988470,0.01329190,-0.11817727,0.05936867,-0.01
 754784,-0.04374747,0.00118933,-0.00321513,0.00221656,0.00086737,0.0010
 3609,-0.00068658,0.02677526,-0.01938746,0.23640236,-0.00309913,-0.0019
 3417,-0.00140614,0.00027291,-0.00053463,0.00042882,-0.00002743,0.00248
 030,-0.00470130,-0.00046502,-0.00051440,-0.00136243,-0.00041318,0.0005
 0287,0.00055637,-0.00001120,0.00033023,0.00013147,-0.07505189,-0.03011
 792,-0.03306160,0.11784987,-0.00825896,0.00521087,-0.00136875,0.000521
 21,-0.00171092,0.00057636,0.00004677,-0.00033018,-0.00248209,-0.001237
 81,0.00083796,-0.00071005,0.00049570,-0.00040201,0.00073494,-0.0002479
 8,0.00073825,-0.00004794,-0.02016449,-0.03255222,0.00046907,-0.0449806
 6,0.20791439,-0.00276406,-0.00308703,-0.00088680,-0.00032179,0.0009721
 4,-0.00060547,0.00191490,-0.00057034,0.00133496,0.00035393,-0.00098404
 ,0.00163999,0.00014343,0.00071968,-0.00047077,-0.00031606,-0.00029074,
 0.00025868,-0.03541049,-0.00931829,-0.02565266,0.07652102,-0.07575883,
 0.06696349,0.00139640,-0.00165527,-0.00063371,-0.00038689,0.00106414,-
 0.00073971,0.00091078,-0.00020365,0.00055738,0.00052268,-0.00060042,0.
 00067111,-0.00005498,0.00026595,-0.00033849,-0.00004540,-0.00024878,0.
 00006565,-0.01049688,0.00480190,-0.00712568,-0.03655440,0.07331830,-0.
 03782479,0.04449194,0.00072524,-0.00122553,0.00046191,-0.00000749,0.00
 018800,0.00001861,0.00016452,0.00074499,0.00022905,0.00004506,0.000063
 71,0.00012274,-0.00008821,0.00011665,-0.00013746,0.00004162,-0.0001440
 9,0.00004931,0.00098510,0.00372449,-0.00396510,0.07614979,-0.18221804,
 0.08933676,-0.07547944,0.17907064,0.00181678,0.00040377,0.00100007,0.0
 0026032,-0.00053387,0.00024615,-0.00115377,0.00026872,-0.00022224,-0.0
 0057594,0.00058326,0.00015606,-0.00021248,-0.00007968,0.00015252,0.000
 11566,0.00001543,-0.00003372,-0.00311452,0.00182844,-0.00424460,-0.038
 85019,0.08610271,-0.04581535,0.04300536,-0.08709091,0.04877893,-0.0018
 7139,0.00144829,0.00250982,-0.00123619,-0.00014802,-0.00317320,0.00093
 439,-0.00040882,-0.00004471,-0.00291707,0.00121415,-0.00105101,0.00034
 871,-0.00015814,0.00004539,-0.00002095,-0.00003251,-0.00005537,-0.0103
 6021,0.00911905,-0.00973893,0.00062653,-0.00426897,-0.00090305,-0.0002
 5096,-0.00164735,0.00118358,0.12703613,-0.00056327,-0.00298760,-0.0048
 0255,-0.00096316,0.00254701,-0.00188114,0.00032978,0.00028472,0.004420
 67,0.00443083,-0.00140019,0.00261759,0.00017147,0.00017416,0.00002424,
 -0.00013735,0.00006666,0.00007957,0.00562541,-0.09090974,-0.00437229,0
 .00106948,-0.00227942,-0.00138838,-0.00099382,0.00065374,0.00086978,-0
 .03404678,0.12022703,-0.00043986,0.00130046,-0.00273409,-0.00168968,0.
 00138339,-0.00130250,-0.00264777,0.00131080,-0.00143891,0.00012228,-0.
 00133562,0.00296913,0.00013980,-0.00007912,-0.00011712,-0.00009986,-0.
 00007673,0.00003609,-0.00006468,0.00904672,-0.00798931,0.00086290,-0.0
 0059333,-0.00072290,-0.00109958,-0.00131765,0.00014169,0.06760311,-0.0
 2346143,0.23429393,0.00150968,0.00084066,-0.00044962,-0.00023488,-0.00
 003833,0.00065465,-0.00019583,-0.00073491,-0.00119796,0.00013526,-0.00
 109144,0.00028420,-0.00007983,-0.00002688,-0.00009445,0.00001940,0.000
 00391,0.00000031,-0.00127361,0.00590090,0.00332337,0.00120008,0.000208
 02,0.00083510,-0.00005518,0.00098968,-0.00051002,-0.05024794,0.0073549
 5,-0.07688714,0.05757827,0.00136891,0.00057666,0.00083244,-0.00040734,
 -0.00006973,0.00135746,0.00001823,0.00021366,-0.00068687,-0.00065178,-
 0.00022533,-0.00064460,0.00000100,-0.00013363,-0.00000082,0.00007764,0
 .00003226,0.00000457,0.00769421,-0.00489895,0.01041626,-0.00074269,0.0
 0115784,-0.00005685,-0.00064331,0.00002785,-0.00069896,0.00598647,-0.0
 1661086,0.01852859,-0.01607529,0.02230233,0.00028462,-0.00090109,0.000
 17980,0.00033720,-0.00017236,-0.00070049,-0.00004435,-0.00002541,0.000
 01661,0.00036451,0.00076468,0.00057082,-0.00000647,0.00004507,-0.00000
 120,-0.00000755,-0.00001423,0.00005052,-0.00291028,0.00363205,0.001074
 08,0.00043909,-0.00083576,0.00050147,0.00068819,0.00094153,-0.00001630
 ,-0.08268973,0.02248347,-0.19998128,0.08294087,-0.02718065,0.19183835,
 -0.01277010,0.02629949,-0.02324201,-0.02987822,-0.00775490,-0.02369665
 ,0.00094221,-0.00249121,0.00768375,-0.00224097,-0.00740883,-0.00071226
 ,-0.00129182,-0.00056127,-0.00288272,0.00121348,-0.00100026,0.00073262
 ,-0.03237034,-0.03881032,0.02441334,-0.00515268,0.00606866,-0.00209504
 ,0.00045867,-0.00209769,-0.00264502,-0.05705815,0.02463477,0.00389020,
 -0.01018774,0.00391766,0.00110670,0.19006331,-0.00002789,-0.03134541,0
 .03065293,-0.00277330,-0.00589734,-0.01608415,0.00323597,-0.00441882,0
 .00437332,-0.00305074,-0.10883495,-0.02407746,0.00090208,-0.00066267,0
 .00121014,0.00048873,0.00108278,-0.00045961,-0.03043602,-0.04892268,0.
 01257361,-0.00078055,0.00479196,0.00139177,0.00032745,-0.00120296,-0.0
 0215959,0.02561032,-0.01109978,-0.00762499,0.00291048,-0.00273983,0.00
 171213,-0.00676556,0.26487368,-0.01110132,0.03433793,-0.03562084,-0.02
 765466,-0.01619555,-0.08039422,-0.00222837,0.00233828,0.00178640,0.002
 45691,-0.02640745,-0.00373028,0.00236118,0.00105294,0.00163619,-0.0012
 6058,-0.00088080,-0.00028051,0.01295664,0.01478083,-0.02701596,-0.0011
 0930,-0.00788689,0.00264756,0.00324303,0.00146005,0.00013110,0.0217782
 0,0.00269280,-0.01748014,-0.00954842,-0.00189628,0.00637450,0.01623083
 ,-0.03901287,0.22073437,0.00263402,-0.00438635,0.00177529,0.00165242,0
 .00020102,-0.00030188,-0.00070137,0.00015465,-0.00037451,0.00057313,0.
 00068541,0.00027941,0.00036374,-0.00014790,0.00052814,-0.00004880,0.00
 035479,-0.00018864,0.00049207,0.00344033,0.00034285,0.00035390,-0.0019
 2001,0.00035380,0.00041173,0.00033508,0.00053089,-0.00089319,-0.005529
 75,0.00670922,0.00043639,-0.00028773,-0.00036522,-0.02992641,0.0104122
 7,-0.00633641,0.24883552,-0.00173899,-0.00001031,0.00258643,0.00196778
 ,0.00067330,0.00402117,0.00019735,0.00019633,0.00028787,0.00038244,0.0
 0128359,0.00146142,0.00036005,-0.00042870,-0.00023354,0.00019772,-0.00
 000988,-0.00012469,0.00138977,-0.00088412,-0.00030464,-0.00105067,-0.0
 0087969,-0.00056284,0.00011058,0.00010679,0.00019950,-0.00215574,-0.00
 050464,0.00216636,-0.00052754,0.00067435,-0.00040198,0.01005901,-0.040
 03209,0.03405171,0.00972680,0.05107037,0.00023560,0.00316263,-0.002600
 05,-0.00082192,0.00003127,-0.00174143,0.00036135,-0.00045125,-0.000867
 63,-0.00009381,0.00207306,0.00035199,-0.00048359,0.00044853,0.00050714
 ,-0.00023717,0.00004542,0.00012147,-0.00028736,-0.00030905,-0.00084147
 ,0.00140417,0.00106120,0.00101639,-0.00014444,-0.00005746,-0.00022630,
 0.00401968,0.00129457,-0.00680913,0.00005255,0.00007527,0.00063721,-0.
 00968744,0.03749435,-0.05137992,-0.08136781,-0.05725111,0.10606676,-0.
 00007124,0.00112841,-0.00058545,-0.00010656,-0.00034994,0.00000890,0.0
 0010641,-0.00004216,0.00000009,0.00001719,-0.00040781,-0.00012255,0.00
 002061,-0.00009280,-0.00009447,-0.00001793,-0.00005357,0.00005393,-0.0
 0030286,-0.00031372,-0.00000534,0.00005780,0.00043342,0.00001696,-0.00
 006417,-0.00006590,-0.00012614,0.00012069,-0.00036287,0.00073806,0.000
 64353,0.00005627,-0.00018646,0.00257839,-0.00061081,0.00153925,-0.2202
 6087,-0.02198031,0.08929968,0.21787749,0.00127073,-0.00041259,0.000494
 80,0.00053326,-0.00058012,0.00018613,-0.00022058,-0.00004193,0.0000947
 0,0.00027914,-0.00014778,-0.00057750,0.00016791,-0.00005203,-0.0001414
 1,0.00000753,0.00001292,-0.00002263,-0.00028139,0.00164773,0.00058662,
 0.00005532,-0.00004278,0.00000499,-0.00001606,0.00002204,0.00001781,0.
 00056004,0.00073023,-0.00008193,-0.00007449,-0.00033297,-0.00005179,-0
 .00740969,-0.00172281,0.00368815,-0.01762014,-0.00970723,0.01069135,0.
 02139301,0.01197907,-0.00014828,0.00199328,-0.00114236,-0.00007056,-0.
 00069804,0.00089235,-0.00003452,0.00003160,0.00016267,0.00016718,-0.00
 060804,-0.00028226,-0.00015804,0.00009420,-0.00018073,-0.00002865,-0.0
 0011418,0.00008395,-0.00096770,-0.00006179,-0.00003404,-0.00003579,0.0
 0045705,-0.00003623,-0.00004481,-0.00011084,-0.00011888,-0.00074489,0.
 00161945,0.00021156,0.00010130,-0.00014938,-0.00023676,0.00981928,0.00
 115397,-0.00506255,0.08290677,0.01112800,-0.04324915,-0.08918395,-0.01
 551054,0.04902936,-0.00051532,-0.00068540,-0.00000242,0.00120677,0.001
 24903,0.00295005,0.00009541,0.00066502,-0.00004802,-0.00561616,-0.0014
 5645,0.00236360,0.00031025,-0.00053468,-0.00010533,-0.00003065,0.00000
 824,0.00005372,-0.00337227,-0.00014487,0.00063961,0.00034360,-0.000364
 33,-0.00063225,-0.00023380,0.00001629,0.00040981,-0.00425217,-0.000455
 59,0.00323461,0.00095526,-0.00032147,-0.00002862,-0.01174741,-0.008857
 82,-0.00353378,-0.00259693,0.00267386,-0.00194088,-0.00018398,0.001291
 94,-0.00173108,0.08310356,-0.00157233,-0.00114081,-0.00016527,0.001902
 32,0.00038658,-0.00121917,-0.00000879,0.00012871,0.00016224,-0.0054444
 1,-0.00158842,0.00202320,-0.00045593,-0.00056086,0.00080282,-0.0000748
 4,-0.00006832,-0.00001135,-0.00000258,0.00150976,0.00039584,-0.0001186
 0,-0.00039711,-0.00037181,0.00005465,0.00008873,0.00022372,-0.00070123
 ,0.00130945,0.00087192,0.00041431,-0.00000734,-0.00001746,0.00194012,-
 0.01274855,-0.00262031,0.00375006,-0.00209593,0.00090728,0.00114011,-0
 .00080766,0.00136026,-0.06895654,0.28407493,0.00210705,0.00150936,-0.0
 0060737,0.00269404,-0.00235999,-0.00873970,-0.00029627,0.00010786,-0.0
 0010329,-0.00023083,0.00072747,0.00059920,0.00058798,0.00038343,-0.000
 38941,-0.00001604,0.00002733,-0.00000636,0.00049337,-0.00071603,0.0007
 9850,0.00021462,0.00044656,-0.00009743,-0.00028089,0.00001221,0.000015
 87,0.00125735,-0.00032128,0.00094397,0.00048672,0.00008035,-0.00035513
 ,0.00133656,0.00230056,-0.01159963,-0.00456188,0.00253872,-0.00146361,
 -0.00132878,0.00085058,0.00010517,0.06552937,0.01882348,0.28494224,0.0
 0011859,0.00078447,0.00044324,-0.00147286,-0.00050780,0.00127952,0.000
 04992,-0.00009167,-0.00004313,0.00045684,-0.00066679,-0.00037468,0.000
 11635,-0.00005913,-0.00003284,0.00001936,-0.00001435,0.00001902,-0.000
 46082,-0.00028898,-0.00041359,-0.00006362,0.00007836,0.00008566,0.0000
 3359,-0.00003219,-0.00007463,0.00018434,-0.00023579,-0.00071721,-0.000
 34985,0.00001215,0.00012399,0.00090034,0.00484060,0.00742334,0.0002546
 2,-0.00059024,-0.00018599,0.00034191,0.00033251,-0.00008350,-0.0135475
 0,0.00275845,-0.01352322,0.01465489,0.00025811,-0.00010880,0.00004840,
 -0.00006318,0.00052049,0.00011889,-0.00000488,0.00003508,-0.00017017,-
 0.00041838,0.00008877,0.00006159,-0.00008028,0.00002233,0.00003318,-0.
 00001337,-0.00005852,0.00002251,-0.00038807,-0.00010312,0.00027511,0.0
 0009336,0.00005425,0.00002492,-0.00003030,0.00000203,0.00000147,-0.000
 14229,-0.00012254,-0.00016513,-0.00008693,0.00001237,0.00006751,0.0007
 4548,-0.00004463,0.00005964,0.00026255,-0.00002126,0.00055338,-0.00001
 669,-0.00044762,-0.00001454,-0.00178477,-0.12187467,-0.13249154,0.0007
 6303,0.11235935,-0.00006723,-0.00106992,-0.00036463,0.00167960,0.00056
 994,-0.00071739,0.00012950,0.00002831,0.00014217,-0.00022677,0.0006309
 9,0.00044152,-0.00023781,-0.00001646,0.00011998,0.00006148,0.00011937,
 -0.00002236,0.00006718,0.00016648,0.00024195,-0.00000731,-0.00002314,-
 0.00010961,-0.00002679,0.00000727,0.00002874,-0.00021608,0.00012962,0.
 00023811,0.00011132,-0.00000148,-0.00001843,0.00011140,-0.00177439,-0.
 00297869,-0.00033167,0.00034733,0.00015007,-0.00003860,-0.00010778,0.0
 0009369,-0.01418506,-0.10465970,-0.16131656,0.01412076,0.11655783,0.17
 751098,-0.00086810,-0.00115318,0.00151113,0.00078808,0.00014342,-0.000
 68202,0.00009951,0.00001153,-0.00021589,0.00006176,-0.00001590,-0.0003
 2307,0.00000089,0.00052868,-0.00028456,0.00002804,-0.00010857,-0.00001
 974,0.00008957,-0.00012051,0.00032017,0.00013386,0.00027278,0.00004272
 ,-0.00008314,-0.00003411,-0.00005968,-0.00014258,-0.00032831,0.0003456
 1,0.00014700,-0.00000294,-0.00004649,-0.00353254,0.00457479,-0.0052165
 4,-0.00157999,0.00097816,-0.00012263,-0.00075642,-0.00026905,0.0002372
 2,-0.04391865,0.06537523,-0.05446917,-0.00123612,0.00090661,-0.0009439
 2,0.05076883,-0.00139101,0.00219251,0.00062125,-0.00070884,-0.00071419
 ,-0.00057237,0.00029754,0.00010773,-0.00005804,-0.00030127,0.00018413,
 -0.00002826,0.00171983,-0.00041370,-0.00098102,-0.00015586,-0.00027586
 ,0.00009444,-0.00045094,-0.00029063,-0.00011949,0.00009294,0.00010684,
 -0.00006111,-0.00007192,-0.00001905,0.00004840,-0.00022846,-0.00007823
 ,0.00012767,0.00003293,0.00002132,-0.00004571,0.00063453,-0.00107590,0
 .00043782,0.00056890,0.00056912,0.00023056,0.00014535,-0.00009649,-0.0
 0057047,0.07765754,-0.14620848,0.10808092,-0.00708265,0.00968648,-0.01
 090426,-0.07075861,0.13630439,0.00171072,-0.00054739,-0.00063419,0.000
 46666,0.00006361,-0.00020487,-0.00020825,-0.00006490,0.00009397,-0.000
 00856,-0.00029824,-0.00020643,-0.00106804,0.00020780,0.00029860,-0.000
 15462,-0.00019593,0.00004796,0.00018157,0.00040998,-0.00023647,-0.0000
 2440,-0.00014112,0.00003470,0.00002816,0.00003998,0.00002625,0.0002198
 5,-0.00000471,-0.00025909,-0.00010279,0.00002095,0.00006624,-0.0003635
 6,-0.00166971,0.00223262,0.00040165,0.00009030,0.00032766,0.00001484,-
 0.00012154,-0.00023578,-0.05297334,0.08349430,-0.10272647,-0.00804675,
 0.01501695,-0.01343952,0.05992685,-0.09630033,0.11481481\\-0.00001570,
 -0.00002352,-0.00001102,0.00002083,0.00001421,0.00000035,-0.00002034,-
 0.00000720,0.00000086,-0.00001152,-0.00000445,0.00001503,-0.00000493,0
 .00000424,0.00000105,-0.00000001,-0.00000158,0.00000033,0.00001406,0.0
 0001459,0.00001011,0.00000488,-0.00000998,-0.00000120,0.00000077,0.000
 00115,-0.00000114,0.00000459,-0.00000018,-0.00000283,0.00000071,-0.000
 00074,-0.00000251,0.00002607,-0.00000493,-0.00001534,-0.00000788,0.000
 00740,0.00000245,0.00000057,0.00000164,-0.00000012,-0.00001617,0.00000
 733,0.00000229,0.00000049,0.00000177,0.00000400,0.00000358,0.00000024,
 -0.00000233\\\@
 The archive entry for this job was punched.


 NOTHING PUZZLES ME MORE THAN TIME AND SPACE; AND YET NOTHING TROUBLES ME LESS
                                                          -- CHARLES LAMB (1810)
 Job cpu time:       0 days  0 hours 37 minutes 19.5 seconds.
 Elapsed time:       0 days  0 hours  0 minutes 48.2 seconds.
 File lengths (MBytes):  RWF=    236 Int=      0 D2E=      0 Chk=      7 Scr=      2
 Normal termination of Gaussian 16 at Wed Oct 26 14:42:21 2022.
