 Entering Gaussian System, Link 0=/apps/GAU16/avx2/g16/g16
 Initial command:
 /apps/GAU16/avx2/g16/l1.exe "/localscratch/chesha/scratch/Gau-8307.inp" -scrdir="/localscratch/chesha/scratch/"
 Entering Link 1 = /apps/GAU16/avx2/g16/l1.exe PID=      8308.
  
 Copyright (c) 1988-2019, Gaussian, Inc.  All Rights Reserved.
  
 This is part of the Gaussian(R) 16 program.  It is based on
 the Gaussian(R) 09 system (copyright 2009, Gaussian, Inc.),
 the Gaussian(R) 03 system (copyright 2003, Gaussian, Inc.),
 the Gaussian(R) 98 system (copyright 1998, Gaussian, Inc.),
 the Gaussian(R) 94 system (copyright 1995, Gaussian, Inc.),
 the Gaussian 92(TM) system (copyright 1992, Gaussian, Inc.),
 the Gaussian 90(TM) system (copyright 1990, Gaussian, Inc.),
 the Gaussian 88(TM) system (copyright 1988, Gaussian, Inc.),
 the Gaussian 86(TM) system (copyright 1986, Carnegie Mellon
 University), and the Gaussian 82(TM) system (copyright 1983,
 Carnegie Mellon University). Gaussian is a federally registered
 trademark of Gaussian, Inc.
  
 This software contains proprietary and confidential information,
 including trade secrets, belonging to Gaussian, Inc.
  
 This software is provided under written license and may be
 used, copied, transmitted, or stored only in accord with that
 written license.
  
 The following legend is applicable only to US Government
 contracts under FAR:
  
                    RESTRICTED RIGHTS LEGEND
  
 Use, reproduction and disclosure by the US Government is
 subject to restrictions as set forth in subparagraphs (a)
 and (c) of the Commercial Computer Software - Restricted
 Rights clause in FAR 52.227-19.
  
 Gaussian, Inc.
 340 Quinnipiac St., Bldg. 40, Wallingford CT 06492
  
  
 ---------------------------------------------------------------
 Warning -- This program may not be used in any manner that
 competes with the business of Gaussian, Inc. or will provide
 assistance to any competitor of Gaussian, Inc.  The licensee
 of this program is prohibited from giving any competitor of
 Gaussian, Inc. access to this program.  By using this program,
 the user acknowledges that Gaussian, Inc. is engaged in the
 business of creating and licensing software in the field of
 computational chemistry and represents and warrants to the
 licensee that it is not a competitor of Gaussian, Inc. and that
 it will not use this program in any manner prohibited above.
 ---------------------------------------------------------------
  

 Cite this work as:
 Gaussian 16, Revision C.01,
 M. J. Frisch, G. W. Trucks, H. B. Schlegel, G. E. Scuseria, 
 M. A. Robb, J. R. Cheeseman, G. Scalmani, V. Barone, 
 G. A. Petersson, H. Nakatsuji, X. Li, M. Caricato, A. V. Marenich, 
 J. Bloino, B. G. Janesko, R. Gomperts, B. Mennucci, H. P. Hratchian, 
 J. V. Ortiz, A. F. Izmaylov, J. L. Sonnenberg, D. Williams-Young, 
 F. Ding, F. Lipparini, F. Egidi, J. Goings, B. Peng, A. Petrone, 
 T. Henderson, D. Ranasinghe, V. G. Zakrzewski, J. Gao, N. Rega, 
 G. Zheng, W. Liang, M. Hada, M. Ehara, K. Toyota, R. Fukuda, 
 J. Hasegawa, M. Ishida, T. Nakajima, Y. Honda, O. Kitao, H. Nakai, 
 T. Vreven, K. Throssell, J. A. Montgomery, Jr., J. E. Peralta, 
 F. Ogliaro, M. J. Bearpark, J. J. Heyd, E. N. Brothers, K. N. Kudin, 
 V. N. Staroverov, T. A. Keith, R. Kobayashi, J. Normand, 
 K. Raghavachari, A. P. Rendell, J. C. Burant, S. S. Iyengar, 
 J. Tomasi, M. Cossi, J. M. Millam, M. Klene, C. Adamo, R. Cammi, 
 J. W. Ochterski, R. L. Martin, K. Morokuma, O. Farkas, 
 J. B. Foresman, and D. J. Fox, Gaussian, Inc., Wallingford CT, 2019.
 
 ******************************************
 Gaussian 16:  ES64L-G16RevC.01  3-Jul-2019
                 7-Jul-2023 
 ******************************************
 %nprocshared=24
 Will use up to   24 processors via shared memory.
 %mem=100GB
 --------------------------------------------------------
 # opt=(qst2,redundant) freq b3lyp/gen nosymm pseudo=read
 --------------------------------------------------------
 1/5=1,18=20,26=3,27=202,38=1/1,3;
 2/9=110,12=2,15=1,17=6,18=5,40=1/2;
 3/5=7,11=2,16=1,17=8,25=1,30=1,71=1,74=-5/1,2,3;
 4//1;
 5/5=2,38=5/2;
 6/7=2,8=2,9=2,10=2,28=1/1;
 7/30=1/1,2,3,16;
 1/5=1,18=20,26=3,27=202/3(2);
 2/9=110,15=1/2;
 99//99;
 2/9=110,15=1/2;
 3/5=7,6=1,11=2,16=1,17=8,25=1,30=1,71=1,74=-5,82=7/1,2,3;
 4/5=5,16=3,69=1/1;
 5/5=2,38=5/2;
 7/30=1/1,2,3,16;
 1/5=1,18=20,26=3,27=202/3(-5);
 2/9=110,15=1/2;
 6/7=2,8=2,9=2,10=2,19=2,28=1/1;
 99/9=1/99;
 -------------------
 Title Card Required
 -------------------
 Symbolic Z-matrix:
 Charge =  0 Multiplicity = 1
 42                   -0.37057   1.6574    12.04986 
 16                    0.12952   3.85408   11.91854 
 16                   -2.64243   1.72316   12.56554 
 16                   -0.25261   0.67644   9.85748 
 16                    1.10821   0.07427   12.94396 
 1                     1.22012  -0.93279   12.05478 
 42                   -2.42015   1.52681   10.27996 
 16                   -4.00363   0.47567   8.89143 
 1                    -4.17237   1.3619    7.88006 
 16                   -2.71506   3.75611   9.35258 
 1                    -2.99408   3.58637   8.02076 
 42                   -0.39757   3.10689   9.74303 
 16                    0.60279   5.15674   8.86441 
 1                     1.05312   5.80453   9.95456 
 16                   -0.01454   2.54743   7.14784 
 1                    -0.10859   3.76731   6.57647 
 1                    -1.22473   2.14618   6.69996 
 
 -------
 product
 -------
 Symbolic Z-matrix:
 Charge =  0 Multiplicity = 1
 42                   -0.34724   2.13035   11.50993 
 16                    0.52731   4.03046   10.89232 
 16                   -2.53423   2.30777   12.25331 
 16                   -0.36432   0.84257   9.56122 
 16                    1.10044   1.10558   13.03635 
 1                     0.32073   0.04444   13.34778 
 42                   -2.56944   1.50108   10.0876 
 16                   -3.49954  -0.5325    9.39181 
 1                    -2.65388  -1.03064   8.46378 
 16                   -3.38399   3.15424   8.51879 
 1                    -3.4966    2.29795   7.47824 
 42                   -0.86754   3.26286   8.85959 
 16                   -1.49811   5.54582   8.73631 
 1                    -0.32954   6.14853   9.04942 
 16                    1.23423   3.29727   7.65171 
 1                    -0.96282   2.55765   7.34435 
 1                     2.12195   3.62505   8.61872 
 
 Iteration  1 RMS(Cart)=  0.10176387 RMS(Int)=  0.76905327
 Iteration  2 RMS(Cart)=  0.06489581 RMS(Int)=  0.76214170
 Iteration  3 RMS(Cart)=  0.05434191 RMS(Int)=  0.76443378
 Iteration  4 RMS(Cart)=  0.04636645 RMS(Int)=  0.77104984
 Iteration  5 RMS(Cart)=  0.04598734 RMS(Int)=  0.77810308
 Iteration  6 RMS(Cart)=  0.04836863 RMS(Int)=  0.78602438
 Iteration  7 RMS(Cart)=  0.04959819 RMS(Int)=  0.79503414
 Iteration  8 RMS(Cart)=  0.04154242 RMS(Int)=  0.80444620
 Iteration  9 RMS(Cart)=  0.02952839 RMS(Int)=  0.81314538
 Iteration 10 RMS(Cart)=  0.02053629 RMS(Int)=  0.82006181
 Iteration 11 RMS(Cart)=  0.01675435 RMS(Int)=  0.82545832
 Iteration 12 RMS(Cart)=  0.01395492 RMS(Int)=  0.82980411
 Iteration 13 RMS(Cart)=  0.01202843 RMS(Int)=  0.83355314
 Iteration 14 RMS(Cart)=  0.01047676 RMS(Int)=  0.83678396
 Iteration 15 RMS(Cart)=  0.02249527 RMS(Int)=  0.84099891
 Iteration 16 RMS(Cart)=  0.01485118 RMS(Int)=  0.84462624
 Iteration 17 RMS(Cart)=  0.01016670 RMS(Int)=  0.84758380
 Iteration 18 RMS(Cart)=  0.00809944 RMS(Int)=  0.85010750
 Iteration 19 RMS(Cart)=  0.00701787 RMS(Int)=  0.85234479
 Iteration 20 RMS(Cart)=  0.00597508 RMS(Int)=  0.85424811
 Iteration 21 RMS(Cart)=  0.00479581 RMS(Int)=  0.85576755
 Iteration 22 RMS(Cart)=  0.00377218 RMS(Int)=  0.85697809
 Iteration 23 RMS(Cart)=  0.00263690 RMS(Int)=  0.85785889
 Iteration 24 RMS(Cart)=  0.00167848 RMS(Int)=  0.85843923
 Iteration 25 RMS(Cart)=  0.00111195 RMS(Int)=  0.85882558
 Iteration 26 RMS(Cart)=  0.00073930 RMS(Int)=  0.85908322
 Iteration 27 RMS(Cart)=  0.00049171 RMS(Int)=  0.85925499
 Iteration 28 RMS(Cart)=  0.00032699 RMS(Int)=  0.85936942
 Iteration 29 RMS(Cart)=  0.00021741 RMS(Int)=  0.85944561
 Iteration 30 RMS(Cart)=  0.00014453 RMS(Int)=  0.85949631
 Iteration 31 RMS(Cart)=  0.00009607 RMS(Int)=  0.85953003
 Iteration 32 RMS(Cart)=  0.00006385 RMS(Int)=  0.85955245
 Iteration 33 RMS(Cart)=  0.00004243 RMS(Int)=  0.85956736
 Iteration 34 RMS(Cart)=  0.00002820 RMS(Int)=  0.85957727
 Iteration 35 RMS(Cart)=  0.00001874 RMS(Int)=  0.85958385
 Iteration 36 RMS(Cart)=  0.00001245 RMS(Int)=  0.85958823
 Iteration 37 RMS(Cart)=  0.00000828 RMS(Int)=  0.85959114
 Iteration 38 RMS(Cart)=  0.00000550 RMS(Int)=  0.85959307
 Iteration 39 RMS(Cart)=  0.00000365 RMS(Int)=  0.85959436
 Iteration 40 RMS(Cart)=  0.00000243 RMS(Int)=  0.85959521
 Iteration 41 RMS(Cart)=  0.00000161 RMS(Int)=  0.85959578
 Iteration 42 RMS(Cart)=  0.00000107 RMS(Int)=  0.85959615
 Iteration 43 RMS(Cart)=  0.00000071 RMS(Int)=  0.85959641
 Iteration  1 RMS(Cart)=  0.00000047 RMS(Int)=  0.85959657
 Iteration  1 RMS(Cart)=  0.00000031 RMS(Int)=  0.85959668
 Iteration  1 RMS(Cart)=  0.00000021 RMS(Int)=  0.85959676
 Iteration  1 RMS(Cart)=  0.00000014 RMS(Int)=  0.85959680
 Iteration  1 RMS(Cart)=  0.00000009 RMS(Int)=  0.85959684
 Iteration  1 RMS(Cart)=  0.00000006 RMS(Int)=  0.85959686
 Iteration  1 RMS(Cart)=  0.00000004 RMS(Int)=  0.85959687
 Iteration  1 RMS(Cart)=  0.00000003 RMS(Int)=  0.85959688
 Iteration  1 RMS(Cart)=  0.00000002 RMS(Int)=  0.85959689
   Var     Old X     New X   DQ Goal   DQ Act.  Rel. Err.   Overall
     1    4.2646    4.2562   -0.0716   -0.0084    0.1169
     2    4.4042    4.4370   -0.0131    0.0328   -2.4992
     3    4.5443    4.5174   -0.0651   -0.0268    0.4124
     4    4.4288    4.4254   -0.0033   -0.0033
     5    5.1233    5.1456    0.0012    0.0223
     6    5.1487    5.3075    0.1929    0.1588    0.8232
     7    4.4595    4.6181    0.2099    0.1586    0.7555
     8    4.3553    4.3320    0.0062   -0.0233
     9    4.4718    4.4363   -0.0053   -0.0355
    10    4.6061    4.7126    0.1250    0.1065    0.8520
    11    2.5475    2.5523    0.0048    0.0048
    12    4.4480    4.4368   -0.0112   -0.0112    1.0000
    13    4.5967    4.5925   -0.0115   -0.0042    0.3642
    14    4.9552    5.0651    0.1115    0.1099    0.9859
    15    2.5611    2.5568   -0.0043   -0.0043
    16    2.5914    2.5734   -0.0180   -0.0180    1.0000
    17    4.6075    4.7027    0.0979    0.0952    0.9728
    18    4.6191    4.5504   -0.0686   -0.0686    1.0000
    19    5.0688    4.8243   -0.2437   -0.2445    1.0034
    20    6.1370    4.6919   -1.4868   -1.4451    0.9719
    21    2.5430    2.5486    0.0056    0.0056
    22    2.5518    3.4295    0.9337    0.8778    0.9401
    23    2.5537    2.5552    0.0016    0.0016
    24    1.7736    1.8678    0.1058    0.0942    0.8903
    25    1.9104    1.8761   -0.0450   -0.0343    0.7627
    26    2.1411    2.0071   -0.1233   -0.1340    1.0872
    27    1.7481    1.8547    0.1074    0.1065    0.9920
    28    1.8349    1.8344    0.0219   -0.0005   -0.0216
    29    2.1528    2.1151   -0.0808   -0.0378    0.4677
    30    1.7342    1.6868   -0.0351   -0.0474    1.3495
    31    1.6121    1.7371    0.1355    0.1250    0.9221
    32    2.3372    2.3862    0.0388    0.0491    1.2642
    33    2.3304    2.4540    0.1473    0.1236    0.8391
    34    1.8811    1.7947   -0.0864   -0.0864    1.0000
    35    2.7268    2.6345   -0.2023   -0.0923    0.4560
    36    1.8717    1.9382    0.0869    0.0665    0.7647
    37    1.8713    1.8909   -0.0021    0.0196
    38    2.1630    2.2155    0.0179    0.0525    2.9363
    39    1.8633    1.8712    0.0455    0.0080    0.1753
    40    1.7989    1.7747   -0.0205   -0.0242    1.1799
    41    1.9288    1.8431   -0.1477   -0.0857    0.5803
    42    1.9523    1.9519   -0.0064   -0.0005
    43    1.6738    1.6793    0.0836    0.0055    0.0658
    44    2.3013    2.2826    0.0031   -0.0187
    45    1.8049    1.8275    0.0226    0.0226    1.0000
    46    1.8562    1.7645   -0.0955   -0.0916    0.9596
    47    1.8923    1.8344   -0.0536   -0.0578    1.0795
    48    1.8615    1.8605   -0.0031   -0.0011
    49    2.4135    2.3028   -0.1787   -0.1108    0.6198
    50    2.3558    2.0780   -0.2389   -0.2777    1.1624
    51    2.7731    2.6865   -0.2365   -0.0865    0.3659
    52    1.8329    1.7218   -0.1514   -0.1112    0.7340
    53    1.7460    1.7836   -0.0002    0.0376
    54    1.8500    2.0605    0.2162    0.2105    0.9734
    55    1.5452    1.4436   -0.0381   -0.1016    2.6670
    56    2.7547    2.1488   -0.6322   -0.6059    0.9585
    57    2.5229    2.6097    0.0501    0.0868    1.7315
    58    1.9066    1.8356   -0.0722   -0.0710    0.9830
    59    3.3782    3.1654   -0.1896   -0.2128    1.1227
    60    2.5896    2.9091    0.3685    0.3195    0.8671
    61    1.3989    1.3209    0.0758   -0.0780   -1.0298
    62    1.8165    1.7584   -0.1923   -0.0581    0.3023
    63    2.6784    2.4256   -0.3051   -0.2528    0.8286
    64    1.7544    2.0318    0.3483    0.2774    0.7966
    65    1.9723    1.8888   -0.1510   -0.0835    0.5531
    66    1.6791    1.4922   -0.1697   -0.1870    1.1015
    67    1.6071    2.0588    0.4390    0.4516    1.0288
    68    1.4447    1.3779   -0.0355   -0.0668    1.8844
    69    1.3374    1.6138    0.2128    0.2764    1.2992
    70    0.9795    1.2773    0.4709    0.2979    0.6326
    71    0.4185    0.7369    0.3727    0.3183    0.8540
    72    1.8229    1.7911   -0.0318   -0.0318    1.0000
    73    1.7834    1.1664   -0.5330   -0.6171    1.1577
    74    1.8284    1.7910   -0.0198   -0.0374    1.8843
    75    1.6365    2.1088    0.4201    0.4723    1.1243
    76   -2.2532   -2.6955    2.6559   -0.4422   -0.1665
    77    1.6716    1.2965   -0.4234   -0.3751    0.8859
    78   -0.2461   -0.6972   -0.5079   -0.4511    0.8883
    79    0.4571    0.1159   -0.3595   -0.3412    0.9491
    80   -1.0044   -1.5281   -0.6004   -0.5237    0.8723
    81    2.9317    2.7250   -0.1770   -0.2067    1.1678
    82    0.0279   -0.0450   -0.0600   -0.0729    1.2147
    83    0.1556   -0.1054   -0.2680   -0.2611    0.9741
    84   -2.7482   -2.8754   -0.1510   -0.1273    0.8427
    85    0.0029   -0.1213   -0.1488   -0.1242    0.8348
    86    2.1034    1.6078   -0.4716   -0.4956    1.0510
    87   -1.9282   -2.5036    2.5320   -0.5754   -0.2273
    88   -1.9910   -1.8468    0.0688    0.1442    2.0951
    89    2.7546    2.7485   -0.0050   -0.0061
    90   -1.4281   -1.8056   -0.3277   -0.3775    1.1518
    91    0.8235    0.3662   -0.4658   -0.4573    0.9818
    92    0.7607    1.0231    0.2127    0.2624    1.2337
    93    1.3063    1.3291    0.0387    0.0228    0.5903
    94   -2.6079   -1.9553    0.7045    0.6525    0.9262
    95    2.3085    2.8808   -2.3811    0.5723   -0.2403
    96   -1.7190   -1.1646    0.6277    0.5544    0.8833
    97    0.3055    0.8384    0.6022    0.5328    0.8848
    98   -0.5812   -0.0772    0.5095    0.5041    0.9894
    99    2.4577    2.3835   -0.0897   -0.0742    0.8275
   100   -2.8242   -2.8802   -0.0677   -0.0560    0.8276
   101    1.4171    1.3327   -0.0901   -0.0844    0.9363
   102   -0.5882   -0.5797    0.0384    0.0085    0.2218
   103    0.0162    0.2207    0.2038    0.2044    1.0033
   104   -1.8554   -1.4007    0.3650    0.4547    1.2458
   105    3.0123    2.6119   -0.4660   -0.4005    0.8593
   106   -2.8965   -2.8858    3.0101    0.0107    0.0036
   107    2.9439   -3.0705   -2.7282   -6.0145    2.2045
   108    1.0723    1.5913    0.5746    0.5190    0.9032
   109   -0.3431   -0.6793   -0.2564   -0.3362    1.3110
   110    0.0312    0.1062    0.0781    0.0750    0.9598
   111   -2.3962   -2.2387    0.1885    0.1574    0.8352
   112    2.9365    3.1147   -2.8742    0.1783   -0.0620
   113   -1.3800   -1.2707    0.1257    0.1093    0.8697
   114    1.3612    1.7312    0.4435    0.3700    0.8343
   115    0.0214    0.1534    0.3200    0.1320    0.4126
   116    0.4080    0.4445   -0.0747    0.0365   -0.4892
   117   -0.2799    0.5312    0.7624    0.8111    1.0639
   118    0.0308    0.3438    0.3221    0.3131    0.9719
   119    1.9474    2.0929    0.2211    0.1454    0.6578
   120    1.8797    2.4218    0.5697    0.5421    0.9517
   121   -2.8210   -1.8043    1.0137    1.0167    1.0029
   122   -3.0600   -2.4686    0.5309    0.5914    1.1140
   123   -3.0859    2.7307    2.6656    5.8167    2.1821
   124    1.4998    0.6645   -1.0801   -0.8353    0.7733
   125   -1.3637   -2.5190    2.1618   -1.1553   -0.5344
   126   -3.0611    1.6979    1.5577    4.7591    3.0553
   127    3.0742    2.1745   -0.8230   -0.8997    1.0932
   128    1.3768    0.1083   -1.4271   -1.2685    0.8889
   129    2.1659    1.5429   -0.4771   -0.6230    1.3059
   130    0.4685   -0.5233   -1.0812   -0.9918    0.9173
   131    1.1688    0.4325   -0.8003   -0.7363    0.9200
   132   -0.5286   -1.6337    1.7371   -1.1051   -0.6362
   133   -0.5047   -1.0721   -0.6838   -0.5674    0.8297
   134   -2.2022   -3.1383    1.8537   -0.9361   -0.5050
   135   -1.6974   -2.0662   -0.6041   -0.3688    0.6105

 GradGradGradGradGradGradGradGradGradGradGradGradGradGradGradGradGradGrad
 Berny optimization.
 Initialization pass.
                           ----------------------------
                           !    Initial Parameters    !
                           ! (Angstroms and Degrees)  !
 --------------------------                            --------------------------
 ! Name  Definition         TS        Reactant Product Derivative Info.         !
 --------------------------------------------------------------------------------
 ! R1    R(1,2)             2.2523    2.2567    2.181  estimate D2E/DX2         !
 ! R2    R(1,3)             2.3479    2.3306    2.3167 estimate D2E/DX2         !
 ! R3    R(1,4)             2.3905    2.4047    2.3358 estimate D2E/DX2         !
 ! R4    R(1,5)             2.3418    2.3436    2.3401 estimate D2E/DX2         !
 ! R5    R(1,7)             2.7229    2.7112    2.7124 estimate D2E/DX2         !
 ! R6    R(1,12)            2.8086    2.7246    2.9288 estimate D2E/DX2         !
 ! R7    R(2,12)            2.4438    2.3599    2.582  estimate D2E/DX2         !
 ! R8    R(3,7)             2.2924    2.3047    2.3113 estimate D2E/DX2         !
 ! R9    R(4,7)             2.3476    2.3664    2.3608 estimate D2E/DX2         !
 ! R10   R(4,12)            2.4938    2.4375    2.5697 estimate D2E/DX2         !
 ! R11   R(5,6)             1.3506    1.3481    1.3531 estimate D2E/DX2         !
 ! R12   R(7,8)             2.3479    2.3538    2.3419 estimate D2E/DX2         !
 ! R13   R(7,10)            2.4302    2.4324    2.4202 estimate D2E/DX2         !
 ! R14   R(7,12)            2.6803    2.6222    2.7401 estimate D2E/DX2         !
 ! R15   R(8,9)             1.353     1.3553    1.3508 estimate D2E/DX2         !
 ! R16   R(10,11)           1.3618    1.3713    1.3523 estimate D2E/DX2         !
 ! R17   R(10,12)           2.4886    2.4382    2.5417 estimate D2E/DX2         !
 ! R18   R(12,13)           2.408     2.4443    2.3717 estimate D2E/DX2         !
 ! R19   R(12,15)           2.5529    2.6823    2.4244 estimate D2E/DX2         !
 ! R20   R(12,16)           2.4829    3.2476    1.674  estimate D2E/DX2         !
 ! R21   R(13,14)           1.3486    1.3457    1.3516 estimate D2E/DX2         !
 ! R22   R(15,16)           1.8148    1.3503    2.3385 estimate D2E/DX2         !
 ! R23   R(15,17)           1.3522    1.3514    1.353  estimate D2E/DX2         !
 ! A1    A(2,1,3)         107.0183  101.6203  113.7464 estimate D2E/DX2         !
 ! A2    A(2,1,4)         107.4926  109.4605  104.3002 estimate D2E/DX2         !
 ! A3    A(2,1,5)         114.9993  122.678   108.5524 estimate D2E/DX2         !
 ! A4    A(2,1,7)         106.265   100.1613  112.4668 estimate D2E/DX2         !
 ! A5    A(3,1,4)         105.1055  105.1326  107.6392 estimate D2E/DX2         !
 ! A6    A(3,1,5)         121.1842  123.3485  114.0942 estimate D2E/DX2         !
 ! A7    A(3,1,12)         96.6479   99.3619   95.3398 estimate D2E/DX2         !
 ! A8    A(4,1,5)          99.5267   92.3675  107.8953 estimate D2E/DX2         !
 ! A9    A(5,1,7)         136.7208  133.9102  138.3566 estimate D2E/DX2         !
 ! A10   A(5,1,12)        140.6054  133.5231  150.4047 estimate D2E/DX2         !
 ! A11   A(1,5,6)         102.8294  107.7803   97.8785 estimate D2E/DX2         !
 ! A12   A(1,7,8)         150.9471  156.2331  133.0485 estimate D2E/DX2         !
 ! A13   A(1,7,10)        111.0508  107.2417  117.2042 estimate D2E/DX2         !
 ! A14   A(3,7,4)         108.3392  107.2179  106.9801 estimate D2E/DX2         !
 ! A15   A(3,7,8)         126.9387  123.9294  125.9791 estimate D2E/DX2         !
 ! A16   A(3,7,10)        107.2137  106.757   111.9684 estimate D2E/DX2         !
 ! A17   A(3,7,12)        101.6848  103.0688  100.7227 estimate D2E/DX2         !
 ! A18   A(4,7,8)         105.6003  110.5121   93.5839 estimate D2E/DX2         !
 ! A19   A(4,7,10)        111.8331  111.8593  111.1226 estimate D2E/DX2         !
 ! A20   A(8,7,10)         96.2159   95.9008  105.4786 estimate D2E/DX2         !
 ! A21   A(8,7,12)        130.7805  131.8522  132.208  estimate D2E/DX2         !
 ! A22   A(7,8,9)         104.7084  103.4128  106.0039 estimate D2E/DX2         !
 ! A23   A(7,10,11)       101.1011  106.3502   95.4101 estimate D2E/DX2         !
 ! A24   A(11,10,12)      105.1055  108.4195  102.2798 estimate D2E/DX2         !
 ! A25   A(1,12,10)       106.5979  106.6585  106.3016 estimate D2E/DX2         !
 ! A26   A(1,12,13)       131.9379  138.2836  117.8071 estimate D2E/DX2         !
 ! A27   A(1,12,15)       119.0635  134.9757  107.598  estimate D2E/DX2         !
 ! A28   A(1,12,16)       153.9271  158.8858  131.7832 estimate D2E/DX2         !
 ! A29   A(2,12,4)         98.65    105.0195   87.6649 estimate D2E/DX2         !
 ! A30   A(2,12,7)        102.1911  100.0382  100.0119 estimate D2E/DX2         !
 ! A31   A(2,12,10)       118.0583  105.9988  130.776  estimate D2E/DX2         !
 ! A32   A(2,12,13)        82.7112   88.5351   84.1677 estimate D2E/DX2         !
 ! A33   A(2,12,15)       123.1154  157.8328   85.3931 estimate D2E/DX2         !
 ! A34   A(2,12,16)       149.5225  144.5496  150.2936 estimate D2E/DX2         !
 ! A35   A(4,12,10)       105.1744  109.2417  100.9667 estimate D2E/DX2         !
 ! A36   L(4,12,13,2,-1)  181.3612  193.5546  171.8326 estimate D2E/DX2         !
 ! A37   L(4,12,13,2,-2)  166.6815  148.3737  190.5994 estimate D2E/DX2         !
 ! A38   A(4,12,15)        75.6822   80.1519   88.8329 estimate D2E/DX2         !
 ! A39   A(4,12,16)       100.748   104.0792   82.0395 estimate D2E/DX2         !
 ! A40   A(7,12,13)       138.9743  153.4607  118.494  estimate D2E/DX2         !
 ! A41   A(7,12,15)       116.4161  100.5201  140.4312 estimate D2E/DX2         !
 ! A42   A(7,12,16)       108.2218  113.0064   95.7068 estimate D2E/DX2         !
 ! A43   A(10,12,13)       85.4958   96.208    76.7581 estimate D2E/DX2         !
 ! A44   A(10,12,15)      117.9578   92.082   142.3832 estimate D2E/DX2         !
 ! A45   A(10,12,16)       78.9483   82.7779   78.7134 estimate D2E/DX2         !
 ! A46   A(13,12,15)       92.4644   76.6256  101.0076 estimate D2E/DX2         !
 ! A47   A(13,12,16)       73.1866   56.1204  110.0803 estimate D2E/DX2         !
 ! A48   A(15,12,16)       42.2194   23.981    66.6939 estimate D2E/DX2         !
 ! A49   A(12,13,14)      102.6212  104.4454  100.7969 estimate D2E/DX2         !
 ! A50   A(12,15,16)       66.8276  102.1824   41.1052 estimate D2E/DX2         !
 ! A51   A(12,15,17)      102.6146  104.7569  102.4831 estimate D2E/DX2         !
 ! A52   A(16,15,17)      120.8259   93.7628  141.9049 estimate D2E/DX2         !
 ! D1    D(2,1,5,6)      -154.438  -129.1012  175.2377 estimate D2E/DX2         !
 ! D2    D(3,1,5,6)        74.2855   95.7777   47.2575 estimate D2E/DX2         !
 ! D3    D(4,1,5,6)       -39.9472  -14.0983  -72.2949 estimate D2E/DX2         !
 ! D4    D(7,1,5,6)         6.6389   26.188   -15.0075 estimate D2E/DX2         !
 ! D5    D(12,1,5,6)      -87.5556  -57.5477 -126.35   estimate D2E/DX2         !
 ! D6    D(2,1,7,8)       156.1302  167.9713  147.6926 estimate D2E/DX2         !
 ! D7    D(2,1,7,10)       -2.578     1.5971   -5.2775 estimate D2E/DX2         !
 ! D8    D(5,1,7,8)        -6.0412    8.9166  -21.7939 estimate D2E/DX2         !
 ! D9    D(5,1,7,10)     -164.7494 -157.4575 -174.764  estimate D2E/DX2         !
 ! D10   D(3,1,12,10)      -6.9498    0.1668  -16.8824 estimate D2E/DX2         !
 ! D11   D(3,1,12,13)      92.12    120.5163   66.4806 estimate D2E/DX2         !
 ! D12   D(3,1,12,15)    -143.4466 -110.4782  179.6685 estimate D2E/DX2         !
 ! D13   D(3,1,12,16)    -105.812  -114.0765 -106.187  estimate D2E/DX2         !
 ! D14   D(5,1,12,10)     157.4796  157.8289  157.2585 estimate D2E/DX2         !
 ! D15   D(5,1,12,13)    -103.4506  -81.8215 -119.3784 estimate D2E/DX2         !
 ! D16   D(5,1,12,15)      20.9828   47.184    -6.1906 estimate D2E/DX2         !
 ! D17   D(5,1,12,16)      58.6174   43.5857   67.9539 estimate D2E/DX2         !
 ! D18   D(1,4,7,12)       76.1533   74.8452   79.2775 estimate D2E/DX2         !
 ! D19   D(1,7,8,9)      -112.0332 -149.4211  -68.6891 estimate D2E/DX2         !
 ! D20   D(3,7,8,9)       165.0581  132.2684 -140.5853 estimate D2E/DX2         !
 ! D21   D(4,7,8,9)       -66.7245  -98.4907  -26.5648 estimate D2E/DX2         !
 ! D22   D(10,7,8,9)       48.0358   17.5058   86.5144 estimate D2E/DX2         !
 ! D23   D(12,7,8,9)       -4.4204  -33.3011   25.0804 estimate D2E/DX2         !
 ! D24   D(1,7,10,11)     136.567   140.8186  130.5421 estimate D2E/DX2         !
 ! D25   D(3,7,10,11)    -165.0215 -161.8124 -169.5676 estimate D2E/DX2         !
 ! D26   D(4,7,10,11)      76.36     81.1951   70.8666 estimate D2E/DX2         !
 ! D27   D(8,7,10,11)     -33.2159  -33.7042  -29.3003 estimate D2E/DX2         !
 ! D28   D(3,7,12,2)       12.6439    0.9306   24.2792 estimate D2E/DX2         !
 ! D29   D(3,7,12,13)     -80.2544 -106.3063  -64.4843 estimate D2E/DX2         !
 ! D30   D(3,7,12,15)     149.6491  172.5946  119.1898 estimate D2E/DX2         !
 ! D31   D(3,7,12,16)    -165.3455 -165.9579  178.9739 estimate D2E/DX2         !
 ! D32   D(8,7,12,2)     -175.9275  168.6752 -143.9552 estimate D2E/DX2         !
 ! D33   D(8,7,12,13)      91.1742   61.4383  127.2814 estimate D2E/DX2         !
 ! D34   D(8,7,12,15)     -38.9222  -19.6608  -49.0446 estimate D2E/DX2         !
 ! D35   D(8,7,12,16)       6.0831    1.7867   10.7396 estimate D2E/DX2         !
 ! D36   D(11,10,12,1)   -128.2707 -137.2908 -115.691  estimate D2E/DX2         !
 ! D37   D(11,10,12,2)    178.4613  168.2481 -161.1157 estimate D2E/DX2         !
 ! D38   D(11,10,12,4)    -72.8063  -79.0695  -64.6668 estimate D2E/DX2         !
 ! D39   D(11,10,12,13)    99.1926   77.9938  128.8102 estimate D2E/DX2         !
 ! D40   D(11,10,12,15)     8.7904    1.2247   37.8943 estimate D2E/DX2         !
 ! D41   D(11,10,12,16)    25.4675   23.3745   14.8166 estimate D2E/DX2         !
 ! D42   D(1,12,13,14)     30.4339  -16.0374   71.3266 estimate D2E/DX2         !
 ! D43   D(2,12,13,14)     19.6984    1.762    38.6703 estimate D2E/DX2         !
 ! D44   D(7,12,13,14)    119.9128  111.58    136.9148 estimate D2E/DX2         !
 ! D45   D(10,12,13,14)   138.7599  107.6973  172.9747 estimate D2E/DX2         !
 ! D46   D(15,12,13,14)  -103.3797 -161.6324  -45.4685 estimate D2E/DX2         !
 ! D47   D(16,12,13,14)  -141.4393 -175.3266 -114.4888 estimate D2E/DX2         !
 ! D48   D(1,12,15,16)    156.4601 -176.8112  128.645  estimate D2E/DX2         !
 ! D49   D(1,12,15,17)     38.0749   85.9333  -37.8362 estimate D2E/DX2         !
 ! D50   D(2,12,15,16)   -144.3298  -78.1353  169.5846 estimate D2E/DX2         !
 ! D51   D(2,12,15,17)     97.285  -175.3908    3.1033 estimate D2E/DX2         !
 ! D52   D(4,12,15,16)    124.5905  176.1396   81.8336 estimate D2E/DX2         !
 ! D53   D(4,12,15,17)      6.2053   78.8841  -84.6477 estimate D2E/DX2         !
 ! D54   D(7,12,15,16)     88.4026  124.0968   69.4304 estimate D2E/DX2         !
 ! D55   D(7,12,15,17)    -29.9826   26.8413  -97.0508 estimate D2E/DX2         !
 ! D56   D(10,12,15,16)    24.7808   66.9684  -24.7432 estimate D2E/DX2         !
 ! D57   D(10,12,15,17)   -93.6044  -30.2871  168.7756 estimate D2E/DX2         !
 ! D58   D(13,12,15,16)   -61.4264  -28.9196 -107.2805 estimate D2E/DX2         !
 ! D59   D(13,12,15,17)  -179.8116 -126.1751   86.2382 estimate D2E/DX2         !
 ! D60   D(16,12,15,17)  -118.3852  -97.2555 -166.4813 estimate D2E/DX2         !
 --------------------------------------------------------------------------------
 Trust Radius=3.00D-01 FncErr=1.00D-07 GrdErr=1.00D-06 EigMax=2.50D+02 EigMin=1.00D-04
 Number of steps in this run=    102 maximum allowed number of steps=    102.
 Search for a saddle point of order  1.
 GradGradGradGradGradGradGradGradGradGradGradGradGradGradGradGradGradGrad

                          Input orientation:                          
 ---------------------------------------------------------------------
 Center     Atomic      Atomic             Coordinates (Angstroms)
 Number     Number       Type             X           Y           Z
 ---------------------------------------------------------------------
      1         42           0       -0.212930    1.629505   11.712521
      2         16           0        0.734257    3.663986   11.521404
      3         16           0       -2.366691    1.953843   12.589435
      4         16           0       -0.560479    0.788190    9.502086
      5         16           0        1.196727   -0.044021   12.547009
      6          1           0        0.656343   -1.172484   12.038388
      7         42           0       -2.546724    1.740387   10.314115
      8         16           0       -4.280573    0.691744    9.128124
      9          1           0       -4.123727    1.108314    7.850428
     10         16           0       -2.917828    3.965493    9.410144
     11          1           0       -3.344040    3.669301    8.151153
     12         42           0       -0.525717    3.281428    9.462722
     13         16           0       -0.047614    5.613331    9.099427
     14          1           0        0.998865    5.831188    9.921776
     15         16           0        0.572875    2.599885    7.261392
     16          1           0       -0.844801    3.710729    7.038151
     17          1           0        0.409479    1.257646    7.252948
 ---------------------------------------------------------------------
                    Distance matrix (angstroms):
                    1          2          3          4          5
     1  Mo   0.000000
     2  S    2.252288   0.000000
     3  S    2.347948   3.698805   0.000000
     4  S    2.390528   3.744888   3.762030   0.000000
     5  S    2.341835   3.874927   4.085488   3.612742   0.000000
     6  H    2.951774   4.864647   4.383641   3.428954   1.350607
     7  Mo   2.722945   3.990316   2.292391   2.347603   4.709921
     8  S    4.909605   6.301629   4.151688   3.740086   6.498534
     9  H    5.521027   6.603600   5.124478   3.940456   7.189783
    10  S    4.251382   4.229190   3.802417   3.957373   6.545662
    11  H    5.162167   5.290665   4.857608   4.227769   7.330135
    12  Mo   2.808608   2.443780   3.863677   2.493791   4.851624
    13  S    4.767227   3.205814   5.563283   4.868999   6.740908
    14  H    4.725394   2.706583   5.785946   5.295235   6.438096
    15  S    4.622951   4.393867   6.119351   3.096359   5.942826
    16  H    5.155627   4.753438   6.018268   3.833151   6.972338
    17  H    4.518126   4.910771   6.055568   2.493959   5.508283
                    6          7          8          9         10
     6  H    0.000000
     7  Mo   4.660212   0.000000
     8  S    6.026452   2.347863   0.000000
     9  H    6.752045   2.992693   1.353010   0.000000
    10  S    6.788311   2.430222   3.557252   3.471366   0.000000
    11  H    7.386240   3.005799   3.270689   2.693882   1.361780
    12  Mo   5.279077   2.680326   4.573550   4.501954   2.488554
    13  S    7.428347   4.766625   6.491593   6.202409   3.324160
    14  H    7.324533   5.427687   7.410549   7.268904   4.368417
    15  S    6.087481   4.448567   5.539101   4.962843   4.320535
    16  H    7.148536   4.184583   5.028597   4.264237   3.160490
    17  H    5.372794   4.282863   5.082628   4.574848   4.801760
                   11         12         13         14         15
    11  H    0.000000
    12  Mo   3.132667   0.000000
    13  S    3.942703   2.407974   0.000000
    14  H    5.164271   3.006053   1.348643   0.000000
    15  S    4.156627   2.552893   3.583887   4.207188   0.000000
    16  H    2.736181   2.482873   2.916207   4.026257   1.814832
    17  H    4.551017   3.139011   4.752937   5.327973   1.352174
                   16         17
    16  H    0.000000
    17  H    2.763507   0.000000
 Symmetry turned off by external request.
 Stoichiometry    H6Mo3S8
 Framework group  C1[X(H6Mo3S8)]
 Deg. of freedom    45
 Full point group                 C1      NOp   1
 Rotational constants (GHZ):           0.2707331           0.2458486           0.1794189
 General basis read from cards:  (5D, 7F)
 ======================================================================================================
                                       Pseudopotential Parameters
 ======================================================================================================
  Center     Atomic      Valence      Angular      Power
  Number     Number     Electrons     Momentum     of R      Exponent        Coefficient   SO-Coeffient
 ======================================================================================================
    1         42           14
                                      F and up 
                                                     0      537.9667807       -0.04694920    0.00000000
                                                     1      147.8982938      -20.20800840    0.00000000
                                                     2       45.7358898     -106.21163020    0.00000000
                                                     2       13.2911467      -41.81073680    0.00000000
                                                     2        4.7059961       -4.20541030    0.00000000
                                      S - F
                                                     0      110.2991760        2.80637170    0.00000000
                                                     1       23.2014645       44.51620120    0.00000000
                                                     2        5.3530131       82.77852270    0.00000000
                                      P - F
                                                     0       63.2901397        4.94208760    0.00000000
                                                     1       23.3315302       25.86049760    0.00000000
                                                     2       24.6759423      132.47087420    0.00000000
                                                     2        4.6493040       57.31497940    0.00000000
                                      D - F
                                                     0      104.4839977        3.00545910    0.00000000
                                                     1       66.2307245       26.36378510    0.00000000
                                                     2       39.1283176      183.38491990    0.00000000
                                                     2       13.1164437       98.44530680    0.00000000
                                                     2        3.6280263       22.49013770    0.00000000
    2         16
                                   No pseudopotential on this center.
    3         16
                                   No pseudopotential on this center.
    4         16
                                   No pseudopotential on this center.
    5         16
                                   No pseudopotential on this center.
    6          1
                                   No pseudopotential on this center.
    7         42           14
                                      F and up 
                                                     0      537.9667807       -0.04694920    0.00000000
                                                     1      147.8982938      -20.20800840    0.00000000
                                                     2       45.7358898     -106.21163020    0.00000000
                                                     2       13.2911467      -41.81073680    0.00000000
                                                     2        4.7059961       -4.20541030    0.00000000
                                      S - F
                                                     0      110.2991760        2.80637170    0.00000000
                                                     1       23.2014645       44.51620120    0.00000000
                                                     2        5.3530131       82.77852270    0.00000000
                                      P - F
                                                     0       63.2901397        4.94208760    0.00000000
                                                     1       23.3315302       25.86049760    0.00000000
                                                     2       24.6759423      132.47087420    0.00000000
                                                     2        4.6493040       57.31497940    0.00000000
                                      D - F
                                                     0      104.4839977        3.00545910    0.00000000
                                                     1       66.2307245       26.36378510    0.00000000
                                                     2       39.1283176      183.38491990    0.00000000
                                                     2       13.1164437       98.44530680    0.00000000
                                                     2        3.6280263       22.49013770    0.00000000
    8         16
                                   No pseudopotential on this center.
    9          1
                                   No pseudopotential on this center.
   10         16
                                   No pseudopotential on this center.
   11          1
                                   No pseudopotential on this center.
   12         42           14
                                      F and up 
                                                     0      537.9667807       -0.04694920    0.00000000
                                                     1      147.8982938      -20.20800840    0.00000000
                                                     2       45.7358898     -106.21163020    0.00000000
                                                     2       13.2911467      -41.81073680    0.00000000
                                                     2        4.7059961       -4.20541030    0.00000000
                                      S - F
                                                     0      110.2991760        2.80637170    0.00000000
                                                     1       23.2014645       44.51620120    0.00000000
                                                     2        5.3530131       82.77852270    0.00000000
                                      P - F
                                                     0       63.2901397        4.94208760    0.00000000
                                                     1       23.3315302       25.86049760    0.00000000
                                                     2       24.6759423      132.47087420    0.00000000
                                                     2        4.6493040       57.31497940    0.00000000
                                      D - F
                                                     0      104.4839977        3.00545910    0.00000000
                                                     1       66.2307245       26.36378510    0.00000000
                                                     2       39.1283176      183.38491990    0.00000000
                                                     2       13.1164437       98.44530680    0.00000000
                                                     2        3.6280263       22.49013770    0.00000000
   13         16
                                   No pseudopotential on this center.
   14          1
                                   No pseudopotential on this center.
   15         16
                                   No pseudopotential on this center.
   16          1
                                   No pseudopotential on this center.
   17          1
                                   No pseudopotential on this center.
 ======================================================================================================
   240 basis functions,   605 primitive gaussians,   254 cartesian basis functions
    88 alpha electrons       88 beta electrons
       nuclear repulsion energy      2071.6825615204 Hartrees.
 NAtoms=   17 NActive=   17 NUniq=   17 SFac= 1.00D+00 NAtFMM=   60 NAOKFM=F Big=F
 Integral buffers will be    131072 words long.
 Raffenetti 2 integral format.
 Two-electron integral symmetry is turned off.
 One-electron integrals computed using PRISM.
   1 Symmetry operations used in ECPInt.
 ECPInt:  NShTT=    3403 NPrTT=   23974 LenC2=    3153 LenP2D=   15230.
 LDataN:  DoStor=T MaxTD1= 5 Len=  102
 NBasis=   240 RedAO= T EigKep=  1.24D-03  NBF=   240
 NBsUse=   240 1.00D-06 EigRej= -1.00D+00 NBFU=   240
 Defaulting to unpruned grid for atomic number  42.
 Defaulting to unpruned grid for atomic number  42.
 Defaulting to unpruned grid for atomic number  42.
 ExpMin= 2.47D-02 ExpMax= 2.19D+04 ExpMxC= 3.30D+03 IAcc=3 IRadAn=         5 AccDes= 0.00D+00
 Harris functional with IExCor=  402 and IRadAn=       5 diagonalized for initial guess.
 HarFok:  IExCor=  402 AccDes= 0.00D+00 IRadAn=         5 IDoV= 1 UseB2=F ITyADJ=14
 ICtDFT=  3500011 ScaDFX=  1.000000  1.000000  1.000000  1.000000
 Defaulting to unpruned grid for atomic number  42.
 FoFCou: FMM=F IPFlag=           0 FMFlag=      100000 FMFlg1=           0
         NFxFlg=           0 DoJE=T BraDBF=F KetDBF=T FulRan=T
         wScrn=  0.000000 ICntrl=       500 IOpCl=  0 I1Cent=   200000004 NGrid=           0
         NMat0=    1 NMatS0=      1 NMatT0=    0 NMatD0=    1 NMtDS0=    0 NMtDT0=    0
 Symmetry not used in FoFCou.
 Requested convergence on RMS density matrix=1.00D-08 within 128 cycles.
 Requested convergence on MAX density matrix=1.00D-06.
 Requested convergence on             energy=1.00D-06.
 No special actions if energy rises.
 Defaulting to unpruned grid for atomic number  42.
 Defaulting to unpruned grid for atomic number  42.
 Defaulting to unpruned grid for atomic number  42.
 Defaulting to unpruned grid for atomic number  42.
 Defaulting to unpruned grid for atomic number  42.
 Defaulting to unpruned grid for atomic number  42.
 Defaulting to unpruned grid for atomic number  42.
 Defaulting to unpruned grid for atomic number  42.
 Defaulting to unpruned grid for atomic number  42.
 Defaulting to unpruned grid for atomic number  42.
 Defaulting to unpruned grid for atomic number  42.
 Defaulting to unpruned grid for atomic number  42.
 Defaulting to unpruned grid for atomic number  42.
 Defaulting to unpruned grid for atomic number  42.
 Defaulting to unpruned grid for atomic number  42.
 Defaulting to unpruned grid for atomic number  42.
 Defaulting to unpruned grid for atomic number  42.
 Defaulting to unpruned grid for atomic number  42.
 Defaulting to unpruned grid for atomic number  42.
 Defaulting to unpruned grid for atomic number  42.
 Defaulting to unpruned grid for atomic number  42.
 Defaulting to unpruned grid for atomic number  42.
 Defaulting to unpruned grid for atomic number  42.
 Defaulting to unpruned grid for atomic number  42.
 EnCoef did     2 forward-backward iterations
 EnCoef did     3 forward-backward iterations
 EnCoef did     2 forward-backward iterations
 EnCoef did     3 forward-backward iterations
 EnCoef did     2 forward-backward iterations
 EnCoef did     8 forward-backward iterations
 EnCoef did     3 forward-backward iterations
 EnCoef did     3 forward-backward iterations
 Restarting incremental Fock formation.
 SCF Done:  E(RB3LYP) =  -3391.92521603     A.U. after   28 cycles
            NFock= 28  Conv=0.70D-08     -V/T= 2.0439

 **********************************************************************

            Population analysis using the SCF Density.

 **********************************************************************

 Alpha  occ. eigenvalues --  -88.92605 -88.91439 -88.90118 -88.88880 -88.88658
 Alpha  occ. eigenvalues --  -88.88079 -88.87784 -88.84273  -8.00076  -7.98976
 Alpha  occ. eigenvalues --   -7.97836  -7.96625  -7.96474  -7.95940  -7.95620
 Alpha  occ. eigenvalues --   -7.91998  -5.96451  -5.96017  -5.95645  -5.95223
 Alpha  occ. eigenvalues --   -5.94805  -5.94784  -5.93805  -5.93791  -5.93767
 Alpha  occ. eigenvalues --   -5.92636  -5.92558  -5.92527  -5.92450  -5.92427
 Alpha  occ. eigenvalues --   -5.92379  -5.92198  -5.91907  -5.91825  -5.91633
 Alpha  occ. eigenvalues --   -5.91453  -5.91342  -5.88302  -5.87927  -5.87629
 Alpha  occ. eigenvalues --   -2.54816  -2.54116  -2.53113  -1.58234  -1.57690
 Alpha  occ. eigenvalues --   -1.57085  -1.56745  -1.56315  -1.55626  -1.55300
 Alpha  occ. eigenvalues --   -1.54975  -1.54276  -0.77523  -0.76315  -0.73982
 Alpha  occ. eigenvalues --   -0.73379  -0.72986  -0.71604  -0.71099  -0.69342
 Alpha  occ. eigenvalues --   -0.49045  -0.46342  -0.44299  -0.43338  -0.41537
 Alpha  occ. eigenvalues --   -0.40260  -0.39328  -0.38554  -0.37916  -0.37556
 Alpha  occ. eigenvalues --   -0.37438  -0.36552  -0.35498  -0.35168  -0.34230
 Alpha  occ. eigenvalues --   -0.33284  -0.32768  -0.32199  -0.31643  -0.30756
 Alpha  occ. eigenvalues --   -0.29857  -0.29495  -0.28891  -0.27571  -0.25967
 Alpha  occ. eigenvalues --   -0.24722  -0.23664  -0.20362
 Alpha virt. eigenvalues --   -0.15218  -0.14612  -0.13296  -0.12651  -0.12245
 Alpha virt. eigenvalues --   -0.11341  -0.11094  -0.09419  -0.08748  -0.08278
 Alpha virt. eigenvalues --   -0.06554  -0.04569  -0.02100  -0.01060   0.00850
 Alpha virt. eigenvalues --    0.01468   0.01825   0.02394   0.03297   0.03643
 Alpha virt. eigenvalues --    0.04336   0.04545   0.05403   0.05968   0.06949
 Alpha virt. eigenvalues --    0.07282   0.08621   0.11417   0.12496   0.13915
 Alpha virt. eigenvalues --    0.15142   0.15815   0.17512   0.18206   0.20265
 Alpha virt. eigenvalues --    0.21857   0.26464   0.27109   0.27845   0.28441
 Alpha virt. eigenvalues --    0.28753   0.29753   0.29818   0.31277   0.31575
 Alpha virt. eigenvalues --    0.32243   0.32921   0.33292   0.34039   0.34964
 Alpha virt. eigenvalues --    0.35463   0.35759   0.36999   0.37154   0.38690
 Alpha virt. eigenvalues --    0.39339   0.39776   0.40362   0.41351   0.41950
 Alpha virt. eigenvalues --    0.42547   0.43503   0.43919   0.45288   0.46785
 Alpha virt. eigenvalues --    0.47324   0.47453   0.48474   0.49017   0.49853
 Alpha virt. eigenvalues --    0.52154   0.52759   0.54026   0.55305   0.57238
 Alpha virt. eigenvalues --    0.57838   0.59052   0.59763   0.60258   0.63461
 Alpha virt. eigenvalues --    0.63906   0.64689   0.66404   0.67414   0.69074
 Alpha virt. eigenvalues --    0.71304   0.71700   0.72413   0.72811   0.74005
 Alpha virt. eigenvalues --    0.74289   0.75188   0.75761   0.76366   0.76897
 Alpha virt. eigenvalues --    0.77471   0.78687   0.79950   0.80032   0.80937
 Alpha virt. eigenvalues --    0.81748   0.82567   0.83779   0.84771   0.86309
 Alpha virt. eigenvalues --    0.87286   0.88497   0.89499   0.90619   0.92226
 Alpha virt. eigenvalues --    0.92873   0.94176   0.95040   0.96972   0.97786
 Alpha virt. eigenvalues --    0.99091   1.00406   1.00898   1.02626   1.03483
 Alpha virt. eigenvalues --    1.04970   1.06364   1.08293   1.11414   1.11971
 Alpha virt. eigenvalues --    1.13253   1.14475   1.15443   1.17807   1.18709
 Alpha virt. eigenvalues --    1.23272   2.00046   2.05748   2.05966   2.06247
 Alpha virt. eigenvalues --    2.06537   2.06835   2.07555   2.08588   2.10570
 Alpha virt. eigenvalues --    2.10981   2.14191   2.16333   2.21863   2.68528
 Alpha virt. eigenvalues --    2.69754   2.71424   2.71878   2.76236   6.43056
 Alpha virt. eigenvalues --    8.62742  10.03918
          Condensed to atoms (all electrons):
               1          2          3          4          5          6
     1  Mo  13.342818   0.268903   0.233030   0.141978   0.295234  -0.029361
     2  S    0.268903  15.656454   0.004222  -0.005716   0.006003  -0.000141
     3  S    0.233030   0.004222  15.636422  -0.008817   0.009668  -0.000634
     4  S    0.141978  -0.005716  -0.008817  15.763032  -0.000542  -0.003880
     5  S    0.295234   0.006003   0.009668  -0.000542  15.606528   0.265068
     6  H   -0.029361  -0.000141  -0.000634  -0.003880   0.265068   0.659767
     7  Mo  -0.181799  -0.009803   0.209810   0.137326  -0.015294   0.005993
     8  S   -0.033854  -0.000076   0.003207   0.008349   0.000086  -0.000010
     9  H    0.001503   0.000001  -0.000069  -0.000613   0.000000   0.000000
    10  S    0.004010   0.005630   0.004679   0.000599  -0.000033   0.000001
    11  H    0.001217   0.000065   0.000202   0.000326   0.000000   0.000000
    12  Mo  -0.129273   0.172535  -0.006824   0.058896  -0.013190   0.001998
    13  S   -0.003873  -0.031104   0.000777  -0.005898   0.000007   0.000000
    14  H    0.002631  -0.013972  -0.000003   0.000039   0.000002   0.000000
    15  S    0.007859   0.001423  -0.000013  -0.090325   0.000202   0.000000
    16  H    0.000713  -0.001285  -0.000002  -0.000173   0.000000   0.000000
    17  H    0.000916  -0.000310  -0.000004   0.003261  -0.000027   0.000001
               7          8          9         10         11         12
     1  Mo  -0.181799  -0.033854   0.001503   0.004010   0.001217  -0.129273
     2  S   -0.009803  -0.000076   0.000001   0.005630   0.000065   0.172535
     3  S    0.209810   0.003207  -0.000069   0.004679   0.000202  -0.006824
     4  S    0.137326   0.008349  -0.000613   0.000599   0.000326   0.058896
     5  S   -0.015294   0.000086   0.000000  -0.000033   0.000000  -0.013190
     6  H    0.005993  -0.000010   0.000000   0.000001   0.000000   0.001998
     7  Mo  13.471948   0.294130  -0.025896   0.181662  -0.041595  -0.072519
     8  S    0.294130  15.655145   0.259249  -0.017043  -0.004047  -0.005626
     9  H   -0.025896   0.259249   0.680234  -0.003937   0.003749   0.004111
    10  S    0.181662  -0.017043  -0.003937  15.310412   0.238851   0.185663
    11  H   -0.041595  -0.004047   0.003749   0.238851   0.762772  -0.034097
    12  Mo  -0.072519  -0.005626   0.004111   0.185663  -0.034097  13.781831
    13  S   -0.007369  -0.000003  -0.000001  -0.036561   0.000330   0.266304
    14  H    0.001184   0.000000   0.000000   0.001151  -0.000005  -0.030210
    15  S    0.021041   0.000214   0.000211  -0.003728   0.001258   0.107225
    16  H    0.006863  -0.000037  -0.000088   0.001484  -0.006666   0.080164
    17  H   -0.003720  -0.000086  -0.000005  -0.000024  -0.000038  -0.027609
              13         14         15         16         17
     1  Mo  -0.003873   0.002631   0.007859   0.000713   0.000916
     2  S   -0.031104  -0.013972   0.001423  -0.001285  -0.000310
     3  S    0.000777  -0.000003  -0.000013  -0.000002  -0.000004
     4  S   -0.005898   0.000039  -0.090325  -0.000173   0.003261
     5  S    0.000007   0.000002   0.000202   0.000000  -0.000027
     6  H    0.000000   0.000000   0.000000   0.000000   0.000001
     7  Mo  -0.007369   0.001184   0.021041   0.006863  -0.003720
     8  S   -0.000003   0.000000   0.000214  -0.000037  -0.000086
     9  H   -0.000001   0.000000   0.000211  -0.000088  -0.000005
    10  S   -0.036561   0.001151  -0.003728   0.001484  -0.000024
    11  H    0.000330  -0.000005   0.001258  -0.006666  -0.000038
    12  Mo   0.266304  -0.030210   0.107225   0.080164  -0.027609
    13  S   15.674037   0.274315  -0.016608  -0.012819   0.000526
    14  H    0.274315   0.689770   0.000453   0.000352   0.000002
    15  S   -0.016608   0.000453  15.504136   0.158733   0.262116
    16  H   -0.012819   0.000352   0.158733   0.598603  -0.000274
    17  H    0.000526   0.000002   0.262116  -0.000274   0.661726
 Mulliken charges:
               1
     1  Mo   0.077347
     2  S   -0.052831
     3  S   -0.085650
     4  S    0.002160
     5  S   -0.153711
     6  H    0.101198
     7  Mo   0.028038
     8  S   -0.159598
     9  H    0.081552
    10  S    0.127182
    11  H    0.077678
    12  Mo  -0.339379
    13  S   -0.102062
    14  H    0.074293
    15  S    0.045804
    16  H    0.174430
    17  H    0.103550
 Sum of Mulliken charges =   0.00000
 Mulliken charges with hydrogens summed into heavy atoms:
               1
     1  Mo   0.077347
     2  S   -0.052831
     3  S   -0.085650
     4  S    0.002160
     5  S   -0.052513
     7  Mo   0.028038
     8  S   -0.078045
    10  S    0.204860
    12  Mo  -0.339379
    13  S   -0.027769
    15  S    0.323784
 Electronic spatial extent (au):  <R**2>=          74794.3287
 Charge=              0.0000 electrons
 Dipole moment (field-independent basis, Debye):
    X=             -0.4436    Y=             -2.5686    Z=             -2.6808  Tot=              3.7392
 Quadrupole moment (field-independent basis, Debye-Ang):
   XX=           -181.3340   YY=           -196.5234   ZZ=           -227.2002
   XY=             -3.3764   XZ=              2.4576   YZ=            -29.2269
 Traceless Quadrupole moment (field-independent basis, Debye-Ang):
   XX=             20.3519   YY=              5.1624   ZZ=            -25.5143
   XY=             -3.3764   XZ=              2.4576   YZ=            -29.2269
 Octapole moment (field-independent basis, Debye-Ang**2):
  XXX=            561.4824  YYY=          -1387.6383  ZZZ=          -6170.1197  XYY=            185.4451
  XXY=           -396.3357  XXZ=          -1879.3324  XZZ=            246.4938  YZZ=           -737.7949
  YYZ=          -1989.5759  XYZ=              0.8672
 Hexadecapole moment (field-independent basis, Debye-Ang**3):
 XXXX=          -4269.0923 YYYY=          -9420.9523 ZZZZ=        -124059.7557 XXXY=           1046.3287
 XXXZ=           5596.3391 YYYX=           1188.9338 YYYZ=         -13560.9521 ZZZX=           6228.3171
 ZZZY=         -15804.8975 XXYY=          -2044.0496 XXZZ=         -20549.4973 YYZZ=         -22038.5024
 XXYZ=          -3984.1777 YYXZ=           1947.4154 ZZXY=            645.3866
 N-N= 2.071682561520D+03 E-N=-1.213539964582D+04  KE= 3.249338601330D+03
   1 Symmetry operations used in ECPInt.
 ECPInt:  NShTT=    3403 NPrTT=   23974 LenC2=    3153 LenP2D=   15230.
 LDataN:  DoStor=T MaxTD1= 6 Len=  172
 Calling FoFJK, ICntrl=      2127 FMM=F ISym2X=0 I1Cent= 0 IOpClX= 0 NMat=1 NMatS=1 NMatT=0.
 Defaulting to unpruned grid for atomic number  42.
 Defaulting to unpruned grid for atomic number  42.
 Defaulting to unpruned grid for atomic number  42.
 Defaulting to unpruned grid for atomic number  42.
 Defaulting to unpruned grid for atomic number  42.
 Defaulting to unpruned grid for atomic number  42.
 Defaulting to unpruned grid for atomic number  42.
 Defaulting to unpruned grid for atomic number  42.
 Defaulting to unpruned grid for atomic number  42.
 Defaulting to unpruned grid for atomic number  42.
 Defaulting to unpruned grid for atomic number  42.
 Defaulting to unpruned grid for atomic number  42.
 Defaulting to unpruned grid for atomic number  42.
 Defaulting to unpruned grid for atomic number  42.
 Defaulting to unpruned grid for atomic number  42.
 Defaulting to unpruned grid for atomic number  42.
 Defaulting to unpruned grid for atomic number  42.
 Defaulting to unpruned grid for atomic number  42.
 Defaulting to unpruned grid for atomic number  42.
 Defaulting to unpruned grid for atomic number  42.
 Defaulting to unpruned grid for atomic number  42.
 Defaulting to unpruned grid for atomic number  42.
 Defaulting to unpruned grid for atomic number  42.
 Defaulting to unpruned grid for atomic number  42.
 -------------------------------------------------------------------
 Center     Atomic                   Forces (Hartrees/Bohr)
 Number     Number              X              Y              Z
 -------------------------------------------------------------------
      1       42          -0.003527774    0.011300424    0.001010497
      2       16          -0.013096159   -0.008938056   -0.003951619
      3       16           0.007048343   -0.001667393    0.004327278
      4       16          -0.005199244   -0.004049115    0.009795149
      5       16          -0.002769321   -0.001028572   -0.002842344
      6        1           0.000898147   -0.000773195    0.000562656
      7       42           0.007636691    0.008793517   -0.003532507
      8       16          -0.001167670   -0.003838319   -0.001386569
      9        1          -0.000805003    0.001194408    0.000924285
     10       16           0.000931304   -0.002880517   -0.003506835
     11        1          -0.002108339    0.003238510    0.001237190
     12       42          -0.005171535   -0.024169249    0.014334316
     13       16           0.006268419    0.012479923   -0.012451217
     14        1          -0.001844729    0.001035697    0.000350208
     15       16          -0.004886952    0.048842818   -0.025592639
     16        1           0.032080154   -0.040863129    0.023527702
     17        1          -0.014286331    0.001322249   -0.002805551
 -------------------------------------------------------------------
 Cartesian Forces:  Max     0.048842818 RMS     0.012944825

 GradGradGradGradGradGradGradGradGradGradGradGradGradGradGradGradGradGrad
 Berny optimization.
 FormGI is forming the generalized inverse of G from B-inverse, IUseBI=4.
 Internal  Forces:  Max     0.042504244 RMS     0.006192444
 Search for a saddle point.
 Step number   1 out of a maximum of  102
 All quantities printed in internal units (Hartrees-Bohrs-Radians)
 Second derivative matrix not updated -- first step.
 ITU=  0
 LST/QST climbing along tangent vector
     Eigenvalues ---    0.00230   0.00230   0.00465   0.01416   0.02578
     Eigenvalues ---    0.02698   0.03282   0.03334   0.03795   0.03935
     Eigenvalues ---    0.04436   0.05314   0.05614   0.07474   0.07579
     Eigenvalues ---    0.07835   0.08763   0.09100   0.09442   0.09529
     Eigenvalues ---    0.10506   0.10648   0.10941   0.11754   0.12024
     Eigenvalues ---    0.12642   0.13154   0.13801   0.13879   0.14085
     Eigenvalues ---    0.14386   0.15294   0.15496   0.15990   0.16000
     Eigenvalues ---    0.16000   0.16000   0.16773   0.17032   0.19270
     Eigenvalues ---    0.24753   0.25408   0.25472   0.25591   0.25743
     Eigenvalues --- 1000.000001000.000001000.000001000.000001000.00000
     Eigenvalues --- 1000.000001000.000001000.000001000.000001000.00000
     Eigenvalues --- 1000.000001000.000001000.000001000.000001000.00000
     Eigenvalues --- 1000.000001000.000001000.000001000.000001000.00000
     Eigenvalues --- 1000.000001000.000001000.000001000.000001000.00000
     Eigenvalues --- 1000.000001000.000001000.000001000.000001000.00000
     Eigenvalues --- 1000.000001000.000001000.000001000.000001000.00000
     Eigenvalues --- 1000.000001000.000001000.000001000.000001000.00000
     Eigenvalues --- 1000.000001000.000001000.000001000.000001000.00000
     Eigenvalues --- 1000.000001000.000001000.000001000.000001000.00000
     Eigenvalues --- 1000.000001000.000001000.000001000.000001000.00000
     Eigenvalues --- 1000.000001000.000001000.000001000.000001000.00000
     Eigenvalues --- 1000.000001000.000001000.000001000.000001000.00000
     Eigenvalues --- 1000.000001000.000001000.000001000.000001000.00000
     Eigenvalues --- 1000.000001000.000001000.000001000.000001000.00000
     Eigenvalues --- 1000.000001000.000001000.000001000.000001000.00000
     Eigenvalues --- 1000.000001000.000001000.000001000.000001000.00000
     Eigenvalues --- 1000.000001000.000001000.000001000.000001000.00000
 Eigenvectors required to have negative eigenvalues:
                          D3        D4        D2        D1        D5
   1                    0.34908   0.34908   0.34908   0.34908   0.34908
                          D46       D47       D43       D42       D45
   1                    0.25467   0.25467   0.25467   0.25467   0.25467
 QST in optimization variable space.
 Eigenvectors 1 and   6 swapped, overlap=  1.0000
                        Tangent   TS vect  // Eig F  Eigenval
   1         R1        -0.01942   0.01942   0.01194   0.02698
   2         R2        -0.00006   0.00006  -0.00028   0.00230
   3         R3        -0.01292   0.01292  -0.00020   0.00465
   4         R4        -0.00064   0.00064   0.00019   0.01416
   5         R5        -0.00081   0.00081   0.00069   0.02578
   6         R6         0.04080  -0.04080  -0.00049   0.00230
   7         R7         0.04096  -0.04096   0.00171   0.03282
   8         R8        -0.00007   0.00007  -0.00699   0.03334
   9         R9        -0.00023   0.00023  -0.00690   0.03795
  10         R10        0.02359  -0.02359  -0.00451   0.03935
  11         R11        0.00092  -0.00092   0.00744   0.04436
  12         R12       -0.00216   0.00216   0.00019   0.05314
  13         R13        0.00162  -0.00162   0.00005   0.05614
  14         R14        0.02006  -0.02006  -0.01567   0.07474
  15         R15       -0.00082   0.00082  -0.00344   0.07579
  16         R16       -0.00346   0.00346  -0.01702   0.07835
  17         R17        0.01725  -0.01725  -0.00186   0.08763
  18         R18       -0.01323   0.01323   0.00448   0.09100
  19         R19       -0.04532   0.04532   0.00579   0.09442
  20         R20       -0.28799   0.28799   0.00203   0.09529
  21         R21        0.00108  -0.00108  -0.00411   0.10506
  22         R22        0.17965  -0.17965   0.00467   0.10648
  23         R23        0.00030  -0.00030   0.00208   0.10941
  24         A1         0.01934  -0.01934   0.00272   0.11754
  25         A2        -0.00891   0.00891   0.00774   0.12024
  26         A3        -0.02440   0.02440  -0.00352   0.12642
  27         A4         0.02057  -0.02057  -0.00498   0.13154
  28         A5         0.00453  -0.00453   0.00204   0.13801
  29         A6        -0.01351   0.01351   0.00142   0.13879
  30         A7        -0.00827   0.00827  -0.00032   0.14085
  31         A8         0.02566  -0.02566  -0.00917   0.14386
  32         A9         0.00854  -0.00854   0.00561   0.15294
  33         A10        0.02824  -0.02824   0.00203   0.15496
  34         A11       -0.01665   0.01665  -0.00482   0.15990
  35         A12       -0.03763   0.03763  -0.00156   0.16000
  36         A13        0.01747  -0.01747  -0.00050   0.16000
  37         A14        0.00086  -0.00086   0.00084   0.16000
  38         A15        0.00739  -0.00739  -0.00730   0.16773
  39         A16        0.00755  -0.00755  -0.00745   0.17032
  40         A17       -0.00349   0.00349   0.00805   0.19270
  41         A18       -0.02724   0.02724  -0.00063   0.24753
  42         A19       -0.00139   0.00139  -0.00031   0.25408
  43         A20        0.01435  -0.01435   0.00022   0.25472
  44         A21        0.00098  -0.00098   0.00005   0.25591
  45         A22        0.00436  -0.00436  -0.00051   0.25743
  46         A23       -0.01874   0.01874   0.000001000.00000
  47         A24       -0.01079   0.01079   0.000001000.00000
  48         A25        0.00048  -0.00048   0.000001000.00000
  49         A26       -0.03421   0.03421   0.000001000.00000
  50         A27       -0.05032   0.05032   0.000001000.00000
  51         A28       -0.04876   0.04876   0.000001000.00000
  52         A29       -0.03221   0.03221   0.000001000.00000
  53         A30       -0.00164   0.00164   0.000001000.00000
  54         A31        0.04371  -0.04371   0.000001000.00000
  55         A32       -0.00507   0.00507   0.000001000.00000
  56         A33       -0.13440   0.13440   0.000001000.00000
  57         A34        0.03760  -0.03760   0.000001000.00000
  58         A35       -0.01216   0.01216   0.000001000.00000
  59         A36       -0.03728   0.03728   0.000001000.00000
  60         A37        0.06980  -0.06980   0.000001000.00000
  61         A38        0.01557  -0.01557   0.000001000.00000
  62         A39       -0.03938   0.03938   0.000001000.00000
  63         A40       -0.05763   0.05763   0.000001000.00000
  64         A41        0.07283  -0.07283   0.000001000.00000
  65         A42       -0.03161   0.03161   0.000001000.00000
  66         A43       -0.03401   0.03401   0.000001000.00000
  67         A44        0.09265  -0.09265   0.000001000.00000
  68         A45       -0.00871   0.00871   0.000001000.00000
  69         A46        0.04822  -0.04822   0.000001000.00000
  70         A47        0.09307  -0.09307   0.000001000.00000
  71         A48        0.06572  -0.06572   0.000001000.00000
  72         A49       -0.00614   0.00614   0.000001000.00000
  73         A50       -0.09657   0.09657   0.000001000.00000
  74         A51       -0.01030   0.01030   0.000001000.00000
  75         A52        0.10024  -0.10024   0.000001000.00000
  76         D1        -0.09239   0.09239   0.000001000.00000
  77         D2        -0.07893   0.07893   0.000001000.00000
  78         D3        -0.09741   0.09741   0.000001000.00000
  79         D4        -0.06878   0.06878   0.000001000.00000
  80         D5        -0.11232   0.11232   0.000001000.00000
  81         D6        -0.03494   0.03494   0.000001000.00000
  82         D7        -0.01176   0.01176   0.000001000.00000
  83         D8        -0.05151   0.05151   0.000001000.00000
  84         D9        -0.02832   0.02832   0.000001000.00000
  85         D10       -0.02858   0.02858   0.000001000.00000
  86         D11       -0.09151   0.09151   0.000001000.00000
  87         D12       -0.11978   0.11978   0.000001000.00000
  88         D13        0.02119  -0.02119   0.000001000.00000
  89         D14       -0.00222   0.00222   0.000001000.00000
  90         D15       -0.06515   0.06515   0.000001000.00000
  91         D16       -0.09342   0.09342   0.000001000.00000
  92         D17        0.04755  -0.04755   0.000001000.00000
  93         D18        0.00892  -0.00892   0.000001000.00000
  94         D19        0.13379  -0.13379   0.000001000.00000
  95         D20        0.14092  -0.14092   0.000001000.00000
  96         D21        0.11722  -0.11722   0.000001000.00000
  97         D22        0.11409  -0.11409   0.000001000.00000
  98         D23        0.09839  -0.09839   0.000001000.00000
  99         D24       -0.01663   0.01663   0.000001000.00000
 100         D25       -0.01232   0.01232   0.000001000.00000
 101         D26       -0.01729   0.01729   0.000001000.00000
 102         D27        0.00659  -0.00659   0.000001000.00000
 103         D28        0.04322  -0.04322   0.000001000.00000
 104         D29        0.06878  -0.06878   0.000001000.00000
 105         D30       -0.08505   0.08505   0.000001000.00000
 106         D31       -0.02571   0.02571   0.000001000.00000
 107         D32        0.07868  -0.07868   0.000001000.00000
 108         D33        0.10425  -0.10425   0.000001000.00000
 109         D34       -0.04958   0.04958   0.000001000.00000
 110         D35        0.00976  -0.00976   0.000001000.00000
 111         D36        0.03684  -0.03684   0.000001000.00000
 112         D37        0.05151  -0.05151   0.000001000.00000
 113         D38        0.02449  -0.02449   0.000001000.00000
 114         D39        0.08421  -0.08421   0.000001000.00000
 115         D40        0.05448  -0.05448   0.000001000.00000
 116         D41       -0.01700   0.01700   0.000001000.00000
 117         D42        0.14625  -0.14625   0.000001000.00000
 118         D43        0.05636  -0.05636   0.000001000.00000
 119         D44        0.04361  -0.04361   0.000001000.00000
 120         D45        0.10827  -0.10827   0.000001000.00000
 121         D46        0.19777  -0.19777   0.000001000.00000
 122         D47        0.10674  -0.10674   0.000001000.00000
 123         D48       -0.09151   0.09151   0.000001000.00000
 124         D49       -0.20211   0.20211   0.000001000.00000
 125         D50       -0.16259   0.16259   0.000001000.00000
 126         D51       -0.27319   0.27319   0.000001000.00000
 127         D52       -0.16609   0.16609   0.000001000.00000
 128         D53       -0.27669   0.27669   0.000001000.00000
 129         D54       -0.09654   0.09654   0.000001000.00000
 130         D55       -0.20714   0.20714   0.000001000.00000
 131         D56       -0.14437   0.14437   0.000001000.00000
 132         D57       -0.25497   0.25497   0.000001000.00000
 133         D58       -0.13212   0.13212   0.000001000.00000
 134         D59       -0.24272   0.24272   0.000001000.00000
 135         D60       -0.11060   0.11060   0.000001000.00000
 RFO step:  Lambda0=3.150641382D-02 Lambda=-1.30941886D-02.
 Linear search not attempted -- option 19 set.
 Maximum step size (   0.300) exceeded in Quadratic search.
    -- Step size scaled by   0.229
 Iteration  1 RMS(Cart)=  0.06248866 RMS(Int)=  0.00370664
 Iteration  2 RMS(Cart)=  0.00344432 RMS(Int)=  0.00083569
 Iteration  3 RMS(Cart)=  0.00000655 RMS(Int)=  0.00083568
 Iteration  4 RMS(Cart)=  0.00000001 RMS(Int)=  0.00083568
 Variable       Old X    -DE/DX   Delta X   Delta X   Delta X     New X
                                 (Linear)    (Quad)   (Total)
    R1        4.25621  -0.01070   0.00000  -0.01717  -0.01735   4.23886
    R2        4.43698  -0.00612   0.00000  -0.00448  -0.00441   4.43257
    R3        4.51744  -0.00312   0.00000  -0.00972  -0.00941   4.50803
    R4        4.42543  -0.00065   0.00000  -0.00087  -0.00087   4.42455
    R5        5.14562  -0.00554   0.00000  -0.00255  -0.00302   5.14260
    R6        5.30750   0.00244   0.00000   0.02331   0.02340   5.33090
    R7        4.61807  -0.00826   0.00000   0.01769   0.01788   4.63595
    R8        4.33199   0.00433   0.00000   0.00346   0.00328   4.33527
    R9        4.43633  -0.00440   0.00000  -0.00284  -0.00289   4.43343
   R10        4.71258   0.00582   0.00000   0.01830   0.01831   4.73089
   R11        2.55228   0.00008   0.00000   0.00059   0.00059   2.55287
   R12        4.43682   0.00287   0.00000   0.00085   0.00085   4.43767
   R13        4.59245  -0.00133   0.00000   0.00129   0.00069   4.59315
   R14        5.06508   0.00144   0.00000   0.01016   0.01072   5.07581
   R15        2.55682  -0.00060   0.00000  -0.00075  -0.00075   2.55607
   R16        2.57339  -0.00119   0.00000  -0.00262  -0.00262   2.57077
   R17        4.70269   0.00145   0.00000   0.01090   0.01110   4.71379
   R18        4.55041   0.01579   0.00000   0.00551   0.00551   4.55592
   R19        4.82427   0.01811   0.00000  -0.01041  -0.01144   4.81283
   R20        4.69195  -0.01879   0.00000  -0.21763  -0.21867   4.47328
   R21        2.54857  -0.00105   0.00000   0.00021   0.00021   2.54877
   R22        3.42953  -0.04250   0.00000   0.05740   0.06015   3.48969
   R23        2.55524   0.00043   0.00000   0.00037   0.00037   2.55560
    A1        1.86782  -0.00033   0.00000   0.01046   0.01073   1.87855
    A2        1.87610   0.00100   0.00000  -0.00411  -0.00441   1.87169
    A3        2.00712   0.00201   0.00000  -0.01256  -0.01263   1.99449
    A4        1.85467  -0.00214   0.00000   0.01036   0.01054   1.86521
    A5        1.83444   0.00116   0.00000   0.00321   0.00330   1.83774
    A6        2.11506  -0.00233   0.00000  -0.00895  -0.00904   2.10602
    A7        1.68682   0.00364   0.00000  -0.00327  -0.00320   1.68362
    A8        1.73707  -0.00117   0.00000   0.01374   0.01374   1.75081
    A9        2.38623   0.00010   0.00000   0.00486   0.00463   2.39086
   A10        2.45403  -0.00120   0.00000   0.01599   0.01590   2.46993
   A11        1.79471   0.00334   0.00000  -0.00789  -0.00789   1.78682
   A12        2.63452   0.00038   0.00000  -0.02362  -0.02374   2.61078
   A13        1.93820   0.00146   0.00000   0.01106   0.01105   1.94925
   A14        1.89088  -0.00159   0.00000  -0.00118  -0.00090   1.88997
   A15        2.21550  -0.00051   0.00000   0.00420   0.00409   2.21959
   A16        1.87123   0.00335   0.00000   0.00603   0.00593   1.87717
   A17        1.77473   0.00171   0.00000  -0.00197  -0.00197   1.77277
   A18        1.84307  -0.00055   0.00000  -0.01749  -0.01772   1.82536
   A19        1.95186   0.00165   0.00000   0.00096   0.00081   1.95267
   A20        1.67928  -0.00181   0.00000   0.00915   0.00919   1.68847
   A21        2.28255  -0.00102   0.00000   0.00106   0.00092   2.28347
   A22        1.82751  -0.00067   0.00000   0.00220   0.00220   1.82971
   A23        1.76455   0.00451   0.00000  -0.00826  -0.00798   1.75657
   A24        1.83444   0.00280   0.00000  -0.00296  -0.00292   1.83152
   A25        1.86048  -0.00164   0.00000   0.00050   0.00008   1.86057
   A26        2.30275   0.00272   0.00000  -0.01784  -0.01872   2.28403
   A27        2.07805   0.01224   0.00000  -0.02035  -0.01885   2.05920
   A28        2.68654   0.00174   0.00000  -0.03246  -0.03418   2.65236
   A29        1.72177  -0.00220   0.00000  -0.01958  -0.01965   1.70212
   A30        1.78357  -0.00450   0.00000  -0.00254  -0.00279   1.78078
   A31        2.06051  -0.00239   0.00000   0.02466   0.02458   2.08509
   A32        1.44358   0.00431   0.00000   0.00004   0.00074   1.44432
   A33        2.14877   0.00557   0.00000  -0.07915  -0.07765   2.07111
   A34        2.60966   0.00072   0.00000   0.02477   0.02392   2.63358
   A35        1.83564  -0.00221   0.00000  -0.00770  -0.00803   1.82761
   A36        3.16535   0.00211   0.00000  -0.01954  -0.01891   3.14644
   A37        2.90914   0.00017   0.00000   0.04278   0.04358   2.95272
   A38        1.32090   0.01400   0.00000   0.02184   0.02414   1.34504
   A39        1.75838   0.00324   0.00000  -0.02617  -0.02792   1.73046
   A40        2.42556   0.00148   0.00000  -0.03507  -0.03584   2.38972
   A41        2.03184   0.00871   0.00000   0.05322   0.05342   2.08526
   A42        1.88883   0.00371   0.00000  -0.01946  -0.02011   1.86872
   A43        1.49218   0.00162   0.00000  -0.02191  -0.02173   1.47045
   A44        2.05875  -0.00477   0.00000   0.05352   0.05184   2.11060
   A45        1.37791   0.00199   0.00000  -0.00329  -0.00245   1.37546
   A46        1.61381  -0.01436   0.00000   0.01589   0.01520   1.62901
   A47        1.27735  -0.00483   0.00000   0.05605   0.05816   1.33550
   A48        0.73687  -0.00981   0.00000   0.02988   0.03034   0.76721
   A49        1.79108   0.00212   0.00000  -0.00232  -0.00232   1.78876
   A50        1.16636  -0.00566   0.00000  -0.07054  -0.06952   1.09684
   A51        1.79096  -0.00760   0.00000  -0.00815  -0.00715   1.78381
   A52        2.10881  -0.00993   0.00000   0.04497   0.04257   2.15138
    D1       -2.69545  -0.00026   0.00000  -0.05903  -0.05862  -2.75407
    D2        1.29653   0.00053   0.00000  -0.05063  -0.05075   1.24578
    D3       -0.69721   0.00101   0.00000  -0.06073  -0.06082  -0.75803
    D4        0.11587  -0.00068   0.00000  -0.04585  -0.04574   0.07013
    D5       -1.52813  -0.00060   0.00000  -0.07039  -0.07070  -1.59883
    D6        2.72499   0.00135   0.00000  -0.01921  -0.01935   2.70563
    D7       -0.04500   0.00146   0.00000  -0.00607  -0.00640  -0.05140
    D8       -0.10544   0.00125   0.00000  -0.02872  -0.02867  -0.13411
    D9       -2.87542   0.00135   0.00000  -0.01559  -0.01572  -2.89114
   D10       -0.12130  -0.00090   0.00000  -0.01738  -0.01759  -0.13889
   D11        1.60780   0.00104   0.00000  -0.05586  -0.05587   1.55193
   D12       -2.50361  -0.00421   0.00000  -0.07919  -0.07829  -2.58190
   D13       -1.84677  -0.00319   0.00000   0.00946   0.00768  -1.83909
   D14        2.74854  -0.00045   0.00000  -0.00199  -0.00194   2.74660
   D15       -1.80555   0.00149   0.00000  -0.04047  -0.04022  -1.84577
   D16        0.36622  -0.00376   0.00000  -0.06381  -0.06264   0.30358
   D17        1.02307  -0.00275   0.00000   0.02485   0.02333   1.04640
   D18        1.32912   0.00030   0.00000   0.00474   0.00472   1.33384
   D19       -1.95535  -0.00143   0.00000   0.07838   0.07815  -1.87720
   D20        2.88081   0.00138   0.00000   0.08584   0.08590   2.96671
   D21       -1.16456  -0.00223   0.00000   0.06739   0.06768  -1.09688
   D22        0.83838  -0.00125   0.00000   0.06734   0.06734   0.90572
   D23       -0.07715  -0.00038   0.00000   0.05712   0.05701  -0.02014
   D24        2.38354   0.00139   0.00000  -0.00741  -0.00750   2.37605
   D25       -2.88017   0.00136   0.00000  -0.00548  -0.00546  -2.88563
   D26        1.33273   0.00026   0.00000  -0.00837  -0.00855   1.32418
   D27       -0.57973   0.00128   0.00000   0.00651   0.00660  -0.57312
   D28        0.22068  -0.00290   0.00000   0.02330   0.02360   0.24428
   D29       -1.40070  -0.00476   0.00000   0.03582   0.03509  -1.36561
   D30        2.61187   0.00801   0.00000  -0.04498  -0.04374   2.56813
   D31       -2.88582  -0.00184   0.00000  -0.02053  -0.02190  -2.90772
   D32       -3.07051  -0.00158   0.00000   0.04715   0.04751  -3.02301
   D33        1.59129  -0.00344   0.00000   0.05967   0.05900   1.65029
   D34       -0.67932   0.00932   0.00000  -0.02113  -0.01983  -0.69915
   D35        0.10617  -0.00052   0.00000   0.00332   0.00201   0.10818
   D36       -2.23875  -0.00241   0.00000   0.02061   0.02035  -2.21839
   D37        3.11474   0.00073   0.00000   0.03002   0.03040  -3.13804
   D38       -1.27071  -0.00453   0.00000   0.01251   0.01222  -1.25849
   D39        1.73124  -0.00556   0.00000   0.04666   0.04702   1.77826
   D40        0.15342   0.00952   0.00000   0.04426   0.04619   0.19962
   D41        0.44449  -0.00030   0.00000  -0.01451  -0.01632   0.42817
   D42        0.53117  -0.00106   0.00000   0.08612   0.08608   0.61725
   D43        0.34380   0.00223   0.00000   0.03348   0.03385   0.37765
   D44        2.09287   0.00042   0.00000   0.02694   0.02809   2.12096
   D45        2.42182  -0.00122   0.00000   0.06282   0.06320   2.48502
   D46       -1.80432  -0.00504   0.00000   0.11529   0.11396  -1.69035
   D47       -2.46858   0.00051   0.00000   0.06435   0.06381  -2.40477
   D48        2.73074  -0.00374   0.00000  -0.06464  -0.06481   2.66593
   D49        0.66453   0.00442   0.00000  -0.11492  -0.11598   0.54855
   D50       -2.51903   0.00027   0.00000  -0.10349  -0.10208  -2.62111
   D51        1.69794   0.00843   0.00000  -0.15377  -0.15325   1.54469
   D52        2.17451  -0.00476   0.00000  -0.11302  -0.11080   2.06372
   D53        0.10830   0.00340   0.00000  -0.16330  -0.16197  -0.05367
   D54        1.54292  -0.00905   0.00000  -0.07437  -0.07271   1.47020
   D55       -0.52330  -0.00090   0.00000  -0.12465  -0.12388  -0.64718
   D56        0.43251  -0.00995   0.00000  -0.10606  -0.10656   0.32595
   D57       -1.63370  -0.00179   0.00000  -0.15634  -0.15773  -1.79144
   D58       -1.07209  -0.00415   0.00000  -0.09009  -0.09060  -1.16270
   D59       -3.13830   0.00400   0.00000  -0.14037  -0.14177   3.00311
   D60       -2.06621   0.00816   0.00000  -0.05028  -0.05117  -2.11738
         Item               Value     Threshold  Converged?
 Maximum Force            0.042504     0.000450     NO 
 RMS     Force            0.006192     0.000300     NO 
 Maximum Displacement     0.467907     0.001800     NO 
 RMS     Displacement     0.062779     0.001200     NO 
[...]
   zy        -0.103252D+02     -0.153003D+01     -0.170239D+01
   zz         0.338147D+03      0.501082D+02      0.557528D+02

 ----------------------------------------------------------------------
 Unable to Open any file for archive entry.
 1\1\GINC-NODE7\Freq\RB3LYP\Gen\H6Mo3S8\CHESHA\07-Jul-2023\0\\#N Geom=A
 llCheck Guess=TCheck SCRF=Check GenChk RB3LYP/ChkBas Freq\\Title Card 
 Required\\0,1\Mo,-0.4891091813,1.6636924922,11.6619828535\S,0.26993511
 1,3.7425330864,11.6768558614\S,-2.6711795309,1.8035853083,12.420003977
 2\S,-0.5732886107,0.8950724449,9.4192969538\S,0.9307868497,0.058240881
 9,12.6105880481\H,0.2794655406,-1.0802958413,12.2843102253\Mo,-2.65807
 29845,1.8485090434,10.1243901427\S,-3.8808247028,0.3446432162,8.834205
 2456\H,-2.9905301669,-0.3817992273,8.1263763566\S,-2.5409186496,4.3116
 702571,9.8495112603\H,-3.1292716137,4.488333459,8.6462355005\Mo,-0.367
 3086682,3.2922267834,9.3196043881\S,0.9016035901,5.2556367636,8.694944
 9806\H,1.2156943651,5.7880454798,9.8928137872\S,0.2481347911,2.8584644
 427,6.8774121888\H,-1.1591963717,3.549168425,7.8065728783\H,-0.5884967
 674,1.8507369846,6.556118352\\Version=ES64L-G16RevC.01\HF=-3391.986458
 3\RMSD=3.171e-09\RMSF=2.968e-06\ZeroPoint=0.061628\Thermal=0.0818218\E
 Tot=-3391.9046365\HTot=-3391.9036923\GTot=-3391.9757094\Dipole=-1.3590
 774,-1.0194587,0.2480308\DipoleDeriv=0.7930825,-0.3317016,0.4237771,-0
 .3543306,1.0013749,-0.2713455,0.2125456,-0.2401288,0.2858903,-0.128974
 ,-0.1663247,-0.1324375,-0.2717844,-0.4039562,-0.1820264,-0.1004228,-0.
 0096583,-0.2075557,-0.3200943,-0.0036507,0.0496088,0.0558534,0.0621413
 ,0.0153996,0.2563798,-0.0085968,-0.4858717,0.0650317,0.1206039,0.01169
 4,-0.0916418,-0.321012,-0.0730317,0.0384621,-0.1696525,0.0933014,-0.31
 63807,0.5600017,-0.3740924,0.4941428,-0.5970988,0.4995699,-0.1529933,0
 .3588421,-0.3203971,0.0091636,-0.0641515,-0.0461253,-0.0168289,0.09651
 82,-0.0277758,-0.0739795,-0.0710709,0.0609345,0.5906198,0.0307146,0.19
 6981,0.4895698,0.5563515,0.2589989,0.1567231,0.3255337,0.7413234,-0.43
 4904,-0.4074399,-0.2582898,-0.4972593,-0.5093428,-0.2580512,-0.4171947
 ,-0.2489769,-0.3300084,0.0043015,0.0913124,0.0563649,0.0009197,0.12474
 3,-0.0071651,-0.0075282,-0.0379169,0.0879115,-0.2075975,0.1072528,0.07
 9224,0.1504717,-0.130224,0.0423033,0.1019789,-0.0002281,0.1404538,0.07
 13287,0.0030501,-0.0140297,0.0186042,0.0534941,-0.0693356,-0.0513365,0
 .0066484,0.0278678,0.2317725,0.418821,-0.2035224,0.3108871,0.6890421,-
 0.0751194,0.2791447,0.0116088,-0.3506187,-0.4038337,-0.3087067,0.08028
 06,-0.3492426,-0.7586217,0.2165828,0.0983443,0.1903962,0.0726539,0.094
 4955,-0.0360387,0.0553285,-0.0311765,0.0673441,0.0302266,-0.0329408,-0
 .0551009,-0.0724057,-0.2729195,0.076359,0.4758203,0.2438592,0.0411232,
 -0.3063705,0.0646581,-0.0025647,-0.5304661,0.1986932,0.0267639,-0.3822
 123,-0.0499459,0.0085003,0.2382164,-0.4191724,-0.0857591,0.7307168,0.0
 262145,-0.1168654,-0.0183699,-0.102098,0.0196228,-0.0310763,0.0473315,
 0.0366248,0.0562699\Polar=286.7058963,43.3816331,300.4786696,6.5376189
 ,-39.8510876,308.9794569\Quadrupole=1.7671055,-7.1916825,5.424577,-8.2
 834579,-21.1683718,-14.0755757\PG=C01 [X(H6Mo3S8)]\NImag=1\\0.25421935
 ,0.00129090,0.28389942,0.02153234,-0.01789567,0.23503036,-0.03213539,-
 0.05490812,0.00014838,0.05174901,-0.04337169,-0.15622488,-0.00830434,0
 .06715674,0.17531883,0.00453390,-0.00766177,-0.01198290,0.01542032,0.0
 2670740,0.07015472,-0.10335781,0.01153665,0.04446617,-0.00402066,-0.00
 921178,-0.00064665,0.11602420,0.01088336,-0.01366189,-0.00766196,-0.00
 603373,0.00057112,0.00531691,-0.00758579,0.02012937,0.05196129,-0.0011
 6858,-0.02877351,-0.00192052,0.00121724,0.00215474,-0.05569395,0.00210
 307,0.15660147,-0.00373507,-0.00325977,-0.00408132,0.00183821,-0.00148
 665,-0.00402851,-0.00038125,0.00237162,0.00198355,0.09372301,0.0040205
 4,-0.01083289,-0.03145903,0.00066879,-0.00578978,-0.00008853,-0.002439
 44,0.00385015,0.00283474,-0.02152084,0.13720404,-0.00382705,-0.0341822
 1,-0.10282113,-0.00080965,-0.00226433,-0.00116799,0.00258812,-0.002205
 37,-0.00211647,-0.01960597,0.04262898,0.13125278,-0.05433522,0.0334713
 4,-0.02250985,0.00285231,0.00401453,-0.00119065,-0.00194483,0.00072572
 ,-0.00072492,-0.00063585,-0.00159343,-0.00225172,0.11283691,0.03875029
 ,-0.05882269,0.02895651,0.00132033,-0.00153633,-0.00050762,0.00390678,
 0.00060705,-0.00208326,-0.00038612,0.00076766,0.00143650,0.06004258,0.
 24269765,-0.02753432,0.02149811,-0.03082444,0.00382017,0.00285155,-0.0
 0058420,-0.00189535,-0.00149521,0.00307804,-0.00430215,0.00161533,-0.0
 0146874,0.06073870,0.02374319,0.05138977,0.00232994,0.00439204,-0.0018
 0901,0.00009365,-0.00099973,0.00072965,0.00059152,0.00003162,0.0008733
 4,0.00010356,0.00104927,0.00014136,-0.06464367,-0.10626398,-0.03073527
 ,0.06416110,-0.00186924,-0.00919455,0.00018855,0.00073890,0.00092484,-
 0.00007721,-0.00028525,0.00012532,-0.00014672,-0.00013488,0.00001354,-
 0.00016419,-0.10208621,-0.18413059,-0.05066702,0.10229025,0.19152204,0
 .00215905,0.00674132,0.00301144,-0.00145011,-0.00051669,0.00010630,-0.
 00180372,0.00020548,-0.00067236,0.00060181,-0.00023027,-0.00050393,-0.
 03281713,-0.05550346,-0.02251795,0.03253911,0.05023208,0.02011524,-0.0
 5714675,0.00078048,-0.04051946,-0.00584363,-0.00576128,-0.00024240,-0.
 01218489,-0.00454741,-0.00040035,-0.07783206,0.03464330,0.02804144,0.0
 0615117,0.00277759,0.00197329,-0.00232562,0.00159890,-0.00049290,0.207
 67555,0.00415504,-0.00951866,0.01313851,-0.00358891,0.00125617,-0.0037
 5091,0.00547149,-0.01230496,-0.00059905,0.03785690,-0.02191551,-0.0140
 7289,0.00152209,-0.00048176,0.00144204,0.00038615,0.00020372,-0.000557
 93,0.00107201,0.21200370,-0.05558777,-0.00180455,-0.02572381,-0.001001
 08,-0.00188299,-0.00006995,0.01336170,0.00267950,-0.13139649,0.0264410
 9,-0.01892442,-0.01259039,0.00124867,0.00115155,0.00018256,-0.00103378
 ,0.00061026,0.00037095,0.04248919,0.04533760,0.24341372,0.00096670,-0.
 00230021,0.00105811,-0.00020870,0.00000065,0.00008839,0.00197210,0.003
 82802,-0.00381516,-0.00573744,-0.00520153,-0.00404516,-0.00121003,-0.0
 0011695,-0.00063451,0.00043228,-0.00035299,0.00007074,-0.03993363,-0.0
 2100882,-0.01769464,0.17223712,0.00164686,0.00227160,-0.00228019,0.000
 20909,-0.00059196,-0.00004347,-0.00199103,0.00238269,-0.00509199,-0.00
 102252,0.00210770,0.00034367,-0.00101273,0.00049580,-0.00012562,0.0001
 7283,-0.00014934,-0.00022813,-0.02948193,-0.06269130,-0.04009700,-0.06
 072585,0.12989953,-0.00253950,0.00152455,-0.00325707,-0.00011016,-0.00
 008817,0.00036768,-0.00180886,-0.00006592,0.00146090,-0.00204254,0.000
 74519,0.00125925,0.00018159,0.00052972,-0.00003599,-0.00012195,0.00015
 321,-0.00020396,-0.02315300,-0.04194192,-0.04381475,-0.06183841,0.1132
 1171,0.10977737,0.00021208,0.00135287,-0.00125233,0.00013984,-0.000150
 08,-0.00000523,-0.00098716,-0.00033067,-0.00025635,-0.00068100,-0.0002
 2499,-0.00063821,0.00019860,-0.00001074,0.00012732,-0.00005223,0.00006
 160,-0.00004604,0.00385121,-0.00730984,-0.00539311,-0.12562652,0.09570
 233,0.09211948,0.12317832,-0.00214067,0.00012544,-0.00161664,-0.000035
 92,0.00012387,0.00017598,-0.00033678,-0.00055981,0.00135800,-0.0006897
 1,0.00054419,0.00079630,0.00076011,0.00033174,0.00025569,-0.00028793,0
 .00024000,-0.00012691,0.00028738,-0.00643417,-0.00553460,0.08971115,-0
 .07450523,-0.07020878,-0.08902074,0.08052323,0.00229545,-0.00028296,0.
 00141247,0.00022455,-0.00003062,-0.00011843,0.00000132,-0.00056205,-0.
 00112492,-0.00024869,0.00075707,0.00023190,-0.00031373,0.00008696,-0.0
 0003378,0.00000920,-0.00007337,0.00005866,-0.00117952,-0.00709765,-0.0
 0696694,0.08620688,-0.06926588,-0.07019236,-0.08634815,0.07555651,0.07
 609891,-0.00003089,0.00305026,-0.00042772,-0.00292939,-0.00131803,-0.0
 0299208,0.00142212,-0.00000188,0.00101254,0.00104905,-0.00122791,-0.00
 040789,0.00022165,0.00004150,0.00015136,-0.00012079,0.00002261,0.00005
 148,-0.00037220,-0.00194430,-0.00572219,-0.00078538,-0.00051601,0.0006
 0551,0.00057064,0.00035102,-0.00042218,0.11235189,0.00190938,-0.002020
 57,0.00021150,-0.00029941,0.00053535,0.00222097,-0.00141246,-0.0002048
 3,0.00315798,-0.00012508,-0.00008412,0.00126751,0.00012597,0.00008450,
 -0.00007980,-0.00002135,0.00002252,-0.00005869,-0.00253579,-0.08470300
 ,0.00432177,-0.00149182,0.00158006,-0.00156480,0.00019994,-0.00030951,
 0.00039568,-0.03054126,0.11489463,0.00193716,0.00498101,-0.00145739,-0
 .00233552,-0.00077895,-0.00036151,-0.00123211,0.00298041,-0.00088204,0
 .00028645,-0.00068826,0.00118273,0.00018958,-0.00026266,0.00002022,-0.
 00000270,0.00000193,0.00004435,-0.00546273,0.00917927,-0.01037017,0.00
 186672,0.00041536,0.00187422,-0.00001490,-0.00039972,0.00001479,0.0842
 3745,-0.02809781,0.25046057,0.00036103,0.00033001,0.00034164,0.0001648
 5,0.00026526,0.00026831,-0.00000499,-0.00078418,-0.00042463,-0.0002227
 8,-0.00032646,-0.00046422,-0.00009144,-0.00003636,-0.00005366,0.000020
 27,-0.00001443,0.00002148,-0.00012930,0.00177738,0.00373882,0.00043028
 ,-0.00056664,-0.00033847,-0.00030897,0.00010637,-0.00025829,-0.0482111
 2,0.00926758,-0.08861446,0.05970066,-0.00085246,-0.00087491,-0.0001156
 7,-0.00018045,0.00094300,-0.00025320,-0.00018881,-0.00028827,-0.000874
 17,0.00032991,0.00010242,-0.00005136,-0.00003560,0.00001717,-0.0000520
 8,0.00001727,0.00000240,0.00000789,0.00402840,-0.00316806,0.01004778,-
 0.00039804,0.00004913,-0.00077605,-0.00007892,0.00008695,-0.00002977,0
 .00788041,-0.01473014,0.01852810,-0.01608380,0.01990983,-0.00051903,-0
 .00064752,0.00010102,-0.00004810,0.00066633,0.00000133,-0.00025715,0.0
 0051818,0.00034167,0.00011394,-0.00004176,0.00011097,-0.00007492,0.000
 00026,-0.00000365,0.00003807,-0.00000570,-0.00001918,0.00106077,0.0000
 7760,-0.00129079,-0.00050154,0.00009255,-0.00023910,0.00013639,-0.0000
 8489,0.00023181,-0.09673919,0.02816439,-0.21719086,0.09110321,-0.02633
 560,0.21299374,-0.00967191,0.00426348,0.00695431,-0.01417300,-0.007800
 95,-0.01416996,0.00290539,0.00185396,0.00731383,-0.00986891,-0.0008391
 7,-0.00381051,-0.00012518,0.00067529,-0.00202830,-0.00060181,-0.000011
 41,0.00127127,-0.02385460,-0.01923370,-0.00213701,-0.00162553,-0.00223
 936,0.00042810,-0.00071135,0.00163650,-0.00027778,-0.05776487,0.023157
 87,-0.00387522,-0.01198033,0.00451400,0.00445023,0.22298213,-0.0169861
 5,-0.02983154,0.03369323,-0.00238859,-0.01775882,-0.03554384,0.0042270
 6,0.00037451,-0.00099964,-0.01175995,-0.10406662,-0.00497809,0.0048612
 5,0.00115214,0.00082324,-0.00130842,0.00063891,0.00016219,0.00489150,-
 0.01073526,-0.00082441,-0.00328754,0.00100450,-0.00169996,0.00054320,-
 0.00061184,0.00150373,0.02133237,-0.01670903,0.00037738,0.00701300,-0.
 00116239,-0.00239610,0.01019299,0.26932966,0.00731597,0.03300827,-0.03
 280969,-0.01563234,-0.03003567,-0.04526867,0.00260222,-0.00354575,-0.0
 0008543,0.00377215,-0.00121435,-0.00602088,-0.00187010,0.00352880,0.00
 053971,-0.00129035,0.00009401,0.00060374,-0.01287921,-0.00622521,-0.00
 823310,-0.00085533,0.00500493,0.00387370,0.00214414,-0.00024235,0.0003
 8488,0.01326945,-0.00939598,-0.01335254,-0.00167370,-0.00096920,0.0034
 8877,0.02014451,-0.00425698,0.19922544,0.00044503,-0.00017412,-0.00312
 160,0.00170146,-0.00072489,0.00118814,-0.00033771,-0.00012435,0.000087
 27,0.00059174,-0.00813650,0.00189206,-0.00028596,-0.00025578,0.0003370
 4,0.00014774,-0.00000213,-0.00004648,0.00087193,-0.00051274,0.00173087
 ,0.00002290,-0.00054533,-0.00054441,-0.00008605,0.00017025,-0.00036941
 ,-0.00179874,-0.00225790,0.00146542,0.00024555,-0.00008897,-0.00010933
 ,-0.03462085,-0.02485467,0.01400713,0.05153365,-0.00122594,-0.00038852
 ,-0.00036522,-0.00296578,-0.00193596,0.00429118,0.00076014,-0.00050960
 ,0.00029619,0.00143803,-0.00142486,0.00210271,0.00029316,-0.00045387,0
 .00022323,-0.00005412,-0.00000388,0.00015404,-0.00712179,-0.00368300,0
 .00244182,-0.00012578,-0.00054545,0.00021638,0.00010408,0.00026531,-0.
 00038694,-0.00088417,0.00140754,-0.00023127,-0.00014157,-0.00002769,0.
 00015517,-0.02489551,-0.04867566,0.01529718,0.06434005,0.10928184,-0.0
 0044628,-0.00069781,0.00067923,0.00441534,0.00648185,-0.00277667,-0.00
 117365,0.00075735,0.00038840,-0.00079478,0.00503227,0.00080506,-0.0004
 1213,-0.00049335,0.00015564,0.00042361,-0.00011791,-0.00035203,0.00282
 484,0.00152073,0.00156395,0.00105834,-0.00024941,-0.00012218,-0.000373
 06,-0.00021498,-0.00012405,0.00167502,0.00086133,0.00060065,-0.0002451
 0,-0.00022627,0.00007982,0.00590747,0.00385498,-0.03444491,0.03850584,
 0.07473507,0.25219522,-0.00140184,-0.00139140,0.00108276,-0.00068236,0
 .00035507,0.00120703,0.00045034,0.00013304,0.00020319,-0.00012462,0.00
 151974,0.00032924,0.00031133,-0.00018583,0.00001158,0.00000767,0.00000
 441,-0.00001418,0.00046295,-0.00027231,-0.00064104,-0.00011958,-0.0000
 0100,0.00010464,0.00003273,0.00000491,0.00006565,0.00017088,-0.0000351
 9,-0.00044150,0.00000108,0.00011597,0.00005405,-0.00083032,-0.00331004
 ,-0.00520510,-0.01851671,-0.02443942,-0.04735919,0.02073566,-0.0003154
 3,0.00034909,-0.00076170,0.00074373,-0.00030108,0.00193886,-0.00044552
 ,0.00005903,0.00027979,-0.00008772,-0.00006942,-0.00012890,-0.00022155
 ,-0.00018957,-0.00002372,0.00014038,-0.00005284,-0.00008107,0.00046143
 ,0.00032498,0.00084390,0.00040916,-0.00015360,-0.00010650,-0.00013846,
 -0.00004439,-0.00012209,0.00032606,0.00017599,0.00017846,-0.00018522,-
 0.00011831,0.00005712,-0.00470262,-0.00719223,-0.00770069,-0.02442539,
 -0.04349297,-0.08077680,0.02855581,0.05126221,0.00034535,0.00079177,-0
 .00078452,0.00116053,0.00217303,-0.00015639,0.00010670,0.00014276,-0.0
 0004636,-0.00021130,-0.00018618,-0.00040225,-0.00011640,-0.00002408,0.
 00003299,0.00004544,0.00000429,-0.00004661,0.00031819,-0.00021593,-0.0
 0056763,-0.00027338,0.00010453,0.00003006,0.00007623,0.00002587,0.0000
 9551,-0.00027953,-0.00005735,0.00004040,0.00013413,0.00005454,-0.00008
 003,0.00173451,0.00208668,0.00454431,-0.05353791,-0.09032804,-0.218223
 77,0.05081016,0.08578489,0.21626511,0.00162242,0.00282882,-0.00049549,
 0.00083400,-0.00279348,-0.00002957,0.00144710,0.00059465,0.00044726,0.
 00196346,-0.00415796,0.00241543,-0.00024035,-0.00033565,0.00037409,0.0
 0007121,-0.00002933,-0.00004069,0.00248435,0.00218742,-0.00048948,-0.0
 0163082,0.00010144,-0.00117387,0.00037336,-0.00027407,0.00048737,0.001
 48133,-0.00063773,-0.00005721,-0.00102861,0.00099386,-0.00155414,-0.01
 491200,-0.00534732,0.04749742,0.00300268,-0.00159362,-0.00238746,-0.00
 161317,-0.00033085,-0.00110358,0.12246060,-0.00217025,0.00121709,0.000
 90239,0.00233272,0.00030669,0.00096085,-0.00076400,-0.00016665,0.00003
 571,-0.00125075,0.00153955,0.00629934,-0.00109932,0.00024546,-0.000339
 54,0.00024509,-0.00014045,-0.00005467,-0.00105055,-0.00197801,0.001581
 73,0.00033016,0.00005596,0.00039186,-0.00014641,0.00013540,-0.00024818
 ,0.00013150,-0.00029401,-0.00087459,0.00007127,-0.00037520,0.00067319,
 -0.00083978,-0.01188651,-0.02464523,-0.00194258,-0.01018189,-0.0079394
 4,-0.00021813,-0.00048852,0.00009329,0.13298217,0.17267368,-0.00272054
 ,-0.00394462,-0.00081472,-0.00087866,0.00343246,-0.00323096,-0.0002671
 4,0.00002780,0.00022902,0.00222410,0.00066990,-0.00622262,-0.00035823,
 0.00037828,-0.00021313,0.00005413,-0.00002444,-0.00000038,0.00179023,-
 0.00079941,-0.00002911,0.00078256,-0.00055035,0.00038164,-0.00039685,0
 .00028018,-0.00038340,0.00339803,-0.00127461,-0.00517432,-0.00129506,0
 .00005960,0.00037781,0.02714689,0.00295590,-0.04853345,-0.00258552,-0.
 00893240,0.00015697,-0.00037033,0.00084852,0.00000358,0.00311999,0.054
 08820,0.09314553,0.00130232,-0.00116930,-0.00169624,0.00093719,0.00153
 462,-0.00033654,-0.00112169,-0.00088024,-0.00047379,0.00000253,0.00301
 137,0.00032700,0.00058714,0.00017131,-0.00026277,-0.00016710,0.0000274
 8,-0.00001121,-0.00165931,-0.00072476,0.00025960,0.00046271,0.00035217
 ,0.00043768,-0.00000400,-0.00012229,0.00009187,-0.00575284,0.00469216,
 0.01245690,0.00122562,0.00008680,0.00268732,-0.04516403,0.01358743,-0.
 07288070,-0.00214410,-0.00325719,-0.00069557,-0.00016560,0.00066871,0.
 00056173,-0.00427728,0.00060529,0.00493062,0.05446757,0.00624210,0.003
 79236,-0.00692964,-0.00296529,0.00465567,0.00642353,-0.00154543,-0.000
 62299,-0.00040404,-0.00030977,-0.00194465,0.00153805,0.00051441,-0.000
 87300,0.00030596,0.00017855,0.00000519,-0.00016193,-0.00038025,0.00374
 578,0.00044804,0.00109487,-0.00124886,-0.00030815,-0.00057668,0.000022
 79,-0.00030529,0.00395175,0.00036696,-0.00583681,-0.00089729,-0.000444
 50,-0.00065945,0.01428279,-0.02177731,0.03130969,-0.00039713,-0.000401
 03,-0.00169964,-0.00059139,0.00002628,-0.00011489,-0.00510372,-0.00356
 943,0.00002581,-0.01754935,0.02027450,0.00076257,-0.00058809,-0.000256
 28,-0.00135439,0.00011406,-0.00742357,0.00187691,0.00093574,0.00082239
 ,-0.00008442,-0.00212050,-0.00111609,0.00051743,-0.00090876,0.00027024
 ,0.00007820,0.00002046,0.00004435,0.00592520,0.00451814,-0.00463883,-0
 .00152697,-0.00124776,-0.00130342,0.00007554,-0.00011542,0.00041593,0.
 00207266,0.00022879,-0.00509661,-0.00209416,0.00094756,0.00115822,-0.0
 4407417,0.01243502,-0.02192913,0.00133694,0.00094960,0.00074427,-0.000
 29324,0.00019323,-0.00090202,-0.02273751,0.00584269,-0.00599390,0.0557
 3716,-0.01952643,0.04868089,0.00035602,-0.00009394,0.00032930,-0.00031
 739,0.00029170,0.00020586,-0.00047179,-0.00013373,-0.00017259,-0.00005
 258,0.00075524,0.00012572,0.00035341,-0.00009428,-0.00008720,-0.000047
 71,0.00004173,0.00000752,-0.00021516,0.00016690,0.00043017,0.00035355,
 -0.00008229,-0.00020582,-0.00009950,-0.00011957,0.00003547,0.00049867,
 0.00000509,-0.00040334,-0.00017179,-0.00005958,0.00015943,0.00001717,0
 .00259388,0.00153386,-0.00077255,-0.00023057,-0.00092325,0.00128156,-0
 .00045252,0.00022914,-0.11203829,-0.12721643,-0.03457423,0.00147085,0.
 00405184,0.00378225,0.10985553,0.00003336,-0.00028390,0.00029935,0.000
 19589,-0.00049673,-0.00010914,0.00030418,0.00021978,0.00008472,0.00003
 730,-0.00000140,0.00163428,-0.00028232,0.00008864,0.00002464,0.0000320
 7,-0.00002684,0.00001676,0.00033800,0.00007934,-0.00039597,-0.00036447
 ,0.00003876,-0.00001237,0.00002353,0.00006603,0.00010487,-0.00065391,-
 0.00001234,0.00052816,0.00020509,0.00007857,-0.00023377,-0.00001438,-0
 .00209253,-0.00001146,-0.00006781,0.00076968,-0.00082795,-0.00024422,-
 0.00009466,-0.00033517,-0.11908464,-0.14709317,-0.04724083,-0.00103421
 ,-0.00200776,-0.00167834,0.12057654,0.15076852,0.00033143,0.00032876,-
 0.00072905,0.00035125,0.00025785,0.00035647,-0.00022456,-0.00013094,0.
 00002095,-0.00002341,0.00066981,-0.00041218,-0.00023620,-0.00002856,0.
 00001273,0.00006097,-0.00002823,-0.00003863,-0.00009358,0.00004701,0.0
 0016080,0.00005336,0.00000704,0.00014401,0.00004514,0.00009575,-0.0000
 0100,0.00051728,-0.00030088,-0.00035250,-0.00014582,0.00003789,-0.0000
 6154,-0.00497819,-0.00719332,-0.00198274,-0.00023605,-0.00061870,-0.00
 132562,0.00045629,-0.00042331,0.00019763,-0.02427256,-0.03676758,-0.02
 369858,-0.00113307,-0.00410483,-0.00347645,0.02952771,0.04815223,0.031
 18569\\0.00000209,0.00000117,-0.00000178,0.00000074,-0.00000046,-0.000
 00223,0.00000113,-0.00000324,0.00000156,-0.00000126,0.00000228,0.00000
 020,-0.00000326,-0.00000055,0.00000633,-0.00000120,0.00000077,-0.00000
 081,0.00000232,0.00000315,-0.00000565,-0.00000057,0.00000153,-0.000002
 85,0.00000106,-0.00000289,0.00000295,-0.00000102,-0.00000304,-0.000002
 62,0.00000085,0.00000388,-0.00000045,-0.00000510,0.00000193,0.00000713
 ,-0.00000003,0.00000130,-0.00000227,0.00000193,-0.00000141,0.00000073,
 0.00000210,0.00000634,0.00000123,-0.00000023,-0.00001047,-0.00000042,0
 .00000044,-0.00000030,-0.00000105\\\@
 The archive entry for this job was punched.


 TERRY FORSTER, PORTLY ATLANTA BRAVES RELIEVER,
 ANNOUNCING THAT HE WAS GOING TO A FAT FARM:
 "A WAIST IS A TERRIBLE THING TO MIND."
 Job cpu time:       0 days  0 hours 26 minutes 44.7 seconds.
 Elapsed time:       0 days  0 hours  1 minutes  7.7 seconds.
 File lengths (MBytes):  RWF=    237 Int=      0 D2E=      0 Chk=      7 Scr=      2
 Normal termination of Gaussian 16 at Fri Jul  7 19:40:04 2023.
