 Entering Gaussian System, Link 0=/apps/GAU16/avx2/g16/g16
 Initial command:
 /apps/GAU16/avx2//g16/l1.exe "/localscratch/chegho/Gau-200675.inp" -scrdir="/localscratch/chegho/"
 Entering Link 1 = /apps/GAU16/avx2//g16/l1.exe PID=    200676.
  
 Copyright (c) 1988-2019, Gaussian, Inc.  All Rights Reserved.
  
 This is part of the Gaussian(R) 16 program.  It is based on
 the Gaussian(R) 09 system (copyright 2009, Gaussian, Inc.),
 the Gaussian(R) 03 system (copyright 2003, Gaussian, Inc.),
 the Gaussian(R) 98 system (copyright 1998, Gaussian, Inc.),
 the Gaussian(R) 94 system (copyright 1995, Gaussian, Inc.),
 the Gaussian 92(TM) system (copyright 1992, Gaussian, Inc.),
 the Gaussian 90(TM) system (copyright 1990, Gaussian, Inc.),
 the Gaussian 88(TM) system (copyright 1988, Gaussian, Inc.),
 the Gaussian 86(TM) system (copyright 1986, Carnegie Mellon
 University), and the Gaussian 82(TM) system (copyright 1983,
 Carnegie Mellon University). Gaussian is a federally registered
 trademark of Gaussian, Inc.
  
 This software contains proprietary and confidential information,
 including trade secrets, belonging to Gaussian, Inc.
  
 This software is provided under written license and may be
 used, copied, transmitted, or stored only in accord with that
 written license.
  
 The following legend is applicable only to US Government
 contracts under FAR:
  
                    RESTRICTED RIGHTS LEGEND
  
 Use, reproduction and disclosure by the US Government is
 subject to restrictions as set forth in subparagraphs (a)
 and (c) of the Commercial Computer Software - Restricted
 Rights clause in FAR 52.227-19.
  
 Gaussian, Inc.
 340 Quinnipiac St., Bldg. 40, Wallingford CT 06492
  
  
 ---------------------------------------------------------------
 Warning -- This program may not be used in any manner that
 competes with the business of Gaussian, Inc. or will provide
 assistance to any competitor of Gaussian, Inc.  The licensee
 of this program is prohibited from giving any competitor of
 Gaussian, Inc. access to this program.  By using this program,
 the user acknowledges that Gaussian, Inc. is engaged in the
 business of creating and licensing software in the field of
 computational chemistry and represents and warrants to the
 licensee that it is not a competitor of Gaussian, Inc. and that
 it will not use this program in any manner prohibited above.
 ---------------------------------------------------------------
  

 Cite this work as:
 Gaussian 16, Revision C.01,
 M. J. Frisch, G. W. Trucks, H. B. Schlegel, G. E. Scuseria, 
 M. A. Robb, J. R. Cheeseman, G. Scalmani, V. Barone, 
 G. A. Petersson, H. Nakatsuji, X. Li, M. Caricato, A. V. Marenich, 
 J. Bloino, B. G. Janesko, R. Gomperts, B. Mennucci, H. P. Hratchian, 
 J. V. Ortiz, A. F. Izmaylov, J. L. Sonnenberg, D. Williams-Young, 
 F. Ding, F. Lipparini, F. Egidi, J. Goings, B. Peng, A. Petrone, 
 T. Henderson, D. Ranasinghe, V. G. Zakrzewski, J. Gao, N. Rega, 
 G. Zheng, W. Liang, M. Hada, M. Ehara, K. Toyota, R. Fukuda, 
 J. Hasegawa, M. Ishida, T. Nakajima, Y. Honda, O. Kitao, H. Nakai, 
 T. Vreven, K. Throssell, J. A. Montgomery, Jr., J. E. Peralta, 
 F. Ogliaro, M. J. Bearpark, J. J. Heyd, E. N. Brothers, K. N. Kudin, 
 V. N. Staroverov, T. A. Keith, R. Kobayashi, J. Normand, 
 K. Raghavachari, A. P. Rendell, J. C. Burant, S. S. Iyengar, 
 J. Tomasi, M. Cossi, J. M. Millam, M. Klene, C. Adamo, R. Cammi, 
 J. W. Ochterski, R. L. Martin, K. Morokuma, O. Farkas, 
 J. B. Foresman, and D. J. Fox, Gaussian, Inc., Wallingford CT, 2019.
 
 ******************************************
 Gaussian 16:  ES64L-G16RevC.01  3-Jul-2019
                 8-Jul-2023 
 ******************************************
 %nprocshared=8
 Will use up to    8 processors via shared memory.
 %mem=100GB
 ---------------------------------------
 # opt freq b3lyp/gen nosymm pseudo=read
 ---------------------------------------
 1/18=20,19=15,26=3,38=1/1,3;
 2/9=110,12=2,15=1,17=6,18=5,40=1/2;
 3/5=7,11=2,16=1,17=8,25=1,30=1,71=1,74=-5/1,2,3;
 4//1;
 5/5=2,38=5/2;
 6/7=2,8=2,9=2,10=2,28=1/1;
 7/30=1/1,2,3,16;
 1/18=20,19=15,26=3/3(2);
 2/9=110,15=1/2;
 99//99;
 2/9=110,15=1/2;
 3/5=7,6=1,11=2,16=1,17=8,25=1,30=1,71=1,74=-5,82=7/1,2,3;
 4/5=5,16=3,69=1/1;
 5/5=2,38=5/2;
 7/30=1/1,2,3,16;
 1/18=20,19=15,26=3/3(-5);
 2/9=110,15=1/2;
 6/7=2,8=2,9=2,10=2,19=2,28=1/1;
 99/9=1/99;
 -------------------
 Title Card Required
 -------------------
 Symbolic Z-matrix:
 Charge =  0 Multiplicity = 1
 42                   -0.34724   2.13035   11.50993 
 16                    0.52731   4.03046   10.89232 
 16                   -2.53423   2.30777   12.25331 
 16                   -0.36432   0.84257   9.56122 
 16                    1.10044   1.10558   13.03635 
 1                     0.32073   0.04444   13.34778 
 42                   -2.56944   1.50108   10.0876 
 16                   -3.49954  -0.5325    9.39181 
 1                    -2.65388  -1.03064   8.46378 
 16                   -3.38399   3.15424   8.51879 
 1                    -3.4966    2.29795   7.47824 
 42                   -0.86754   3.26286   8.85959 
 16                   -1.49811   5.54582   8.73631 
 1                    -0.32954   6.14853   9.04942 
 16                    1.23423   3.29727   7.65171 
 1                    -0.96282   2.55765   7.34435 
 1                     2.12195   3.62505   8.61872 
 

 GradGradGradGradGradGradGradGradGradGradGradGradGradGradGradGradGradGrad
 Berny optimization.
 Initialization pass.
                           ----------------------------
                           !    Initial Parameters    !
                           ! (Angstroms and Degrees)  !
 --------------------------                            --------------------------
 ! Name  Definition              Value          Derivative Info.                !
 --------------------------------------------------------------------------------
 ! R1    R(1,2)                  2.181          estimate D2E/DX2                !
 ! R2    R(1,3)                  2.3167         estimate D2E/DX2                !
 ! R3    R(1,4)                  2.3358         estimate D2E/DX2                !
 ! R4    R(1,5)                  2.3401         estimate D2E/DX2                !
 ! R5    R(1,7)                  2.7124         estimate D2E/DX2                !
 ! R6    R(1,12)                 2.9288         estimate D2E/DX2                !
 ! R7    R(2,12)                 2.582          estimate D2E/DX2                !
 ! R8    R(3,7)                  2.3113         estimate D2E/DX2                !
 ! R9    R(4,7)                  2.3608         estimate D2E/DX2                !
 ! R10   R(4,12)                 2.5697         estimate D2E/DX2                !
 ! R11   R(5,6)                  1.3531         estimate D2E/DX2                !
 ! R12   R(7,8)                  2.3419         estimate D2E/DX2                !
 ! R13   R(7,10)                 2.4202         estimate D2E/DX2                !
 ! R14   R(7,12)                 2.7401         estimate D2E/DX2                !
 ! R15   R(8,9)                  1.3508         estimate D2E/DX2                !
 ! R16   R(10,11)                1.3523         estimate D2E/DX2                !
 ! R17   R(10,12)                2.5417         estimate D2E/DX2                !
 ! R18   R(12,13)                2.3717         estimate D2E/DX2                !
 ! R19   R(12,15)                2.4244         estimate D2E/DX2                !
 ! R20   R(12,16)                1.674          estimate D2E/DX2                !
 ! R21   R(13,14)                1.3516         estimate D2E/DX2                !
 ! R22   R(15,17)                1.353          estimate D2E/DX2                !
 ! A1    A(2,1,3)              113.7464         estimate D2E/DX2                !
 ! A2    A(2,1,4)              104.3002         estimate D2E/DX2                !
 ! A3    A(2,1,5)              108.5524         estimate D2E/DX2                !
 ! A4    A(2,1,7)              112.4668         estimate D2E/DX2                !
 ! A5    A(3,1,4)              107.6392         estimate D2E/DX2                !
 ! A6    A(3,1,5)              114.0942         estimate D2E/DX2                !
 ! A7    A(3,1,12)              95.3398         estimate D2E/DX2                !
 ! A8    A(4,1,5)              107.8953         estimate D2E/DX2                !
 ! A9    A(5,1,7)              138.3566         estimate D2E/DX2                !
 ! A10   A(5,1,12)             150.4047         estimate D2E/DX2                !
 ! A11   A(1,5,6)               97.8785         estimate D2E/DX2                !
 ! A12   A(1,7,8)              133.0485         estimate D2E/DX2                !
 ! A13   A(1,7,10)             117.2042         estimate D2E/DX2                !
 ! A14   A(3,7,4)              106.9801         estimate D2E/DX2                !
 ! A15   A(3,7,8)              125.9791         estimate D2E/DX2                !
 ! A16   A(3,7,10)             111.9684         estimate D2E/DX2                !
 ! A17   A(3,7,12)             100.7227         estimate D2E/DX2                !
 ! A18   A(4,7,8)               93.5839         estimate D2E/DX2                !
 ! A19   A(4,7,10)             111.1226         estimate D2E/DX2                !
 ! A20   A(8,7,10)             105.4786         estimate D2E/DX2                !
 ! A21   A(8,7,12)             132.208          estimate D2E/DX2                !
 ! A22   A(7,8,9)              106.0039         estimate D2E/DX2                !
 ! A23   A(7,10,11)             95.4101         estimate D2E/DX2                !
 ! A24   A(11,10,12)           102.2798         estimate D2E/DX2                !
 ! A25   A(1,12,10)            106.3016         estimate D2E/DX2                !
 ! A26   A(1,12,13)            117.8071         estimate D2E/DX2                !
 ! A27   A(1,12,15)            107.598          estimate D2E/DX2                !
 ! A28   A(1,12,16)            131.7832         estimate D2E/DX2                !
 ! A29   A(2,12,4)              87.6649         estimate D2E/DX2                !
 ! A30   A(2,12,7)             100.0119         estimate D2E/DX2                !
 ! A31   A(2,12,10)            130.776          estimate D2E/DX2                !
 ! A32   A(2,12,13)             84.1677         estimate D2E/DX2                !
 ! A33   A(2,12,15)             85.3931         estimate D2E/DX2                !
 ! A34   A(2,12,16)            150.2936         estimate D2E/DX2                !
 ! A35   A(4,12,10)            100.9667         estimate D2E/DX2                !
 ! A36   A(4,12,15)             88.8329         estimate D2E/DX2                !
 ! A37   A(4,12,16)             82.0395         estimate D2E/DX2                !
 ! A38   A(7,12,13)            118.494          estimate D2E/DX2                !
 ! A39   A(7,12,15)            140.4312         estimate D2E/DX2                !
 ! A40   A(7,12,16)             95.7068         estimate D2E/DX2                !
 ! A41   A(10,12,13)            76.7581         estimate D2E/DX2                !
 ! A42   A(10,12,15)           142.3832         estimate D2E/DX2                !
 ! A43   A(10,12,16)            78.7134         estimate D2E/DX2                !
 ! A44   A(13,12,15)           101.0076         estimate D2E/DX2                !
 ! A45   A(13,12,16)           110.0803         estimate D2E/DX2                !
 ! A46   A(15,12,16)            66.6939         estimate D2E/DX2                !
 ! A47   A(12,13,14)           100.7969         estimate D2E/DX2                !
 ! A48   A(12,15,17)           102.4831         estimate D2E/DX2                !
 ! A49   L(4,12,13,2,-1)       171.8326         estimate D2E/DX2                !
 ! A50   L(4,12,13,2,-2)       190.5994         estimate D2E/DX2                !
 ! D1    D(2,1,5,6)            175.2377         estimate D2E/DX2                !
 ! D2    D(3,1,5,6)             47.2575         estimate D2E/DX2                !
 ! D3    D(4,1,5,6)            -72.2949         estimate D2E/DX2                !
 ! D4    D(7,1,5,6)            -15.0075         estimate D2E/DX2                !
 ! D5    D(12,1,5,6)          -126.35           estimate D2E/DX2                !
 ! D6    D(2,1,7,8)            147.6926         estimate D2E/DX2                !
 ! D7    D(2,1,7,10)            -5.2775         estimate D2E/DX2                !
 ! D8    D(5,1,7,8)            -21.7939         estimate D2E/DX2                !
 ! D9    D(5,1,7,10)          -174.764          estimate D2E/DX2                !
 ! D10   D(3,1,12,10)          -16.8824         estimate D2E/DX2                !
 ! D11   D(3,1,12,13)           66.4806         estimate D2E/DX2                !
 ! D12   D(3,1,12,15)          179.6685         estimate D2E/DX2                !
 ! D13   D(3,1,12,16)         -106.187          estimate D2E/DX2                !
 ! D14   D(5,1,12,10)          157.2585         estimate D2E/DX2                !
 ! D15   D(5,1,12,13)         -119.3784         estimate D2E/DX2                !
 ! D16   D(5,1,12,15)           -6.1906         estimate D2E/DX2                !
 ! D17   D(5,1,12,16)           67.9539         estimate D2E/DX2                !
 ! D18   D(1,4,7,12)            79.2775         estimate D2E/DX2                !
 ! D19   D(1,7,8,9)            -68.6891         estimate D2E/DX2                !
 ! D20   D(3,7,8,9)           -140.5853         estimate D2E/DX2                !
 ! D21   D(4,7,8,9)            -26.5648         estimate D2E/DX2                !
 ! D22   D(10,7,8,9)            86.5144         estimate D2E/DX2                !
 ! D23   D(12,7,8,9)            25.0804         estimate D2E/DX2                !
 ! D24   D(1,7,10,11)          130.5421         estimate D2E/DX2                !
 ! D25   D(3,7,10,11)         -169.5676         estimate D2E/DX2                !
 ! D26   D(4,7,10,11)           70.8666         estimate D2E/DX2                !
 ! D27   D(8,7,10,11)          -29.3003         estimate D2E/DX2                !
 ! D28   D(3,7,12,2)            24.2792         estimate D2E/DX2                !
 ! D29   D(3,7,12,13)          -64.4843         estimate D2E/DX2                !
 ! D30   D(3,7,12,15)          119.1898         estimate D2E/DX2                !
 ! D31   D(3,7,12,16)          178.9739         estimate D2E/DX2                !
 ! D32   D(8,7,12,2)          -143.9552         estimate D2E/DX2                !
 ! D33   D(8,7,12,13)          127.2814         estimate D2E/DX2                !
 ! D34   D(8,7,12,15)          -49.0446         estimate D2E/DX2                !
 ! D35   D(8,7,12,16)           10.7396         estimate D2E/DX2                !
 ! D36   D(11,10,12,1)        -115.691          estimate D2E/DX2                !
 ! D37   D(11,10,12,2)        -161.1157         estimate D2E/DX2                !
 ! D38   D(11,10,12,4)         -64.6668         estimate D2E/DX2                !
 ! D39   D(11,10,12,13)        128.8102         estimate D2E/DX2                !
 ! D40   D(11,10,12,15)         37.8943         estimate D2E/DX2                !
 ! D41   D(11,10,12,16)         14.8166         estimate D2E/DX2                !
 ! D42   D(1,12,13,14)          71.3266         estimate D2E/DX2                !
 ! D43   D(2,12,13,14)          38.6703         estimate D2E/DX2                !
 ! D44   D(7,12,13,14)         136.9148         estimate D2E/DX2                !
 ! D45   D(10,12,13,14)        172.9747         estimate D2E/DX2                !
 ! D46   D(15,12,13,14)        -45.4685         estimate D2E/DX2                !
 ! D47   D(16,12,13,14)       -114.4888         estimate D2E/DX2                !
 ! D48   D(1,12,15,17)         -37.8362         estimate D2E/DX2                !
 ! D49   D(2,12,15,17)           3.1033         estimate D2E/DX2                !
 ! D50   D(4,12,15,17)         -84.6477         estimate D2E/DX2                !
 ! D51   D(7,12,15,17)         -97.0508         estimate D2E/DX2                !
 ! D52   D(10,12,15,17)        168.7756         estimate D2E/DX2                !
 ! D53   D(13,12,15,17)         86.2382         estimate D2E/DX2                !
 ! D54   D(16,12,15,17)       -166.4813         estimate D2E/DX2                !
 --------------------------------------------------------------------------------
 Trust Radius=3.00D-01 FncErr=1.00D-07 GrdErr=1.00D-06 EigMax=2.50D+02 EigMin=1.00D-04
 Number of steps in this run=    102 maximum allowed number of steps=    102.
 GradGradGradGradGradGradGradGradGradGradGradGradGradGradGradGradGradGrad

                          Input orientation:                          
 ---------------------------------------------------------------------
 Center     Atomic      Atomic             Coordinates (Angstroms)
 Number     Number       Type             X           Y           Z
 ---------------------------------------------------------------------
      1         42           0       -0.347239    2.130352   11.509925
      2         16           0        0.527313    4.030461   10.892320
      3         16           0       -2.534227    2.307766   12.253314
      4         16           0       -0.364315    0.842565    9.561217
      5         16           0        1.100439    1.105579   13.036352
      6          1           0        0.320729    0.044439   13.347779
      7         42           0       -2.569444    1.501076   10.087596
      8         16           0       -3.499542   -0.532504    9.391814
      9          1           0       -2.653876   -1.030638    8.463781
     10         16           0       -3.383986    3.154237    8.518786
     11          1           0       -3.496604    2.297951    7.478240
     12         42           0       -0.867538    3.262862    8.859585
     13         16           0       -1.498108    5.545823    8.736312
     14          1           0       -0.329544    6.148525    9.049419
     15         16           0        1.234233    3.297271    7.651708
     16          1           0       -0.962817    2.557647    7.344351
     17          1           0        2.121947    3.625049    8.618725
 ---------------------------------------------------------------------
                    Distance matrix (angstroms):
                    1          2          3          4          5
     1  Mo   0.000000
     2  S    2.180984   0.000000
     3  S    2.316683   3.767361   0.000000
     4  S    2.335840   3.567845   3.755359   0.000000
     5  S    2.340066   3.671550   3.907582   3.780376   0.000000
     6  H    2.859182   4.686185   3.804113   3.929929   1.353127
     7  Mo   2.712416   4.078636   2.311347   2.360785   4.724365
     8  S    4.638341   6.267992   4.145739   3.427705   6.093094
     9  H    4.958974   6.452324   5.051714   3.155209   6.290207
    10  S    4.383730   4.658293   3.922410   3.943210   6.686963
    11  H    5.118698   5.554227   4.871098   4.033383   7.310757
    12  Mo   2.928753   2.582020   3.899674   2.569700   5.096291
    13  S    4.547842   3.323706   4.891611   4.907809   6.705114
    14  H    4.711700   2.935419   5.465986   5.330700   6.585726
    15  S    4.329964   3.396891   6.029526   3.496736   5.815136
    16  H    4.232437   4.120407   5.160396   2.866044   6.226107
    17  H    4.085344   2.806502   6.051895   3.848637   5.187161
                    6          7          8          9         10
     6  H    0.000000
     7  Mo   4.593875   0.000000
     8  S    5.529647   2.341931   0.000000
     9  H    5.818720   3.008900   1.350753   0.000000
    10  S    6.834832   2.420245   3.790460   4.248443   0.000000
    11  H    7.355395   2.881558   3.416614   3.572252   1.352274
    12  Mo   5.649258   2.740143   4.649249   4.667098   2.541742
    13  S    7.405337   4.397011   6.432844   6.682807   3.053447
    14  H    7.493905   5.262485   7.402856   7.568743   4.310098
    15  S    6.622736   4.860846   6.332754   5.874321   4.701088
    16  H    6.633615   3.350072   4.491783   4.121722   2.756316
    17  H    6.199121   5.355184   7.034490   6.671425   5.526930
                   11         12         13         14         15
    11  H    0.000000
    12  Mo   3.122684   0.000000
    13  S    4.015645   2.371650   0.000000
    14  H    5.227408   2.941518   1.351602   0.000000
    15  S    4.838342   2.424375   3.701086   3.539582   0.000000
    16  H    2.550577   1.674019   3.339654   4.025257   2.338491
    17  H    5.884727   3.020962   4.099756   3.544466   1.352995
                   16         17
    16  H    0.000000
    17  H    3.504161   0.000000
 Symmetry turned off by external request.
 Stoichiometry    H6Mo3S8
 Framework group  C1[X(H6Mo3S8)]
 Deg. of freedom    45
 Full point group                 C1      NOp   1
 Rotational constants (GHZ):           0.2719218           0.2517387           0.1765572
 General basis read from cards:  (5D, 7F)
 ======================================================================================================
                                       Pseudopotential Parameters
 ======================================================================================================
  Center     Atomic      Valence      Angular      Power
  Number     Number     Electrons     Momentum     of R      Exponent        Coefficient   SO-Coeffient
 ======================================================================================================
    1         42           14
                                      F and up 
                                                     0      537.9667807       -0.04694920    0.00000000
                                                     1      147.8982938      -20.20800840    0.00000000
                                                     2       45.7358898     -106.21163020    0.00000000
                                                     2       13.2911467      -41.81073680    0.00000000
                                                     2        4.7059961       -4.20541030    0.00000000
                                      S - F
                                                     0      110.2991760        2.80637170    0.00000000
                                                     1       23.2014645       44.51620120    0.00000000
                                                     2        5.3530131       82.77852270    0.00000000
                                      P - F
                                                     0       63.2901397        4.94208760    0.00000000
                                                     1       23.3315302       25.86049760    0.00000000
                                                     2       24.6759423      132.47087420    0.00000000
                                                     2        4.6493040       57.31497940    0.00000000
                                      D - F
                                                     0      104.4839977        3.00545910    0.00000000
                                                     1       66.2307245       26.36378510    0.00000000
                                                     2       39.1283176      183.38491990    0.00000000
                                                     2       13.1164437       98.44530680    0.00000000
                                                     2        3.6280263       22.49013770    0.00000000
    2         16
                                   No pseudopotential on this center.
    3         16
                                   No pseudopotential on this center.
    4         16
                                   No pseudopotential on this center.
    5         16
                                   No pseudopotential on this center.
    6          1
                                   No pseudopotential on this center.
    7         42           14
                                      F and up 
                                                     0      537.9667807       -0.04694920    0.00000000
                                                     1      147.8982938      -20.20800840    0.00000000
                                                     2       45.7358898     -106.21163020    0.00000000
                                                     2       13.2911467      -41.81073680    0.00000000
                                                     2        4.7059961       -4.20541030    0.00000000
                                      S - F
                                                     0      110.2991760        2.80637170    0.00000000
                                                     1       23.2014645       44.51620120    0.00000000
                                                     2        5.3530131       82.77852270    0.00000000
                                      P - F
                                                     0       63.2901397        4.94208760    0.00000000
                                                     1       23.3315302       25.86049760    0.00000000
                                                     2       24.6759423      132.47087420    0.00000000
                                                     2        4.6493040       57.31497940    0.00000000
                                      D - F
                                                     0      104.4839977        3.00545910    0.00000000
                                                     1       66.2307245       26.36378510    0.00000000
                                                     2       39.1283176      183.38491990    0.00000000
                                                     2       13.1164437       98.44530680    0.00000000
                                                     2        3.6280263       22.49013770    0.00000000
    8         16
                                   No pseudopotential on this center.
    9          1
                                   No pseudopotential on this center.
   10         16
                                   No pseudopotential on this center.
   11          1
                                   No pseudopotential on this center.
   12         42           14
                                      F and up 
                                                     0      537.9667807       -0.04694920    0.00000000
                                                     1      147.8982938      -20.20800840    0.00000000
                                                     2       45.7358898     -106.21163020    0.00000000
                                                     2       13.2911467      -41.81073680    0.00000000
                                                     2        4.7059961       -4.20541030    0.00000000
                                      S - F
                                                     0      110.2991760        2.80637170    0.00000000
                                                     1       23.2014645       44.51620120    0.00000000
                                                     2        5.3530131       82.77852270    0.00000000
                                      P - F
                                                     0       63.2901397        4.94208760    0.00000000
                                                     1       23.3315302       25.86049760    0.00000000
                                                     2       24.6759423      132.47087420    0.00000000
                                                     2        4.6493040       57.31497940    0.00000000
                                      D - F
                                                     0      104.4839977        3.00545910    0.00000000
                                                     1       66.2307245       26.36378510    0.00000000
                                                     2       39.1283176      183.38491990    0.00000000
                                                     2       13.1164437       98.44530680    0.00000000
                                                     2        3.6280263       22.49013770    0.00000000
   13         16
                                   No pseudopotential on this center.
   14          1
                                   No pseudopotential on this center.
   15         16
                                   No pseudopotential on this center.
   16          1
                                   No pseudopotential on this center.
   17          1
                                   No pseudopotential on this center.
 ======================================================================================================
   240 basis functions,   605 primitive gaussians,   254 cartesian basis functions
    88 alpha electrons       88 beta electrons
       nuclear repulsion energy      2078.9173555160 Hartrees.
 NAtoms=   17 NActive=   17 NUniq=   17 SFac= 1.00D+00 NAtFMM=   60 NAOKFM=F Big=F
 Integral buffers will be    131072 words long.
 Raffenetti 2 integral format.
 Two-electron integral symmetry is turned off.
 One-electron integrals computed using PRISM.
   1 Symmetry operations used in ECPInt.
 ECPInt:  NShTT=    3403 NPrTT=   23974 LenC2=    3155 LenP2D=   15303.
 LDataN:  DoStor=T MaxTD1= 5 Len=  102
 NBasis=   240 RedAO= T EigKep=  1.24D-03  NBF=   240
 NBsUse=   240 1.00D-06 EigRej= -1.00D+00 NBFU=   240
 Defaulting to unpruned grid for atomic number  42.
 Defaulting to unpruned grid for atomic number  42.
 Defaulting to unpruned grid for atomic number  42.
 ExpMin= 2.47D-02 ExpMax= 2.19D+04 ExpMxC= 3.30D+03 IAcc=3 IRadAn=         5 AccDes= 0.00D+00
 Harris functional with IExCor=  402 and IRadAn=       5 diagonalized for initial guess.
 HarFok:  IExCor=  402 AccDes= 0.00D+00 IRadAn=         5 IDoV= 1 UseB2=F ITyADJ=14
 ICtDFT=  3500011 ScaDFX=  1.000000  1.000000  1.000000  1.000000
 Defaulting to unpruned grid for atomic number  42.
 FoFCou: FMM=F IPFlag=           0 FMFlag=      100000 FMFlg1=           0
         NFxFlg=           0 DoJE=T BraDBF=F KetDBF=T FulRan=T
         wScrn=  0.000000 ICntrl=       500 IOpCl=  0 I1Cent=   200000004 NGrid=           0
         NMat0=    1 NMatS0=      1 NMatT0=    0 NMatD0=    1 NMtDS0=    0 NMtDT0=    0
 Symmetry not used in FoFCou.
 Requested convergence on RMS density matrix=1.00D-08 within 128 cycles.
 Requested convergence on MAX density matrix=1.00D-06.
 Requested convergence on             energy=1.00D-06.
 No special actions if energy rises.
 Defaulting to unpruned grid for atomic number  42.
 Defaulting to unpruned grid for atomic number  42.
 Defaulting to unpruned grid for atomic number  42.
 Defaulting to unpruned grid for atomic number  42.
 Defaulting to unpruned grid for atomic number  42.
 Defaulting to unpruned grid for atomic number  42.
 Defaulting to unpruned grid for atomic number  42.
 Defaulting to unpruned grid for atomic number  42.
 EnCoef did     3 forward-backward iterations
 EnCoef did     2 forward-backward iterations
 EnCoef did     7 forward-backward iterations
 EnCoef did     2 forward-backward iterations
 EnCoef did     6 forward-backward iterations
 EnCoef did     2 forward-backward iterations
 EnCoef did     2 forward-backward iterations
 Restarting incremental Fock formation.
 SCF Done:  E(RB3LYP) =  -3391.99046907     A.U. after   25 cycles
            NFock= 25  Conv=0.33D-08     -V/T= 2.0439

 **********************************************************************

            Population analysis using the SCF Density.

 **********************************************************************

 Alpha  occ. eigenvalues --  -88.92014 -88.90427 -88.89734 -88.89380 -88.88966
 Alpha  occ. eigenvalues --  -88.88787 -88.87367 -88.85695  -7.99717  -7.98101
 Alpha  occ. eigenvalues --   -7.97592  -7.97182  -7.96799  -7.96638  -7.95092
 Alpha  occ. eigenvalues --   -7.93279  -5.95920  -5.95583  -5.95503  -5.94108
 Alpha  occ. eigenvalues --   -5.94094  -5.93952  -5.93566  -5.93546  -5.93488
 Alpha  occ. eigenvalues --   -5.93199  -5.93134  -5.93053  -5.93045  -5.92896
 Alpha  occ. eigenvalues --   -5.92650  -5.92529  -5.92497  -5.92361  -5.91349
 Alpha  occ. eigenvalues --   -5.90951  -5.90829  -5.89588  -5.89247  -5.88883
 Alpha  occ. eigenvalues --   -2.56033  -2.55266  -2.53777  -1.59233  -1.58948
 Alpha  occ. eigenvalues --   -1.58030  -1.57965  -1.57451  -1.56629  -1.56615
 Alpha  occ. eigenvalues --   -1.55363  -1.54953  -0.77599  -0.74836  -0.74337
 Alpha  occ. eigenvalues --   -0.73581  -0.72548  -0.72438  -0.71390  -0.70173
 Alpha  occ. eigenvalues --   -0.47543  -0.45081  -0.44126  -0.43235  -0.42429
 Alpha  occ. eigenvalues --   -0.40241  -0.39660  -0.39483  -0.38857  -0.38215
 Alpha  occ. eigenvalues --   -0.37508  -0.36478  -0.35373  -0.34757  -0.34653
 Alpha  occ. eigenvalues --   -0.33779  -0.33320  -0.31951  -0.31803  -0.30569
 Alpha  occ. eigenvalues --   -0.30222  -0.30058  -0.29708  -0.29179  -0.27126
 Alpha  occ. eigenvalues --   -0.26413  -0.23743  -0.23004
 Alpha virt. eigenvalues --   -0.15553  -0.15144  -0.14634  -0.13139  -0.12734
 Alpha virt. eigenvalues --   -0.12377  -0.10747  -0.09299  -0.08832  -0.07225
 Alpha virt. eigenvalues --   -0.05335  -0.03284  -0.02004  -0.00895   0.00431
 Alpha virt. eigenvalues --    0.01362   0.01606   0.03022   0.03659   0.04321
 Alpha virt. eigenvalues --    0.04660   0.05281   0.05768   0.05937   0.06873
 Alpha virt. eigenvalues --    0.07887   0.08806   0.11541   0.12492   0.14707
 Alpha virt. eigenvalues --    0.16516   0.17004   0.18166   0.18860   0.19613
 Alpha virt. eigenvalues --    0.23542   0.25886   0.26742   0.27737   0.28181
 Alpha virt. eigenvalues --    0.28873   0.29420   0.29684   0.31440   0.31761
 Alpha virt. eigenvalues --    0.32172   0.32820   0.33503   0.34403   0.35130
 Alpha virt. eigenvalues --    0.35222   0.36206   0.36740   0.37580   0.38244
 Alpha virt. eigenvalues --    0.38820   0.39577   0.40143   0.41251   0.41915
 Alpha virt. eigenvalues --    0.42700   0.43859   0.44430   0.45144   0.45474
 Alpha virt. eigenvalues --    0.46821   0.47492   0.48253   0.49501   0.50710
 Alpha virt. eigenvalues --    0.52527   0.53815   0.53859   0.55545   0.56041
 Alpha virt. eigenvalues --    0.58045   0.58918   0.60325   0.61792   0.62747
 Alpha virt. eigenvalues --    0.63151   0.64488   0.66246   0.68777   0.70347
 Alpha virt. eigenvalues --    0.70884   0.71926   0.72372   0.73390   0.73737
 Alpha virt. eigenvalues --    0.74583   0.75294   0.75971   0.76511   0.77328
 Alpha virt. eigenvalues --    0.77879   0.78827   0.80344   0.80870   0.81449
 Alpha virt. eigenvalues --    0.82351   0.82995   0.83923   0.84678   0.85205
 Alpha virt. eigenvalues --    0.87273   0.88361   0.90095   0.91506   0.92453
 Alpha virt. eigenvalues --    0.94270   0.95107   0.97226   0.97574   0.98437
 Alpha virt. eigenvalues --    0.99536   1.01196   1.01826   1.03544   1.04907
 Alpha virt. eigenvalues --    1.05759   1.06479   1.07398   1.08904   1.13241
 Alpha virt. eigenvalues --    1.13684   1.14784   1.15287   1.18617   1.19629
 Alpha virt. eigenvalues --    1.24732   2.05288   2.05859   2.06111   2.06386
 Alpha virt. eigenvalues --    2.07163   2.07998   2.08353   2.09724   2.10120
 Alpha virt. eigenvalues --    2.12383   2.20975   2.25027   2.28230   2.69395
 Alpha virt. eigenvalues --    2.70339   2.71147   2.73166   2.75281   6.50000
 Alpha virt. eigenvalues --    8.47724  10.04850
          Condensed to atoms (all electrons):
               1          2          3          4          5          6
     1  Mo  13.237932   0.284356   0.237844   0.194221   0.296648  -0.029027
     2  S    0.284356  15.702816   0.015882  -0.026671   0.015437  -0.000268
     3  S    0.237844   0.015882  15.618668  -0.007567   0.006438  -0.002705
     4  S    0.194221  -0.026671  -0.007567  15.522675   0.007636  -0.000563
     5  S    0.296648   0.015437   0.006438   0.007636  15.562457   0.264834
     6  H   -0.029027  -0.000268  -0.002705  -0.000563   0.264834   0.659655
     7  Mo  -0.183588  -0.013697   0.210781   0.141934  -0.018155   0.007603
     8  S   -0.004973  -0.000009   0.002719  -0.023951   0.000295   0.000004
     9  H    0.003154   0.000003  -0.000156  -0.002457  -0.000006   0.000000
    10  S    0.002618  -0.001521   0.005494  -0.004993  -0.000042   0.000001
    11  H    0.001542  -0.000060   0.000034  -0.000570  -0.000000  -0.000000
    12  Mo  -0.141502   0.139582  -0.014921   0.059644  -0.014948  -0.000581
    13  S   -0.000120  -0.018431   0.001579  -0.008098  -0.000013   0.000000
    14  H    0.003632  -0.003849  -0.000039   0.000115  -0.000000   0.000000
    15  S   -0.025050  -0.022764  -0.000098  -0.021954  -0.000195  -0.000000
    16  H   -0.000816  -0.004094  -0.000195   0.003622   0.000008   0.000000
    17  H    0.007630  -0.005896  -0.000003  -0.000009  -0.000050   0.000000
               7          8          9         10         11         12
     1  Mo  -0.183588  -0.004973   0.003154   0.002618   0.001542  -0.141502
     2  S   -0.013697  -0.000009   0.000003  -0.001521  -0.000060   0.139582
     3  S    0.210781   0.002719  -0.000156   0.005494   0.000034  -0.014921
     4  S    0.141934  -0.023951  -0.002457  -0.004993  -0.000570   0.059644
     5  S   -0.018155   0.000295  -0.000006  -0.000042  -0.000000  -0.014948
     6  H    0.007603   0.000004   0.000000   0.000001  -0.000000  -0.000581
     7  Mo  13.538725   0.279063  -0.034468   0.218976  -0.039519  -0.078932
     8  S    0.279063  15.627240   0.271998  -0.000957  -0.006122  -0.010411
     9  H   -0.034468   0.271998   0.653803  -0.000267   0.000046   0.004826
    10  S    0.218976  -0.000957  -0.000267  15.425316   0.267324   0.115734
    11  H   -0.039519  -0.006122   0.000046   0.267324   0.651861  -0.010818
    12  Mo  -0.078932  -0.010411   0.004826   0.115734  -0.010818  13.535945
    13  S    0.011866  -0.000046   0.000001  -0.052553   0.000504   0.274879
    14  H   -0.000826  -0.000000  -0.000000   0.002149  -0.000007  -0.032326
    15  S   -0.002313   0.000048   0.000007  -0.002870   0.000083   0.342008
    16  H   -0.002202   0.000356   0.000002   0.007621  -0.004044   0.250747
    17  H    0.000563  -0.000001   0.000000  -0.000012   0.000000  -0.046888
              13         14         15         16         17
     1  Mo  -0.000120   0.003632  -0.025050  -0.000816   0.007630
     2  S   -0.018431  -0.003849  -0.022764  -0.004094  -0.005896
     3  S    0.001579  -0.000039  -0.000098  -0.000195  -0.000003
     4  S   -0.008098   0.000115  -0.021954   0.003622  -0.000009
     5  S   -0.000013  -0.000000  -0.000195   0.000008  -0.000050
     6  H    0.000000   0.000000  -0.000000   0.000000   0.000000
     7  Mo   0.011866  -0.000826  -0.002313  -0.002202   0.000563
     8  S   -0.000046  -0.000000   0.000048   0.000356  -0.000001
     9  H    0.000001  -0.000000   0.000007   0.000002   0.000000
    10  S   -0.052553   0.002149  -0.002870   0.007621  -0.000012
    11  H    0.000504  -0.000007   0.000083  -0.004044   0.000000
    12  Mo   0.274879  -0.032326   0.342008   0.250747  -0.046888
    13  S   15.560996   0.270133  -0.018610   0.008238   0.000617
    14  H    0.270133   0.671494  -0.002082  -0.000060   0.000074
    15  S   -0.018610  -0.002082  15.513199  -0.019816   0.262007
    16  H    0.008238  -0.000060  -0.019816   0.724068   0.002240
    17  H    0.000617   0.000074   0.262007   0.002240   0.719866
 Mulliken charges:
               1
     1  Mo   0.115499
     2  S   -0.060816
     3  S   -0.073752
     4  S    0.166987
     5  S   -0.120345
     6  H    0.101048
     7  Mo  -0.035812
     8  S   -0.135252
     9  H    0.103514
    10  S    0.017983
    11  H    0.139747
    12  Mo  -0.372037
    13  S   -0.030941
    14  H    0.091593
    15  S   -0.001601
    16  H    0.034324
    17  H    0.059862
 Sum of Mulliken charges =  -0.00000
 Mulliken charges with hydrogens summed into heavy atoms:
               1
     1  Mo   0.115499
     2  S   -0.060816
     3  S   -0.073752
     4  S    0.166987
     5  S   -0.019297
     7  Mo  -0.035812
     8  S   -0.031738
    10  S    0.157730
    12  Mo  -0.337714
    13  S    0.060651
    15  S    0.058260
 Electronic spatial extent (au):  <R**2>=          72946.1178
 Charge=             -0.0000 electrons
 Dipole moment (field-independent basis, Debye):
    X=             -1.5832    Y=             -1.9686    Z=              0.9387  Tot=              2.6950
 Quadrupole moment (field-independent basis, Debye-Ang):
   XX=           -176.0121   YY=           -184.6847   ZZ=           -161.2937
   XY=              1.3990   XZ=            -10.7831   YZ=            -15.7294
 Traceless Quadrupole moment (field-independent basis, Debye-Ang):
   XX=             -2.0153   YY=            -10.6878   ZZ=             12.7031
   XY=              1.3990   XZ=            -10.7831   YZ=            -15.7294
 Octapole moment (field-independent basis, Debye-Ang**2):
  XXX=            595.5181  YYY=          -1303.9296  ZZZ=          -5128.0990  XYY=            238.4311
  XXY=           -415.4458  XXZ=          -1784.4724  XZZ=            113.1239  YZZ=           -580.1483
  YYZ=          -1832.0199  XYZ=             19.2183
 Hexadecapole moment (field-independent basis, Debye-Ang**3):
 XXXX=          -4151.7649 YYYY=          -8875.0665 ZZZZ=        -107476.1779 XXXY=           1093.1074
 XXXZ=           5760.6776 YYYX=           1394.2743 YYYZ=         -12555.9537 ZZZX=           4887.4473
 ZZZY=         -14261.0531 XXYY=          -2226.6451 XXZZ=         -19231.5823 YYZZ=         -20241.7624
 XXYZ=          -4055.9220 YYXZ=           2306.5442 ZZXY=            583.5845
 N-N= 2.078917355516D+03 E-N=-1.214953663444D+04  KE= 3.249433865311D+03
   1 Symmetry operations used in ECPInt.
 ECPInt:  NShTT=    3403 NPrTT=   23974 LenC2=    3155 LenP2D=   15303.
 LDataN:  DoStor=T MaxTD1= 6 Len=  172
 Calling FoFJK, ICntrl=      2127 FMM=F ISym2X=0 I1Cent= 0 IOpClX= 0 NMat=1 NMatS=1 NMatT=0.
 Defaulting to unpruned grid for atomic number  42.
 Defaulting to unpruned grid for atomic number  42.
 Defaulting to unpruned grid for atomic number  42.
 Defaulting to unpruned grid for atomic number  42.
 Defaulting to unpruned grid for atomic number  42.
 Defaulting to unpruned grid for atomic number  42.
 Defaulting to unpruned grid for atomic number  42.
 Defaulting to unpruned grid for atomic number  42.
 -------------------------------------------------------------------
 Center     Atomic                   Forces (Hartrees/Bohr)
 Number     Number              X              Y              Z
 -------------------------------------------------------------------
      1       42           0.000020153   -0.000016227    0.000022311
      2       16          -0.000017482   -0.000004036    0.000000059
      3       16           0.000010600    0.000001870   -0.000000647
      4       16          -0.000002246    0.000010905   -0.000009684
      5       16          -0.000004954   -0.000000414    0.000001452
      6        1           0.000002256    0.000000119   -0.000000243
      7       42          -0.000002990   -0.000004502   -0.000001793
      8       16          -0.000000689    0.000000394   -0.000001277
      9        1           0.000000232    0.000000823    0.000001245
     10       16          -0.000032104   -0.000001006    0.000007845
     11        1           0.000019782    0.000000317    0.000002720
     12       42          -0.000008476    0.000011939   -0.000013583
     13       16           0.000020600    0.000006294   -0.000019620
     14        1          -0.000002863   -0.000004786    0.000005030
     15       16           0.000002478    0.000008871    0.000005223
     16        1          -0.000004806   -0.000010275    0.000001787
     17        1           0.000000511   -0.000000284   -0.000000826
 -------------------------------------------------------------------
 Cartesian Forces:  Max     0.000032104 RMS     0.000009835

 GradGradGradGradGradGradGradGradGradGradGradGradGradGradGradGradGradGrad
 Berny optimization.
 FormGI is forming the generalized inverse of G from B-inverse, IUseBI=4.
 Internal  Forces:  Max     0.000019860 RMS     0.000006195
 Search for a local minimum.
 Step number   1 out of a maximum of  102
 All quantities printed in internal units (Hartrees-Bohrs-Radians)
 Mixed Optimization -- En-DIIS/RFO-DIIS
 Second derivative matrix not updated -- first step.
 ITU=  0
     Eigenvalues ---    0.00230   0.00230   0.00230   0.00230   0.01434
     Eigenvalues ---    0.02142   0.03275   0.04020   0.05450   0.06039
     Eigenvalues ---    0.06577   0.06921   0.07249   0.07686   0.08229
     Eigenvalues ---    0.08488   0.08999   0.09616   0.10008   0.11045
     Eigenvalues ---    0.11577   0.11790   0.12459   0.12947   0.13102
     Eigenvalues ---    0.13709   0.14012   0.14082   0.14147   0.14296
     Eigenvalues ---    0.14413   0.15396   0.15819   0.16000   0.16000
     Eigenvalues ---    0.16000   0.16000   0.16609   0.19705   0.20346
     Eigenvalues ---    0.25399   0.25409   0.25464   0.25515   0.25580
 RFO step:  Lambda=-6.39336581D-08 EMin= 2.30000000D-03
 Linear search not attempted -- first point.
 Iteration  1 RMS(Cart)=  0.00018157 RMS(Int)=  0.00000010
 Iteration  2 RMS(Cart)=  0.00000010 RMS(Int)=  0.00000000
 Variable       Old X    -DE/DX   Delta X   Delta X   Delta X     New X
                                 (Linear)    (Quad)   (Total)
    R1        4.12146  -0.00000   0.00000  -0.00003  -0.00003   4.12143
    R2        4.37790  -0.00001   0.00000  -0.00006  -0.00006   4.37784
    R3        4.41410   0.00000   0.00000   0.00002   0.00002   4.41412
    R4        4.42208  -0.00000   0.00000  -0.00001  -0.00001   4.42208
    R5        5.12572   0.00000   0.00000   0.00008   0.00008   5.12580
    R6        5.53454   0.00002   0.00000   0.00018   0.00018   5.53472
    R7        4.87931  -0.00001   0.00000   0.00000   0.00000   4.87931
    R8        4.36781   0.00000   0.00000   0.00002   0.00002   4.36783
    R9        4.46124  -0.00000   0.00000   0.00000   0.00000   4.46124
   R10        4.85603  -0.00001   0.00000  -0.00011  -0.00011   4.85592
   R11        2.55704  -0.00000   0.00000  -0.00000  -0.00000   2.55703
   R12        4.42561  -0.00000   0.00000  -0.00001  -0.00001   4.42560
   R13        4.57360  -0.00000   0.00000   0.00002   0.00002   4.57362
   R14        5.17812   0.00000   0.00000   0.00006   0.00006   5.17818
   R15        2.55255  -0.00000   0.00000  -0.00000  -0.00000   2.55255
   R16        2.55543  -0.00000   0.00000  -0.00002  -0.00002   2.55541
   R17        4.80320   0.00001   0.00000   0.00009   0.00009   4.80329
   R18        4.48177  -0.00000   0.00000  -0.00002  -0.00002   4.48175
   R19        4.58140   0.00000   0.00000   0.00001   0.00001   4.58141
   R20        3.16344   0.00000   0.00000   0.00002   0.00002   3.16346
   R21        2.55416  -0.00000   0.00000  -0.00001  -0.00001   2.55414
   R22        2.55679  -0.00000   0.00000  -0.00000  -0.00000   2.55679
    A1        1.98525  -0.00001   0.00000  -0.00007  -0.00007   1.98518
    A2        1.82038  -0.00000   0.00000  -0.00003  -0.00003   1.82035
    A3        1.89460   0.00001   0.00000   0.00006   0.00006   1.89466
    A4        1.96292  -0.00001   0.00000  -0.00007  -0.00007   1.96285
    A5        1.87866   0.00000   0.00000  -0.00000  -0.00000   1.87865
    A6        1.99132   0.00000   0.00000   0.00000   0.00000   1.99132
    A7        1.66399  -0.00000   0.00000  -0.00001  -0.00001   1.66399
    A8        1.88313   0.00000   0.00000   0.00005   0.00005   1.88318
    A9        2.41478  -0.00000   0.00000   0.00001   0.00001   2.41479
   A10        2.62506   0.00000   0.00000   0.00001   0.00001   2.62506
   A11        1.70830   0.00000   0.00000   0.00002   0.00002   1.70832
   A12        2.32213  -0.00000   0.00000  -0.00002  -0.00002   2.32212
   A13        2.04560   0.00000   0.00000   0.00004   0.00004   2.04564
   A14        1.86716  -0.00000   0.00000  -0.00002  -0.00002   1.86713
   A15        2.19875   0.00000   0.00000  -0.00000  -0.00000   2.19875
   A16        1.95422  -0.00000   0.00000   0.00004   0.00004   1.95425
   A17        1.75794  -0.00000   0.00000   0.00001   0.00001   1.75795
   A18        1.63335  -0.00000   0.00000   0.00002   0.00002   1.63337
   A19        1.93945   0.00000   0.00000  -0.00002  -0.00002   1.93943
   A20        1.84095   0.00000   0.00000  -0.00002  -0.00002   1.84093
   A21        2.30746  -0.00000   0.00000  -0.00001  -0.00001   2.30745
   A22        1.85012  -0.00000   0.00000  -0.00001  -0.00001   1.85010
   A23        1.66522  -0.00001   0.00000  -0.00002  -0.00002   1.66520
   A24        1.78512  -0.00002   0.00000  -0.00029  -0.00029   1.78483
   A25        1.85531  -0.00000   0.00000  -0.00001  -0.00001   1.85530
   A26        2.05612   0.00001   0.00000   0.00010   0.00010   2.05623
   A27        1.87794  -0.00000   0.00000  -0.00005  -0.00005   1.87789
   A28        2.30005  -0.00001   0.00000  -0.00008  -0.00008   2.29997
   A29        1.53004  -0.00000   0.00000  -0.00000  -0.00000   1.53004
   A30        1.74554  -0.00001   0.00000  -0.00006  -0.00006   1.74548
   A31        2.28247  -0.00001   0.00000  -0.00006  -0.00006   2.28241
   A32        1.46900   0.00000   0.00000   0.00001   0.00001   1.46901
   A33        1.49039   0.00000   0.00000   0.00001   0.00001   1.49040
   A34        2.62312   0.00001   0.00000   0.00004   0.00004   2.62315
   A35        1.76220  -0.00000   0.00000  -0.00001  -0.00001   1.76219
   A36        1.55043  -0.00000   0.00000  -0.00001  -0.00001   1.55042
   A37        1.43186  -0.00001   0.00000  -0.00007  -0.00007   1.43179
   A38        2.06811   0.00002   0.00000   0.00015   0.00015   2.06826
   A39        2.45099  -0.00000   0.00000   0.00001   0.00001   2.45099
   A40        1.67040  -0.00001   0.00000  -0.00004  -0.00004   1.67036
   A41        1.33968   0.00001   0.00000   0.00011   0.00011   1.33979
   A42        2.48506   0.00001   0.00000   0.00006   0.00006   2.48512
   A43        1.37381   0.00000   0.00000   0.00002   0.00002   1.37382
   A44        1.76292  -0.00002   0.00000  -0.00015  -0.00015   1.76277
   A45        1.92126  -0.00000   0.00000  -0.00001  -0.00001   1.92126
   A46        1.16403   0.00001   0.00000   0.00006   0.00006   1.16409
   A47        1.75924  -0.00001   0.00000  -0.00006  -0.00006   1.75918
   A48        1.78867   0.00000   0.00000   0.00002   0.00002   1.78868
   A49        2.99905  -0.00000   0.00000   0.00000   0.00000   2.99905
   A50        3.32659  -0.00002   0.00000  -0.00016  -0.00016   3.32642
    D1        3.05847  -0.00000   0.00000   0.00009   0.00009   3.05856
    D2        0.82480   0.00000   0.00000   0.00013   0.00013   0.82493
    D3       -1.26178  -0.00000   0.00000   0.00011   0.00011  -1.26168
    D4       -0.26193  -0.00000   0.00000   0.00014   0.00014  -0.26179
    D5       -2.20522   0.00000   0.00000   0.00014   0.00014  -2.20509
    D6        2.57772   0.00000   0.00000   0.00006   0.00006   2.57779
    D7       -0.09211   0.00000   0.00000   0.00006   0.00006  -0.09205
    D8       -0.38038  -0.00000   0.00000   0.00000   0.00000  -0.38037
    D9       -3.05021  -0.00000   0.00000   0.00000   0.00000  -3.05021
   D10       -0.29465  -0.00000   0.00000  -0.00001  -0.00001  -0.29467
   D11        1.16031   0.00001   0.00000   0.00013   0.00013   1.16044
   D12        3.13581  -0.00000   0.00000  -0.00003  -0.00003   3.13578
   D13       -1.85331   0.00000   0.00000   0.00000   0.00000  -1.85331
   D14        2.74468  -0.00000   0.00000  -0.00001  -0.00001   2.74467
   D15       -2.08355   0.00001   0.00000   0.00013   0.00013  -2.08341
   D16       -0.10805  -0.00001   0.00000  -0.00003  -0.00003  -0.10808
   D17        1.18602   0.00000   0.00000  -0.00000  -0.00000   1.18602
   D18        1.38365   0.00001   0.00000   0.00006   0.00006   1.38371
   D19       -1.19885  -0.00000   0.00000   0.00009   0.00009  -1.19876
   D20       -2.45368   0.00000   0.00000   0.00014   0.00014  -2.45354
   D21       -0.46364   0.00000   0.00000   0.00013   0.00013  -0.46351
   D22        1.50996   0.00000   0.00000   0.00011   0.00011   1.51007
   D23        0.43774  -0.00000   0.00000   0.00011   0.00011   0.43784
   D24        2.27839  -0.00001   0.00000  -0.00031  -0.00031   2.27808
   D25       -2.95951  -0.00001   0.00000  -0.00032  -0.00032  -2.95983
   D26        1.23686  -0.00001   0.00000  -0.00030  -0.00030   1.23656
   D27       -0.51139  -0.00001   0.00000  -0.00030  -0.00030  -0.51169
   D28        0.42375  -0.00000   0.00000  -0.00007  -0.00007   0.42368
   D29       -1.12546  -0.00000   0.00000  -0.00007  -0.00007  -1.12554
   D30        2.08025  -0.00001   0.00000  -0.00012  -0.00012   2.08013
   D31        3.12368  -0.00000   0.00000  -0.00009  -0.00009   3.12359
   D32       -2.51249  -0.00000   0.00000  -0.00004  -0.00004  -2.51254
   D33        2.22148  -0.00000   0.00000  -0.00004  -0.00004   2.22143
   D34       -0.85599  -0.00000   0.00000  -0.00010  -0.00010  -0.85609
   D35        0.18744  -0.00000   0.00000  -0.00006  -0.00006   0.18738
   D36       -2.01919   0.00000   0.00000  -0.00008  -0.00008  -2.01927
   D37       -2.81200   0.00001   0.00000  -0.00006  -0.00006  -2.81206
   D38       -1.12865   0.00000   0.00000  -0.00009  -0.00009  -1.12874
   D39        2.24816  -0.00001   0.00000  -0.00021  -0.00021   2.24795
   D40        0.66138   0.00000   0.00000  -0.00009  -0.00009   0.66129
   D41        0.25860  -0.00000   0.00000  -0.00016  -0.00016   0.25843
   D42        1.24488  -0.00001   0.00000  -0.00106  -0.00106   1.24383
   D43        0.67492   0.00001   0.00000  -0.00092  -0.00092   0.67401
   D44        2.38961  -0.00000   0.00000  -0.00098  -0.00098   2.38863
   D45        3.01898  -0.00001   0.00000  -0.00103  -0.00103   3.01795
   D46       -0.79358   0.00000   0.00000  -0.00095  -0.00095  -0.79452
   D47       -1.99821  -0.00000   0.00000  -0.00096  -0.00096  -1.99917
   D48       -0.66037  -0.00000   0.00000   0.00007   0.00007  -0.66030
   D49        0.05416  -0.00000   0.00000   0.00006   0.00006   0.05422
   D50       -1.47738  -0.00000   0.00000   0.00006   0.00006  -1.47732
   D51       -1.69386   0.00000   0.00000   0.00014   0.00014  -1.69372
   D52        2.94569  -0.00000   0.00000   0.00007   0.00007   2.94576
   D53        1.50514   0.00000   0.00000   0.00009   0.00009   1.50523
   D54       -2.90565   0.00001   0.00000   0.00014   0.00014  -2.90551
         Item               Value     Threshold  Converged?
 Maximum Force            0.000020     0.000450     YES
 RMS     Force            0.000006     0.000300     YES
 Maximum Displacement     0.001522     0.001800     YES
 RMS     Displacement     0.000182     0.001200     YES
 Predicted change in Energy=-3.196694D-08
 Optimization completed.
    -- Stationary point found.
                           ----------------------------
                           !   Optimized Parameters   !
                           ! (Angstroms and Degrees)  !
 --------------------------                            --------------------------
 ! Name  Definition              Value          Derivative Info.                !
 --------------------------------------------------------------------------------
 ! R1    R(1,2)                  2.181          -DE/DX =    0.0                 !
 ! R2    R(1,3)                  2.3167         -DE/DX =    0.0                 !
 ! R3    R(1,4)                  2.3358         -DE/DX =    0.0                 !
 ! R4    R(1,5)                  2.3401         -DE/DX =    0.0                 !
 ! R5    R(1,7)                  2.7124         -DE/DX =    0.0                 !
 ! R6    R(1,12)                 2.9288         -DE/DX =    0.0                 !
 ! R7    R(2,12)                 2.582          -DE/DX =    0.0                 !
 ! R8    R(3,7)                  2.3113         -DE/DX =    0.0                 !
 ! R9    R(4,7)                  2.3608         -DE/DX =    0.0                 !
 ! R10   R(4,12)                 2.5697         -DE/DX =    0.0                 !
 ! R11   R(5,6)                  1.3531         -DE/DX =    0.0                 !
 ! R12   R(7,8)                  2.3419         -DE/DX =    0.0                 !
 ! R13   R(7,10)                 2.4202         -DE/DX =    0.0                 !
 ! R14   R(7,12)                 2.7401         -DE/DX =    0.0                 !
 ! R15   R(8,9)                  1.3508         -DE/DX =    0.0                 !
 ! R16   R(10,11)                1.3523         -DE/DX =    0.0                 !
 ! R17   R(10,12)                2.5417         -DE/DX =    0.0                 !
 ! R18   R(12,13)                2.3717         -DE/DX =    0.0                 !
 ! R19   R(12,15)                2.4244         -DE/DX =    0.0                 !
 ! R20   R(12,16)                1.674          -DE/DX =    0.0                 !
 ! R21   R(13,14)                1.3516         -DE/DX =    0.0                 !
 ! R22   R(15,17)                1.353          -DE/DX =    0.0                 !
 ! A1    A(2,1,3)              113.7464         -DE/DX =    0.0                 !
 ! A2    A(2,1,4)              104.3002         -DE/DX =    0.0                 !
 ! A3    A(2,1,5)              108.5524         -DE/DX =    0.0                 !
 ! A4    A(2,1,7)              112.4668         -DE/DX =    0.0                 !
 ! A5    A(3,1,4)              107.6392         -DE/DX =    0.0                 !
 ! A6    A(3,1,5)              114.0942         -DE/DX =    0.0                 !
 ! A7    A(3,1,12)              95.3398         -DE/DX =    0.0                 !
 ! A8    A(4,1,5)              107.8953         -DE/DX =    0.0                 !
 ! A9    A(5,1,7)              138.3566         -DE/DX =    0.0                 !
 ! A10   A(5,1,12)             150.4047         -DE/DX =    0.0                 !
 ! A11   A(1,5,6)               97.8785         -DE/DX =    0.0                 !
 ! A12   A(1,7,8)              133.0485         -DE/DX =    0.0                 !
 ! A13   A(1,7,10)             117.2042         -DE/DX =    0.0                 !
 ! A14   A(3,7,4)              106.9801         -DE/DX =    0.0                 !
 ! A15   A(3,7,8)              125.9791         -DE/DX =    0.0                 !
 ! A16   A(3,7,10)             111.9684         -DE/DX =    0.0                 !
 ! A17   A(3,7,12)             100.7227         -DE/DX =    0.0                 !
 ! A18   A(4,7,8)               93.5839         -DE/DX =    0.0                 !
 ! A19   A(4,7,10)             111.1226         -DE/DX =    0.0                 !
 ! A20   A(8,7,10)             105.4786         -DE/DX =    0.0                 !
 ! A21   A(8,7,12)             132.208          -DE/DX =    0.0                 !
 ! A22   A(7,8,9)              106.0039         -DE/DX =    0.0                 !
 ! A23   A(7,10,11)             95.4101         -DE/DX =    0.0                 !
 ! A24   A(11,10,12)           102.2798         -DE/DX =    0.0                 !
 ! A25   A(1,12,10)            106.3016         -DE/DX =    0.0                 !
 ! A26   A(1,12,13)            117.8071         -DE/DX =    0.0                 !
 ! A27   A(1,12,15)            107.598          -DE/DX =    0.0                 !
 ! A28   A(1,12,16)            131.7832         -DE/DX =    0.0                 !
 ! A29   A(2,12,4)              87.6649         -DE/DX =    0.0                 !
 ! A30   A(2,12,7)             100.0119         -DE/DX =    0.0                 !
 ! A31   A(2,12,10)            130.776          -DE/DX =    0.0                 !
 ! A32   A(2,12,13)             84.1677         -DE/DX =    0.0                 !
 ! A33   A(2,12,15)             85.3931         -DE/DX =    0.0                 !
 ! A34   A(2,12,16)            150.2936         -DE/DX =    0.0                 !
 ! A35   A(4,12,10)            100.9667         -DE/DX =    0.0                 !
 ! A36   A(4,12,15)             88.8329         -DE/DX =    0.0                 !
 ! A37   A(4,12,16)             82.0395         -DE/DX =    0.0                 !
 ! A38   A(7,12,13)            118.494          -DE/DX =    0.0                 !
 ! A39   A(7,12,15)            140.4312         -DE/DX =    0.0                 !
 ! A40   A(7,12,16)             95.7068         -DE/DX =    0.0                 !
 ! A41   A(10,12,13)            76.7581         -DE/DX =    0.0                 !
 ! A42   A(10,12,15)           142.3832         -DE/DX =    0.0                 !
 ! A43   A(10,12,16)            78.7134         -DE/DX =    0.0                 !
 ! A44   A(13,12,15)           101.0076         -DE/DX =    0.0                 !
 ! A45   A(13,12,16)           110.0803         -DE/DX =    0.0                 !
 ! A46   A(15,12,16)            66.6939         -DE/DX =    0.0                 !
 ! A47   A(12,13,14)           100.7969         -DE/DX =    0.0                 !
 ! A48   A(12,15,17)           102.4831         -DE/DX =    0.0                 !
 ! A49   L(4,12,13,2,-1)       171.8326         -DE/DX =    0.0                 !
 ! A50   L(4,12,13,2,-2)       190.5994         -DE/DX =    0.0                 !
 ! D1    D(2,1,5,6)            175.2377         -DE/DX =    0.0                 !
 ! D2    D(3,1,5,6)             47.2575         -DE/DX =    0.0                 !
 ! D3    D(4,1,5,6)            -72.2949         -DE/DX =    0.0                 !
 ! D4    D(7,1,5,6)            -15.0075         -DE/DX =    0.0                 !
 ! D5    D(12,1,5,6)          -126.35           -DE/DX =    0.0                 !
 ! D6    D(2,1,7,8)            147.6926         -DE/DX =    0.0                 !
 ! D7    D(2,1,7,10)            -5.2775         -DE/DX =    0.0                 !
 ! D8    D(5,1,7,8)            -21.7939         -DE/DX =    0.0                 !
 ! D9    D(5,1,7,10)          -174.764          -DE/DX =    0.0                 !
 ! D10   D(3,1,12,10)          -16.8824         -DE/DX =    0.0                 !
 ! D11   D(3,1,12,13)           66.4806         -DE/DX =    0.0                 !
 ! D12   D(3,1,12,15)          179.6685         -DE/DX =    0.0                 !
 ! D13   D(3,1,12,16)         -106.187          -DE/DX =    0.0                 !
 ! D14   D(5,1,12,10)          157.2585         -DE/DX =    0.0                 !
 ! D15   D(5,1,12,13)         -119.3784         -DE/DX =    0.0                 !
 ! D16   D(5,1,12,15)           -6.1906         -DE/DX =    0.0                 !
 ! D17   D(5,1,12,16)           67.9539         -DE/DX =    0.0                 !
 ! D18   D(1,4,7,12)            79.2775         -DE/DX =    0.0                 !
 ! D19   D(1,7,8,9)            -68.6891         -DE/DX =    0.0                 !
 ! D20   D(3,7,8,9)           -140.5853         -DE/DX =    0.0                 !
 ! D21   D(4,7,8,9)            -26.5648         -DE/DX =    0.0                 !
 ! D22   D(10,7,8,9)            86.5144         -DE/DX =    0.0                 !
 ! D23   D(12,7,8,9)            25.0804         -DE/DX =    0.0                 !
 ! D24   D(1,7,10,11)          130.5421         -DE/DX =    0.0                 !
 ! D25   D(3,7,10,11)         -169.5676         -DE/DX =    0.0                 !
 ! D26   D(4,7,10,11)           70.8666         -DE/DX =    0.0                 !
 ! D27   D(8,7,10,11)          -29.3003         -DE/DX =    0.0                 !
 ! D28   D(3,7,12,2)            24.2792         -DE/DX =    0.0                 !
 ! D29   D(3,7,12,13)          -64.4843         -DE/DX =    0.0                 !
 ! D30   D(3,7,12,15)          119.1898         -DE/DX =    0.0                 !
 ! D31   D(3,7,12,16)          178.9739         -DE/DX =    0.0                 !
 ! D32   D(8,7,12,2)          -143.9552         -DE/DX =    0.0                 !
 ! D33   D(8,7,12,13)          127.2814         -DE/DX =    0.0                 !
 ! D34   D(8,7,12,15)          -49.0446         -DE/DX =    0.0                 !
 ! D35   D(8,7,12,16)           10.7396         -DE/DX =    0.0                 !
 ! D36   D(11,10,12,1)        -115.691          -DE/DX =    0.0                 !
 ! D37   D(11,10,12,2)        -161.1157         -DE/DX =    0.0                 !
 ! D38   D(11,10,12,4)         -64.6668         -DE/DX =    0.0                 !
 ! D39   D(11,10,12,13)        128.8102         -DE/DX =    0.0                 !
 ! D40   D(11,10,12,15)         37.8943         -DE/DX =    0.0                 !
 ! D41   D(11,10,12,16)         14.8166         -DE/DX =    0.0                 !
 ! D42   D(1,12,13,14)          71.3266         -DE/DX =    0.0                 !
 ! D43   D(2,12,13,14)          38.6703         -DE/DX =    0.0                 !
 ! D44   D(7,12,13,14)         136.9148         -DE/DX =    0.0                 !
 ! D45   D(10,12,13,14)        172.9747         -DE/DX =    0.0                 !
 ! D46   D(15,12,13,14)        -45.4685         -DE/DX =    0.0                 !
 ! D47   D(16,12,13,14)       -114.4888         -DE/DX =    0.0                 !
 ! D48   D(1,12,15,17)         -37.8362         -DE/DX =    0.0                 !
 ! D49   D(2,12,15,17)           3.1033         -DE/DX =    0.0                 !
 ! D50   D(4,12,15,17)         -84.6477         -DE/DX =    0.0                 !
 ! D51   D(7,12,15,17)         -97.0508         -DE/DX =    0.0                 !
 ! D52   D(10,12,15,17)        168.7756         -DE/DX =    0.0                 !
 ! D53   D(13,12,15,17)         86.2382         -DE/DX =    0.0                 !
 ! D54   D(16,12,15,17)       -166.4813         -DE/DX =    0.0                 !
 --------------------------------------------------------------------------------
 GradGradGradGradGradGradGradGradGradGradGradGradGradGradGradGradGradGrad

                          Input orientation:                          
 ---------------------------------------------------------------------
 Center     Atomic      Atomic             Coordinates (Angstroms)
 Number     Number       Type             X           Y           Z
 ---------------------------------------------------------------------
      1         42           0       -0.347239    2.130352   11.509925
      2         16           0        0.527313    4.030461   10.892320
      3         16           0       -2.534227    2.307766   12.253314
      4         16           0       -0.364315    0.842565    9.561217
      5         16           0        1.100439    1.105579   13.036352
      6          1           0        0.320729    0.044439   13.347779
      7         42           0       -2.569444    1.501076   10.087596
      8         16           0       -3.499542   -0.532504    9.391814
      9          1           0       -2.653876   -1.030638    8.463781
     10         16           0       -3.383986    3.154237    8.518786
     11          1           0       -3.496604    2.297951    7.478240
     12         42           0       -0.867538    3.262862    8.859585
     13         16           0       -1.498108    5.545823    8.736312
     14          1           0       -0.329544    6.148525    9.049419
     15         16           0        1.234233    3.297271    7.651708
     16          1           0       -0.962817    2.557647    7.344351
     17          1           0        2.121947    3.625049    8.618725
 ---------------------------------------------------------------------
                    Distance matrix (angstroms):
                    1          2          3          4          5
     1  Mo   0.000000
     2  S    2.180984   0.000000
     3  S    2.316683   3.767361   0.000000
     4  S    2.335840   3.567845   3.755359   0.000000
     5  S    2.340066   3.671550   3.907582   3.780376   0.000000
     6  H    2.859182   4.686185   3.804113   3.929929   1.353127
     7  Mo   2.712416   4.078636   2.311347   2.360785   4.724365
     8  S    4.638341   6.267992   4.145739   3.427705   6.093094
     9  H    4.958974   6.452324   5.051714   3.155209   6.290207
    10  S    4.383730   4.658293   3.922410   3.943210   6.686963
    11  H    5.118698   5.554227   4.871098   4.033383   7.310757
    12  Mo   2.928753   2.582020   3.899674   2.569700   5.096291
    13  S    4.547842   3.323706   4.891611   4.907809   6.705114
    14  H    4.711700   2.935419   5.465986   5.330700   6.585726
    15  S    4.329964   3.396891   6.029526   3.496736   5.815136
    16  H    4.232437   4.120407   5.160396   2.866044   6.226107
    17  H    4.085344   2.806502   6.051895   3.848637   5.187161
                    6          7          8          9         10
     6  H    0.000000
     7  Mo   4.593875   0.000000
     8  S    5.529647   2.341931   0.000000
     9  H    5.818720   3.008900   1.350753   0.000000
    10  S    6.834832   2.420245   3.790460   4.248443   0.000000
    11  H    7.355395   2.881558   3.416614   3.572252   1.352274
    12  Mo   5.649258   2.740143   4.649249   4.667098   2.541742
    13  S    7.405337   4.397011   6.432844   6.682807   3.053447
    14  H    7.493905   5.262485   7.402856   7.568743   4.310098
    15  S    6.622736   4.860846   6.332754   5.874321   4.701088
    16  H    6.633615   3.350072   4.491783   4.121722   2.756316
    17  H    6.199121   5.355184   7.034490   6.671425   5.526930
                   11         12         13         14         15
    11  H    0.000000
    12  Mo   3.122684   0.000000
    13  S    4.015645   2.371650   0.000000
    14  H    5.227408   2.941518   1.351602   0.000000
    15  S    4.838342   2.424375   3.701086   3.539582   0.000000
    16  H    2.550577   1.674019   3.339654   4.025257   2.338491
    17  H    5.884727   3.020962   4.099756   3.544466   1.352995
                   16         17
    16  H    0.000000
    17  H    3.504161   0.000000
 Symmetry turned off by external request.
 Stoichiometry    H6Mo3S8
 Framework group  C1[X(H6Mo3S8)]
 Deg. of freedom    45
 Full point group                 C1      NOp   1
 Rotational constants (GHZ):           0.2719218           0.2517387           0.1765572
 Unable to Open any file for archive entry.
 1\1\GINC-NODE2\FOpt\RB3LYP\Gen\H6Mo3S8\CHEGHO\08-Jul-2023\0\\# opt fre
 q b3lyp/gen nosymm pseudo=read\\Title Card Required\\0,1\Mo,-0.347239,
 2.130352,11.509925\S,0.527313,4.030461,10.89232\S,-2.534227,2.307766,1
 2.253314\S,-0.364315,0.842565,9.561217\S,1.100439,1.105579,13.036352\H
 ,0.320729,0.044439,13.347779\Mo,-2.569444,1.501076,10.087596\S,-3.4995
 42,-0.532504,9.391814\H,-2.653876,-1.030638,8.463781\S,-3.383986,3.154
 237,8.518786\H,-3.496604,2.297951,7.47824\Mo,-0.867538,3.262862,8.8595
 85\S,-1.498108,5.545823,8.736312\H,-0.329544,6.148525,9.049419\S,1.234
 233,3.297271,7.651708\H,-0.962817,2.557647,7.344351\H,2.121947,3.62504
 9,8.618725\\Version=ES64L-G16RevC.01\HF=-3391.9904691\RMSD=3.289e-09\R
 MSF=9.835e-06\Dipole=-0.6228943,-0.7744905,0.3693019\Quadrupole=-1.498
 2961,-7.9461341,9.4444302,1.0401412,-8.0169717,-11.6944295\PG=C01 [X(H
 6Mo3S8)]\\@
 The archive entry for this job was punched.


 A COMPLEXITY IS MERELY A DISARRANGEMENT OF SIMPLICITIES.

                                    -- G. O. ABELL IN "EXPLORATION OF THE UNIVERSE"
 Job cpu time:       0 days  0 hours  6 minutes 42.8 seconds.
 Elapsed time:       0 days  0 hours  0 minutes 50.9 seconds.
 File lengths (MBytes):  RWF=     49 Int=      0 D2E=      0 Chk=      6 Scr=      2
 Normal termination of Gaussian 16 at Sat Jul  8 01:25:57 2023.
 Link1:  Proceeding to internal job step number  2.
 ------------------------------------------------------------------
 #N Geom=AllCheck Guess=TCheck SCRF=Check GenChk RB3LYP/ChkBas Freq
 ------------------------------------------------------------------
 1/10=4,29=7,30=1,38=1,40=1/1,3;
 2/12=2,15=1,40=1/2;
 3/5=7,6=2,11=2,14=-4,16=1,17=8,25=1,30=1,67=1,70=2,71=2,74=-5,82=7,116=1,140=1/1,2,3;
 4/5=101/1;
 5/5=2,38=6,98=1/2;
 8/6=4,10=90,11=11/1;
 11/6=1,8=1,9=11,15=111,16=1,31=1/1,2,10;
 10/6=1,31=1/2;
 6/7=2,8=2,9=2,10=2,28=1/1;
 7/8=1,10=1,25=1,30=1/1,2,3,16;
 1/10=4,30=1/3;
 99//99;
 Structure from the checkpoint file:  "/localscratch/chegho/Gau-200676.chk"
 -------------------
 Title Card Required
 -------------------
 Charge =  0 Multiplicity = 1
 Redundant internal coordinates found in file.  (old form).
 Mo,0,-0.347239,2.130352,11.509925
 S,0,0.527313,4.030461,10.89232
 S,0,-2.534227,2.307766,12.253314
 S,0,-0.364315,0.842565,9.561217
 S,0,1.100439,1.105579,13.036352
 H,0,0.320729,0.044439,13.347779
 Mo,0,-2.569444,1.501076,10.087596
 S,0,-3.499542,-0.532504,9.391814
 H,0,-2.653876,-1.030638,8.463781
 S,0,-3.383986,3.154237,8.518786
 H,0,-3.496604,2.297951,7.47824
 Mo,0,-0.867538,3.262862,8.859585
 S,0,-1.498108,5.545823,8.736312
 H,0,-0.329544,6.148525,9.049419
 S,0,1.234233,3.297271,7.651708
 H,0,-0.962817,2.557647,7.344351
 H,0,2.121947,3.625049,8.618725
 Recover connectivity data from disk.

 GradGradGradGradGradGradGradGradGradGradGradGradGradGradGradGradGradGrad
 Berny optimization.
 Initialization pass.
                           ----------------------------
                           !    Initial Parameters    !
                           ! (Angstroms and Degrees)  !
 --------------------------                            --------------------------
 ! Name  Definition              Value          Derivative Info.                !
 --------------------------------------------------------------------------------
 ! R1    R(1,2)                  2.181          calculate D2E/DX2 analytically  !
 ! R2    R(1,3)                  2.3167         calculate D2E/DX2 analytically  !
 ! R3    R(1,4)                  2.3358         calculate D2E/DX2 analytically  !
 ! R4    R(1,5)                  2.3401         calculate D2E/DX2 analytically  !
 ! R5    R(1,7)                  2.7124         calculate D2E/DX2 analytically  !
 ! R6    R(1,12)                 2.9288         calculate D2E/DX2 analytically  !
 ! R7    R(2,12)                 2.582          calculate D2E/DX2 analytically  !
 ! R8    R(3,7)                  2.3113         calculate D2E/DX2 analytically  !
 ! R9    R(4,7)                  2.3608         calculate D2E/DX2 analytically  !
 ! R10   R(4,12)                 2.5697         calculate D2E/DX2 analytically  !
 ! R11   R(5,6)                  1.3531         calculate D2E/DX2 analytically  !
 ! R12   R(7,8)                  2.3419         calculate D2E/DX2 analytically  !
 ! R13   R(7,10)                 2.4202         calculate D2E/DX2 analytically  !
 ! R14   R(7,12)                 2.7401         calculate D2E/DX2 analytically  !
 ! R15   R(8,9)                  1.3508         calculate D2E/DX2 analytically  !
 ! R16   R(10,11)                1.3523         calculate D2E/DX2 analytically  !
 ! R17   R(10,12)                2.5417         calculate D2E/DX2 analytically  !
 ! R18   R(12,13)                2.3717         calculate D2E/DX2 analytically  !
 ! R19   R(12,15)                2.4244         calculate D2E/DX2 analytically  !
 ! R20   R(12,16)                1.674          calculate D2E/DX2 analytically  !
 ! R21   R(13,14)                1.3516         calculate D2E/DX2 analytically  !
 ! R22   R(15,17)                1.353          calculate D2E/DX2 analytically  !
 ! A1    A(2,1,3)              113.7464         calculate D2E/DX2 analytically  !
 ! A2    A(2,1,4)              104.3002         calculate D2E/DX2 analytically  !
 ! A3    A(2,1,5)              108.5524         calculate D2E/DX2 analytically  !
 ! A4    A(2,1,7)              112.4668         calculate D2E/DX2 analytically  !
 ! A5    A(3,1,4)              107.6392         calculate D2E/DX2 analytically  !
 ! A6    A(3,1,5)              114.0942         calculate D2E/DX2 analytically  !
 ! A7    A(3,1,12)              95.3398         calculate D2E/DX2 analytically  !
 ! A8    A(4,1,5)              107.8953         calculate D2E/DX2 analytically  !
 ! A9    A(5,1,7)              138.3566         calculate D2E/DX2 analytically  !
 ! A10   A(5,1,12)             150.4047         calculate D2E/DX2 analytically  !
 ! A11   A(1,5,6)               97.8785         calculate D2E/DX2 analytically  !
 ! A12   A(1,7,8)              133.0485         calculate D2E/DX2 analytically  !
 ! A13   A(1,7,10)             117.2042         calculate D2E/DX2 analytically  !
 ! A14   A(3,7,4)              106.9801         calculate D2E/DX2 analytically  !
 ! A15   A(3,7,8)              125.9791         calculate D2E/DX2 analytically  !
 ! A16   A(3,7,10)             111.9684         calculate D2E/DX2 analytically  !
 ! A17   A(3,7,12)             100.7227         calculate D2E/DX2 analytically  !
 ! A18   A(4,7,8)               93.5839         calculate D2E/DX2 analytically  !
 ! A19   A(4,7,10)             111.1226         calculate D2E/DX2 analytically  !
 ! A20   A(8,7,10)             105.4786         calculate D2E/DX2 analytically  !
 ! A21   A(8,7,12)             132.208          calculate D2E/DX2 analytically  !
 ! A22   A(7,8,9)              106.0039         calculate D2E/DX2 analytically  !
 ! A23   A(7,10,11)             95.4101         calculate D2E/DX2 analytically  !
 ! A24   A(11,10,12)           102.2798         calculate D2E/DX2 analytically  !
 ! A25   A(1,12,10)            106.3016         calculate D2E/DX2 analytically  !
 ! A26   A(1,12,13)            117.8071         calculate D2E/DX2 analytically  !
 ! A27   A(1,12,15)            107.598          calculate D2E/DX2 analytically  !
 ! A28   A(1,12,16)            131.7832         calculate D2E/DX2 analytically  !
 ! A29   A(2,12,4)              87.6649         calculate D2E/DX2 analytically  !
 ! A30   A(2,12,7)             100.0119         calculate D2E/DX2 analytically  !
 ! A31   A(2,12,10)            130.776          calculate D2E/DX2 analytically  !
 ! A32   A(2,12,13)             84.1677         calculate D2E/DX2 analytically  !
 ! A33   A(2,12,15)             85.3931         calculate D2E/DX2 analytically  !
 ! A34   A(2,12,16)            150.2936         calculate D2E/DX2 analytically  !
 ! A35   A(4,12,10)            100.9667         calculate D2E/DX2 analytically  !
 ! A36   A(4,12,15)             88.8329         calculate D2E/DX2 analytically  !
 ! A37   A(4,12,16)             82.0395         calculate D2E/DX2 analytically  !
 ! A38   A(7,12,13)            118.494          calculate D2E/DX2 analytically  !
 ! A39   A(7,12,15)            140.4312         calculate D2E/DX2 analytically  !
 ! A40   A(7,12,16)             95.7068         calculate D2E/DX2 analytically  !
 ! A41   A(10,12,13)            76.7581         calculate D2E/DX2 analytically  !
 ! A42   A(10,12,15)           142.3832         calculate D2E/DX2 analytically  !
 ! A43   A(10,12,16)            78.7134         calculate D2E/DX2 analytically  !
 ! A44   A(13,12,15)           101.0076         calculate D2E/DX2 analytically  !
 ! A45   A(13,12,16)           110.0803         calculate D2E/DX2 analytically  !
 ! A46   A(15,12,16)            66.6939         calculate D2E/DX2 analytically  !
 ! A47   A(12,13,14)           100.7969         calculate D2E/DX2 analytically  !
 ! A48   A(12,15,17)           102.4831         calculate D2E/DX2 analytically  !
 ! A49   L(4,12,13,2,-1)       171.8326         calculate D2E/DX2 analytically  !
 ! A50   L(4,12,13,2,-2)       190.5994         calculate D2E/DX2 analytically  !
 ! D1    D(2,1,5,6)            175.2377         calculate D2E/DX2 analytically  !
 ! D2    D(3,1,5,6)             47.2575         calculate D2E/DX2 analytically  !
 ! D3    D(4,1,5,6)            -72.2949         calculate D2E/DX2 analytically  !
 ! D4    D(7,1,5,6)            -15.0075         calculate D2E/DX2 analytically  !
 ! D5    D(12,1,5,6)          -126.35           calculate D2E/DX2 analytically  !
 ! D6    D(2,1,7,8)            147.6926         calculate D2E/DX2 analytically  !
 ! D7    D(2,1,7,10)            -5.2775         calculate D2E/DX2 analytically  !
 ! D8    D(5,1,7,8)            -21.7939         calculate D2E/DX2 analytically  !
[...]
   zy        -0.611951D+01     -0.906818D+00     -0.100897D+01
   zz         0.354115D+03      0.524744D+02      0.583857D+02

 ----------------------------------------------------------------------
 Unable to Open any file for archive entry.
 1\1\GINC-NODE2\Freq\RB3LYP\Gen\H6Mo3S8\CHEGHO\08-Jul-2023\0\\#N Geom=A
 llCheck Guess=TCheck SCRF=Check GenChk RB3LYP/ChkBas Freq\\Title Card 
 Required\\0,1\Mo,-0.347239,2.130352,11.509925\S,0.527313,4.030461,10.8
 9232\S,-2.534227,2.307766,12.253314\S,-0.364315,0.842565,9.561217\S,1.
 100439,1.105579,13.036352\H,0.320729,0.044439,13.347779\Mo,-2.569444,1
 .501076,10.087596\S,-3.499542,-0.532504,9.391814\H,-2.653876,-1.030638
 ,8.463781\S,-3.383986,3.154237,8.518786\H,-3.496604,2.297951,7.47824\M
 o,-0.867538,3.262862,8.859585\S,-1.498108,5.545823,8.736312\H,-0.32954
 4,6.148525,9.049419\S,1.234233,3.297271,7.651708\H,-0.962817,2.557647,
 7.344351\H,2.121947,3.625049,8.618725\\Version=ES64L-G16RevC.01\HF=-33
 91.9904691\RMSD=1.836e-09\RMSF=9.833e-06\ZeroPoint=0.0631569\Thermal=0
 .0837167\ETot=-3391.9067523\HTot=-3391.9058082\GTot=-3391.979133\Dipol
 e=-0.6228945,-0.7744891,0.3693002\DipoleDeriv=0.9434481,-0.2317456,0.6
 353237,0.0128462,0.5924257,-0.1435976,0.2829908,-0.4562213,0.8012599,-
 0.2109468,-0.2233456,-0.1889201,-0.4199079,-0.3906535,-0.128388,0.1729
 421,0.1093837,-0.0041114,-0.3414587,-0.0112403,0.1049171,0.0727111,0.0
 314521,-0.1452602,0.2616045,-0.1057453,-0.3676016,-0.0414363,0.0662948
 ,0.0469647,0.0356076,-0.3450077,0.0025008,0.1532114,0.1191713,-0.10343
 97,-0.3818533,0.3982456,-0.5669975,0.3409302,-0.2655094,0.3521063,-0.3
 536358,0.329177,-0.7237776,0.0034034,-0.0705873,-0.0208323,-0.0559868,
 0.0709276,-0.0025012,-0.0504448,-0.034339,0.1211157,0.6761637,0.392512
 1,0.2835231,0.5289383,0.9374125,0.3232695,0.1325393,0.306408,0.5688195
 ,-0.2818765,-0.4470105,-0.2299752,-0.5580712,-0.8390695,-0.2628185,-0.
 2762795,-0.274583,-0.2094888,-0.0278599,0.0392356,0.0967168,-0.0325658
 ,0.098588,0.0249732,-0.008518,-0.0168898,0.1096773,-0.2643169,-0.01132
 9,-0.1233783,0.0092486,-0.0557865,0.2416705,-0.1147672,0.2154326,0.013
 9359,0.0262273,0.046538,0.0647522,-0.0084018,0.0190843,-0.0602351,-0.0
 168194,-0.0348287,0.0955869,0.3117912,-0.084373,-0.6442126,-0.1213164,
 0.8587804,-0.3402898,-0.5107282,-0.2490109,0.0776406,0.0778014,0.24043
 86,0.1137113,0.1965527,-0.825092,0.1499014,0.1587842,0.1275497,-0.1487
 408,-0.0451738,-0.0137792,-0.0523707,0.0531305,0.0655558,0.0463802,-0.
 0916725,-0.0866326,0.1370101,-0.5062937,-0.066145,0.5443899,0.0012175,
 -0.0687736,0.0581911,0.3307662,0.1324316,-0.0902987,0.0565595,-0.01098
 64,-0.1013736,-0.0394225,0.0325076,-0.0973409,0.0323523,-0.0242688,-0.
 1816428,0.0058213,-0.0127229,0.0377614,-0.0155104,0.0831582,-0.0185618
 ,-0.1023254,-0.0570346,-0.0959445\Polar=306.989813,41.8415196,307.3038
 594,23.2702365,-42.2422149,299.375359\Quadrupole=-1.498276,-7.9461034,
 9.4443793,1.0401404,-8.016972,-11.6944138\PG=C01 [X(H6Mo3S8)]\NImag=0\
 \0.25437173,0.03903898,0.27987817,0.00624453,-0.03453497,0.25085858,-0
 .03599614,-0.06251223,0.02481109,0.06694871,-0.05691614,-0.16108786,0.
 04379898,0.07792219,0.17990348,0.01826765,0.04664410,-0.03210259,-0.00
 079442,-0.03162795,0.05177971,-0.10199157,0.02334380,0.04116257,-0.001
 98288,-0.01071208,-0.00053765,0.11293214,0.01577866,-0.01347537,-0.012
 45809,-0.00135627,0.00327107,0.00300677,-0.01801705,0.03074017,0.04584
 579,0.00109697,-0.02933260,-0.00051058,0.00134886,0.00221965,-0.052585
 71,0.04246388,0.14027493,-0.00127975,-0.00299406,-0.00360249,-0.001558
 51,0.00089721,-0.00214265,0.00035837,0.00178948,0.00055279,0.11691352,
 0.00143014,-0.04927626,-0.05761673,-0.00048801,-0.00557448,-0.00661324
 ,-0.00201607,0.00333939,-0.00132602,-0.03221706,0.10721769,0.00404749,
 -0.05586088,-0.08593947,-0.00479323,-0.00263040,-0.00216514,0.00188076
 ,-0.00365175,-0.00274420,-0.01896355,0.05885061,0.10686824,-0.05406531
 ,0.01887011,-0.03486651,0.00068420,0.00232720,0.00001781,-0.00249218,-
 0.00020999,0.00000556,0.00041129,-0.00103709,-0.00152241,0.14314596,0.
 02308438,-0.02974303,0.03135096,0.00047072,-0.00200990,0.00015759,0.00
 299977,-0.00021873,-0.00027363,-0.00168175,0.00201369,-0.00025301,0.08
 736169,0.18622304,-0.04492876,0.02814682,-0.05040960,0.00252994,0.0033
 6731,-0.00159203,-0.00179270,-0.00002375,0.00370494,-0.00182078,0.0004
 0148,-0.00398442,0.01500439,-0.07643533,0.07386271,0.00213368,0.004404
 31,-0.00234461,0.00092872,-0.00017568,0.00015809,0.00028844,0.00086363
 ,0.00012848,-0.00015821,0.00054185,-0.00084297,-0.09133600,-0.11704929
 ,0.03331151,0.09013101,-0.00009821,-0.00622368,0.00437325,-0.00031160,
 0.00050622,0.00007558,-0.00143791,-0.00015501,-0.00056942,0.00046279,-
 0.00028558,0.00033920,-0.11356749,-0.15887525,0.04595310,0.11393508,0.
 16321080,0.00452939,0.00722147,-0.00330639,-0.00116674,-0.00068074,0.0
 0074411,-0.00175011,-0.00018112,-0.00067394,0.00058509,-0.00027853,0.0
 0090953,0.03009308,0.04380699,-0.01912085,-0.03125379,-0.04972882,0.02
 108419,-0.06290291,-0.01800276,-0.03168946,-0.00030731,-0.00361664,-0.
 00108628,-0.01093482,-0.00165979,0.00328314,-0.09976775,0.03254441,0.0
 1377983,0.00612913,0.00382145,-0.00020965,-0.00218832,0.00094707,-0.00
 154144,0.21184382,-0.02195893,-0.01366849,0.00118611,-0.00390995,0.002
 76755,-0.00475929,0.00639607,-0.02762285,-0.04223660,0.03286534,-0.019
 28680,-0.01276870,0.00550408,0.00045858,0.00136565,-0.00119713,0.00124
 401,-0.00023626,-0.00286592,0.23530014,-0.04858462,-0.02309064,-0.0145
 4054,-0.00044692,-0.00180486,0.00012142,0.00898098,-0.03073405,-0.1129
 3857,0.02991073,-0.00667516,-0.00771209,0.00049971,0.00112513,-0.00108
 373,-0.00071325,0.00066588,-0.00007401,0.03056010,0.03897924,0.2345820
 4,0.00095773,-0.00077716,-0.00014339,-0.00046146,-0.00109862,0.0017898
 1,0.00117677,0.00137950,-0.00490098,-0.00476490,-0.00799648,0.00051064
 ,-0.00029593,-0.00070292,-0.00043288,0.00012172,0.00008979,0.00041617,
 -0.02772158,-0.01669709,0.00023982,0.14503296,0.00141174,0.00141698,-0
 .00410949,-0.00080779,0.00000789,0.00205943,-0.00242209,0.00044218,-0.
 00436188,-0.00544139,0.00038115,0.00280464,-0.00075431,0.00055551,-0.0
 0071038,-0.00004766,-0.00016267,-0.00022023,-0.02035977,-0.08762194,-0
 .02279153,-0.02597476,0.12462492,-0.00320916,-0.00014050,-0.00109563,-
 0.00023683,0.00042242,0.00104764,0.00077179,-0.00049667,0.00376476,-0.
 00279057,-0.00101560,0.00277101,0.00026833,0.00034277,-0.00078545,-0.0
 0023471,0.00023700,0.00002178,-0.00166840,-0.02642419,-0.02378699,-0.1
 0641540,0.08733329,0.13676055,0.00162809,0.00075914,-0.00029361,-0.000
 39235,0.00058941,0.00009758,-0.00055119,-0.00035604,0.00043209,-0.0020
 9356,-0.00009851,0.00032572,-0.00030937,0.00007057,-0.00004320,0.00003
 762,-0.00006460,-0.00001758,0.00670502,-0.00613426,-0.00590451,-0.1124
 7423,0.06014245,0.11517686,0.10885663,-0.00212298,-0.00063771,-0.00037
 093,0.00020459,0.00002316,-0.00023655,0.00020092,-0.00015778,0.0016765
 8,-0.00031942,0.00002272,-0.00009047,0.00045698,0.00027677,-0.00010621
 ,-0.00019074,0.00012773,-0.00010675,0.00078788,-0.00742423,-0.00805685
 ,0.05515922,-0.03604151,-0.06003482,-0.05559606,0.04385725,0.00281988,
 0.00028864,0.00114709,-0.00022912,0.00050493,-0.00036418,-0.00057173,-
 0.00035155,-0.00026863,-0.00145812,0.00084443,0.00082414,-0.00069348,-
 0.00000650,0.00000507,0.00017970,-0.00018401,-0.00001709,0.00213461,-0
 .00706108,-0.00428569,0.10969108,-0.06252655,-0.12160980,-0.11083565,0
 .06699239,0.12431613,-0.00327780,-0.00294436,0.00470578,-0.00025003,-0
 .00223497,-0.00416626,0.00191935,-0.00050586,0.00044489,0.00071289,-0.
 00040377,-0.00103732,-0.00041175,0.00051820,-0.00015161,0.00000044,-0.
 00002934,-0.00004443,-0.01276718,0.02139915,-0.02362974,0.00217021,-0.
 00092473,0.00271088,0.00026172,0.00041222,-0.00056766,0.08095592,0.003
 04783,0.00351842,-0.00220359,0.00033720,0.00070479,0.00091538,-0.00105
 178,0.00211522,0.00083329,-0.00086326,-0.00044721,0.00550009,0.0001820
 6,-0.00046262,0.00016731,-0.00000099,0.00004476,0.00012070,0.02404074,
 -0.06003391,0.03034235,-0.00227842,-0.00153510,-0.00065330,0.00038915,
 -0.00009702,0.00065472,-0.00725094,0.18136291,-0.00101358,0.00112592,-
 0.00128931,0.00061622,0.00240074,-0.00052715,-0.00000625,-0.00079406,-
 0.00156579,-0.00225808,-0.00169087,-0.00024874,0.00009879,-0.00000447,
 -0.00027275,-0.00007958,0.00005769,0.00008579,-0.02170396,0.04090933,-
 0.03658757,0.00239382,0.00107024,0.00102138,-0.00045832,-0.00013837,-0
 .00064822,0.03853840,0.08870401,0.20192562,0.00037262,0.00096739,-0.00
 151281,0.00030947,0.00132578,0.00052445,-0.00009961,0.00004210,0.00012
 553,-0.00045961,-0.00039394,0.00017520,0.00001158,-0.00028566,-0.00009
 015,0.00000735,0.00002837,0.00007402,-0.00064824,0.00028323,-0.0014244
 4,-0.00007738,0.00006548,-0.00025709,-0.00026604,0.00016774,-0.0002118
 8,-0.01024913,-0.00566539,-0.00779896,0.01587202,-0.00057898,-0.000174
 64,-0.00060227,-0.00013283,0.00005930,-0.00009529,0.00010438,-0.000498
 04,-0.00027905,0.00051651,-0.00041783,-0.00134333,0.00007870,-0.000048
 83,0.00009107,0.00000502,0.00000734,-0.00003751,-0.00004835,0.00603792
 ,0.00582858,0.00005474,-0.00150746,0.00037777,0.00000024,-0.00007850,0
 .00001683,-0.01091836,-0.11253519,-0.12349045,0.01064323,0.11116581,0.
 00090198,-0.00013418,0.00047194,-0.00035243,-0.00011146,0.00055610,0.0
 0010504,0.00062261,0.00069260,0.00002443,0.00063736,0.00143499,-0.0001
 6299,-0.00002827,0.00002653,0.00003240,-0.00002364,0.00002447,-0.00146
 319,-0.00311147,-0.00976246,-0.00006903,-0.00002690,0.00038381,0.00004
 877,0.00006550,0.00013941,-0.01353873,-0.11835298,-0.15330673,0.016711
 05,0.11952796,0.16019072,-0.00023980,-0.00378077,0.00804108,-0.0312720
 5,-0.01774998,-0.01981729,0.00251749,0.00291160,0.00730457,-0.01018070
 ,0.01427468,0.00069275,-0.00206352,0.00210720,-0.00314820,-0.00022505,
 0.00026228,0.00031532,0.00560920,-0.00607229,0.00222001,-0.00666288,-0
 .00624493,-0.00567600,-0.00094389,0.00093655,0.00115911,-0.05730693,-0
 .00494575,-0.00909784,-0.00356812,0.00118071,-0.00440247,0.20827509,0.
 00257905,-0.01004660,0.03326484,-0.01694719,-0.01957968,-0.00958498,0.
 00281991,0.00178171,-0.00009058,0.01087136,-0.02984100,-0.00632151,0.0
 0166615,0.00300427,-0.00320846,-0.00183168,0.00093201,0.00048085,-0.02
 425542,-0.03563323,0.01698246,-0.00038899,0.00106108,0.00087173,0.0007
 8188,-0.00013199,0.00114520,0.01200950,-0.00113086,-0.00720520,-0.0070
 6257,-0.00238885,0.00050536,0.00681957,0.24038063,0.01787916,0.0301956
 4,-0.03225648,-0.02035455,-0.02425067,-0.00663591,0.00491381,0.0019989
 1,-0.00438189,-0.00027657,0.01260551,-0.00585277,-0.00901207,0.0004697
 7,0.00046168,0.00165665,-0.00114502,0.00039822,0.00229967,0.01624336,-
 0.02180415,-0.00320203,0.00170727,0.00207253,0.00164257,0.00037840,0.0
 0045037,-0.00634461,-0.00513404,-0.01065208,-0.00652035,0.00019126,-0.
 00156574,0.00797372,0.01501835,0.23744699,-0.00030371,0.00037045,-0.00
 346741,-0.00108337,0.00545804,-0.00073715,-0.00032442,-0.00051858,0.00
 021068,0.00253951,0.00134146,0.00106817,0.00042248,-0.00022871,0.00062
 876,0.00005789,-0.00006952,-0.00013861,-0.00380239,-0.00133327,0.00062
 804,0.00179040,0.00106708,0.00127965,-0.00006161,0.00001536,-0.0004798
 6,-0.00099386,-0.00821979,-0.00161849,-0.00122182,-0.00099917,0.000292
 66,-0.02663848,0.01424006,-0.00815594,0.23653337,-0.00203724,-0.001780
 94,0.00066415,0.00371429,-0.00207158,0.00265528,0.00074454,0.00040602,
 0.00113289,0.00050249,-0.00832379,0.00546300,-0.00001949,-0.00008273,0
 .00076690,0.00019760,-0.00007520,-0.00017529,0.00493616,0.00268902,-0.
 00010753,-0.00061758,-0.00141076,-0.00087713,-0.00028067,0.00007645,-0
 .00009910,-0.00810258,-0.01042955,0.00036855,0.00006304,0.00078310,-0.
 00029773,0.02083388,-0.08146925,0.00169439,0.07072232,0.15560047,-0.00
 185025,-0.00035535,-0.00348656,-0.00228047,0.00644498,-0.00315938,-0.0
 0100949,-0.00048647,0.00044682,-0.00011068,-0.00115535,0.00217832,0.00
 019623,-0.00036058,0.00003198,0.00005134,0.00001754,0.00001831,-0.0005
 6820,-0.00336486,0.00109174,0.00082480,0.00078248,0.00037022,-0.000074
 04,-0.00008350,-0.00020362,0.00151868,0.00038591,-0.00376637,-0.001328
 49,-0.00200487,0.00066550,-0.00801739,0.00980340,-0.00695020,0.0604337
 8,0.01652182,0.03424800,0.00023709,0.00027729,-0.00072025,-0.00063311,
 0.00197460,-0.00054994,-0.00015255,0.00007232,0.00013872,-0.00058408,0
 .00017942,-0.00055757,-0.00002361,-0.00003853,-0.00014930,-0.00001124,
 0.00001092,0.00003234,-0.00043391,-0.00072147,-0.00020596,0.00001881,0
 .00009374,0.00004155,-0.00000554,-0.00001073,0.00001229,0.00057814,-0.
 00053081,-0.00135721,-0.00040511,-0.00070663,0.00049467,0.00395338,0.0
 0036322,0.00238680,-0.20244773,-0.09484106,-0.05216633,0.20031000,-0.0
 0095156,-0.00058046,-0.00121627,0.00166057,0.00021318,0.00147712,0.000
 00386,-0.00002761,0.00007131,0.00095639,-0.00039456,0.00117228,0.00007
 256,-0.00005541,0.00026331,0.00005748,-0.00004444,-0.00006359,-0.00000
 935,-0.00068994,-0.00010521,0.00030634,0.00035424,0.00023974,0.0000419
 1,0.00000176,-0.00007715,0.00070563,-0.00080356,-0.00100741,-0.0004459
 6,-0.00033566,0.00024472,-0.00991329,-0.00798150,-0.00318211,-0.086023
 37,-0.05462813,-0.02202753,0.09355822,0.06491550,-0.00061315,-0.000823
 56,0.00180462,-0.00052606,0.00011095,-0.00084293,0.00081221,0.00036659
 ,0.00040120,0.00034087,0.00018916,-0.00003893,0.00019449,-0.00011324,0
 .00017585,0.00002717,-0.00000275,-0.00002929,0.00152375,0.00132656,-0.
 00166754,-0.00058083,-0.00030699,0.00002901,0.00017424,0.00009996,0.00
 018215,-0.00170389,-0.00157300,0.00392824,0.00115868,0.00122275,-0.000
 43595,-0.00100320,-0.00116717,-0.00194729,-0.05214368,-0.02388982,-0.0
 2237771,0.05263489,0.02378900,0.02024247,-0.00023105,-0.00035063,-0.00
 433259,0.00065895,0.00095355,0.00194218,-0.00024531,-0.00015291,-0.000
 31445,-0.00046350,-0.00609743,0.00538025,0.00041092,-0.00011113,0.0013
 1672,0.00013511,-0.00007553,-0.00014896,-0.00844051,-0.00443620,0.0049
 7327,0.00130314,0.00039639,0.00037465,-0.00026038,-0.00018928,-0.00081
 717,-0.00193826,0.00050099,-0.00068605,0.00020471,0.00002537,0.0007706
 0,-0.04874063,0.00384975,0.02580472,-0.00491470,0.00464710,0.00313650,
 -0.00022283,-0.00011963,-0.00052777,0.17956815,0.00061108,-0.00106117,
 -0.00247964,0.00155261,0.00243677,-0.00328090,-0.00162851,0.00037455,0
 .00012902,-0.00679204,-0.00114381,0.00551756,-0.00018945,0.00008374,0.
 00032216,0.00008975,-0.00008765,-0.00009278,0.00304368,0.00285581,0.00
 173618,0.00076012,-0.00095436,-0.00085362,-0.00078540,-0.00003896,-0.0
 0054344,-0.00003819,-0.00044262,-0.00108584,-0.00076221,0.00002739,0.0
 0012998,-0.00272690,-0.01605108,0.00264420,0.00420983,-0.00039839,-0.0
 0333862,0.00022591,0.00039973,0.00141573,0.04312789,0.03470553,-0.0000
 3654,0.00224958,-0.00327636,0.00594107,0.00364783,-0.00360640,-0.00052
 997,0.00059908,0.00031535,0.00313903,0.00188219,-0.00418796,-0.0000580
 2,-0.00005455,-0.00073660,0.00003504,-0.00012498,-0.00010159,0.0047989
 8,-0.00082932,0.00030201,-0.00025608,-0.00053128,-0.00107418,-0.000121
 19,-0.00017180,0.00040590,0.00217356,0.00124967,0.00087726,0.00035001,
 0.00013537,0.00005278,0.01844878,-0.00838128,-0.03762559,0.00147322,-0
 .00135985,-0.00052190,-0.00004068,0.00008970,0.00056739,0.07954932,0.0
 4390348,0.19412471,0.00155734,0.00376476,-0.00083741,0.00332435,-0.001
 59023,0.00495366,-0.00037800,-0.00031730,-0.00011644,0.00044899,0.0006
 9873,0.00023142,-0.00035281,-0.00014543,-0.00007356,0.00006062,-0.0000
 6493,0.00001671,-0.00077215,-0.00048136,0.00188790,-0.00015721,-0.0000
 0988,0.00013450,-0.00003755,0.00011765,-0.00009355,0.00034919,0.002242
 23,0.00450305,0.00022954,0.00075866,0.00050610,-0.02420545,-0.00183944
 ,-0.00478498,0.00058637,-0.00041115,0.00168844,-0.00007069,0.00000293,
 -0.00004333,-0.00831712,-0.00249160,-0.00774078,0.03044281,-0.00200475
 ,0.00156237,0.00068666,-0.00013402,0.00051230,-0.00306738,0.00003949,-
 0.00036529,0.00052350,0.00136902,0.00200059,0.00349849,-0.00089735,-0.
 00088370,-0.00024097,0.00035256,-0.00013310,0.00022291,0.00098184,0.00
 152333,0.00000333,-0.00059318,0.00021347,0.00029815,0.00022677,0.00013
 686,0.00009078,-0.00156231,0.00038282,0.00076150,0.00094846,-0.0001807
 8,0.00028259,0.00025609,-0.04166451,-0.04976903,0.00005684,0.00089415,
 -0.00055246,0.00006154,-0.00011674,-0.00061443,-0.00229559,-0.00068378
 ,0.00313862,0.00217256,0.03495414,-0.00057733,-0.00246189,0.00121224,-
 0.00355518,0.00076468,-0.00340344,-0.00009474,-0.00006277,0.00011858,-
 0.00109892,0.00055397,-0.00179924,0.00017197,0.00033892,-0.00024394,-0
 .00014423,0.00007696,0.00001821,0.00102439,0.00000066,-0.00138969,0.00
 012154,-0.00008278,0.00011745,-0.00010413,0.00016240,-0.00004503,0.001
 18623,-0.00099400,0.00070846,-0.00001763,0.00051297,0.00058056,0.00109
 191,-0.04301710,-0.11333899,0.00054606,-0.00241747,0.00113951,0.000036
 89,0.00025441,0.00015647,-0.00012970,0.00103207,0.00125086,0.00024429,
 0.04565698,0.11286414,-0.00097023,-0.00043425,-0.00115449,0.00108282,0
 .00264636,0.00208040,-0.00004004,0.00025650,-0.00004407,-0.00007399,-0
 .00026233,-0.00037516,0.00013492,-0.00019058,0.00004948,0.00001619,-0.
 00001718,-0.00000046,0.00039991,-0.00064001,0.00100889,0.00004382,-0.0
 0018957,-0.00027005,-0.00009338,-0.00002989,-0.00003845,0.00024708,0.0
 0006691,-0.00007198,-0.00001223,0.00001675,0.00010114,-0.00830768,-0.0
 0367517,-0.00590600,-0.00013793,-0.00005167,-0.00044444,-0.00010702,0.
 00009728,0.00027560,-0.10850667,-0.03820656,-0.10712575,-0.00270825,0.
 00102202,0.00129859,0.11903270,-0.00031306,0.00138026,0.00026703,0.000
 73771,-0.00008221,0.00227432,0.00063274,0.00005037,-0.00013911,0.00007
 837,0.00001609,-0.00022581,0.00015563,-0.00023541,-0.00012001,0.000045
 89,-0.00003028,-0.00005130,-0.00028523,-0.00089498,-0.00229731,-0.0006
 2450,0.00017637,0.00037297,0.00031401,0.00008500,0.00031144,-0.0001293
 0,-0.00021128,0.00001869,0.00008092,0.00008490,0.00007054,0.00185134,-
 0.00124117,0.00033379,-0.00008903,0.00022110,-0.00022654,0.00003204,-0
 .00022640,-0.00002974,-0.03967271,-0.02002170,-0.04544248,-0.00240621,
 0.00184788,-0.00031802,0.03959138,0.01908146,0.00027750,0.00043281,0.0
 0154105,0.00134821,-0.00170562,-0.00206947,0.00025120,0.00018244,-0.00
 003322,-0.00003054,0.00040679,-0.00031327,-0.00023489,-0.00006258,-0.0
 0003939,0.00003277,-0.00001757,0.00001852,0.00052610,0.00078086,-0.000
 46419,0.00001295,-0.00008934,-0.00000808,-0.00004561,0.00002104,-0.000
 02799,-0.00009415,0.00003747,0.00031796,0.00004287,-0.00005177,-0.0001
 4852,0.00391513,0.00090410,0.00218129,0.00018012,-0.00004304,0.0002753
 4,-0.00003091,0.00007767,-0.00014777,-0.11629151,-0.04515555,-0.146765
 69,-0.00047601,-0.00091925,0.00205386,0.11061677,0.04520154,0.14362958
 \\-0.00002013,0.00001623,-0.00002229,0.00001748,0.00000403,-0.00000005
 ,-0.00001059,-0.00000187,0.00000065,0.00000225,-0.00001091,0.00000969,
 0.00000494,0.00000040,-0.00000146,-0.00000225,-0.00000011,0.00000024,0
 .00000296,0.00000449,0.00000179,0.00000069,-0.00000039,0.00000128,-0.0
 0000023,-0.00000082,-0.00000124,0.00003210,0.00000101,-0.00000784,-0.0
 0001978,-0.00000032,-0.00000272,0.00000847,-0.00001192,0.00001356,-0.0
 0002061,-0.00000630,0.00001962,0.00000287,0.00000479,-0.00000503,-0.00
 000248,-0.00000887,-0.00000523,0.00000481,0.00001027,-0.00000179,-0.00
 000051,0.00000029,0.00000083\\\@
 The archive entry for this job was punched.


 THE MORE PROGRESS PHYSICAL SCIENCES MAKE, THE MORE THEY TEND TO ENTER
 THE DOMAIN OF MATHEMATICS, WHICH IS A KIND OF CENTRE TO WHICH THEY ALL
 CONVERGE.  WE MAY EVEN JUDGE THE DEGREE OF PERFECTION TO WHICH A 
 SCIENCE HAS ARRIVED BY THE FACILITY WITH WHICH IT MAY BE SUBMITTED
 TO CALCULATION.

                               -- ADOLPHE QUETELET, 1796-1874
 Job cpu time:       0 days  0 hours 20 minutes 28.5 seconds.
 Elapsed time:       0 days  0 hours  2 minutes 34.4 seconds.
 File lengths (MBytes):  RWF=    236 Int=      0 D2E=      0 Chk=      7 Scr=      2
 Normal termination of Gaussian 16 at Sat Jul  8 01:28:32 2023.
