       N       E                     dE             d eps       ncg     rms          rms(c)
DAV:   1     0.183193445356E+05    0.18319E+05   -0.75604E+05  5920   0.106E+03
DAV:   2     0.401309007589E+03   -0.17918E+05   -0.17169E+05  7488   0.281E+02
DAV:   3    -0.293608027291E+04   -0.33374E+04   -0.33172E+04  6640   0.126E+02
DAV:   4    -0.303416793875E+04   -0.98088E+02   -0.97610E+02  6672   0.249E+01
DAV:   5    -0.303641775969E+04   -0.22498E+01   -0.22456E+01  7184   0.342E+00    0.188E+02
DAV:   6    -0.151080197639E+04    0.15256E+04   -0.32823E+03  6304   0.450E+01    0.102E+02
DAV:   7    -0.163081903109E+04   -0.12002E+03   -0.28679E+02  6560   0.177E+01    0.636E+01
DAV:   8    -0.163343922814E+04   -0.26202E+01   -0.62932E+01  6688   0.712E+00    0.479E+01
DAV:   9    -0.173942176007E+04   -0.10598E+03   -0.40140E+01  6400   0.514E+00    0.390E+01
DAV:  10    -0.187916521573E+04   -0.13974E+03   -0.49817E+01  6352   0.522E+00    0.328E+01
DAV:  11    -0.204642391848E+04   -0.16726E+03   -0.58150E+01  6272   0.588E+00    0.275E+01
DAV:  12    -0.227207618938E+04   -0.22565E+03   -0.72543E+01  6608   0.647E+00    0.227E+01
DAV:  13    -0.254276289848E+04   -0.27069E+03   -0.15514E+02  6352   0.873E+00    0.172E+01
DAV:  14    -0.277212458171E+04   -0.22936E+03   -0.20281E+02  6544   0.876E+00    0.113E+01
DAV:  15    -0.284181490295E+04   -0.69690E+02   -0.31434E+01  6928   0.358E+00    0.167E+02
DAV:  16    -0.282063813045E+04    0.21177E+02   -0.20272E+02  6656   0.695E+00    0.865E+00
DAV:  17    -0.283547919954E+04   -0.14841E+02   -0.83285E+00  6128   0.184E+00    0.721E+00
DAV:  18    -0.284258084860E+04   -0.71016E+01   -0.19556E+00  6672   0.106E+00    0.606E+00
DAV:  19    -0.285086973218E+04   -0.82889E+01   -0.20725E+00  6352   0.107E+00    0.495E+00
DAV:  20    -0.285889295159E+04   -0.80232E+01   -0.16565E+00  6384   0.948E-01    0.354E+00
DAV:  21    -0.286353062691E+04   -0.46377E+01   -0.10766E+00  6544   0.710E-01    0.253E+00
DAV:  22    -0.286582542494E+04   -0.22948E+01   -0.35606E-01  6224   0.460E-01    0.193E+00
DAV:  23    -0.286637781665E+04   -0.55239E+00   -0.77582E-02  6352   0.317E-01    0.164E+00
DAV:  24    -0.286814550195E+04   -0.17677E+01   -0.58293E-02  6304   0.270E-01    0.159E+00
DAV:  25    -0.286942724530E+04   -0.12817E+01   -0.19825E-02  6400   0.161E-01    0.163E+00
DAV:  26    -0.287066795834E+04   -0.12407E+01   -0.23341E-02  6448   0.152E-01    0.160E+00
DAV:  27    -0.287147378991E+04   -0.80583E+00   -0.14095E-02  6592   0.121E-01    0.155E+00
DAV:  28    -0.287164440012E+04   -0.17061E+00   -0.35273E-03  6656   0.681E-02    0.154E+00
DAV:  29    -0.287170438290E+04   -0.59983E-01   -0.15284E-03  6608   0.475E-02    0.154E+00
DAV:  30    -0.287173340942E+04   -0.29027E-01   -0.72415E-04  6656   0.344E-02    0.154E+00
DAV:  31    -0.287174122673E+04   -0.78173E-02   -0.45235E-04  6560   0.285E-02    0.154E+00
DAV:  32    -0.287174401781E+04   -0.27911E-02   -0.16199E-04  6336   0.182E-02    0.155E+00
DAV:  33    -0.287174493745E+04   -0.91964E-03   -0.51441E-05  5840   0.987E-03    0.155E+00
DAV:  34    -0.287174594510E+04   -0.10076E-02   -0.29850E-05  5600   0.758E-03    0.156E+00
DAV:  35    -0.287174644469E+04   -0.49960E-03   -0.72335E-06  4688   0.400E-03    0.156E+00
DAV:  36    -0.287174677050E+04   -0.32580E-03   -0.74537E-06  4720   0.348E-03    0.157E+00
DAV:  37    -0.287174685127E+04   -0.80773E-04   -0.26890E-06  4816   0.171E-03    0.157E+00
DAV:  38    -0.287174686295E+04   -0.11679E-04   -0.46951E-07  4928   0.593E-04    0.157E+00
DAV:  39    -0.287174686510E+04   -0.21560E-05   -0.32949E-07  4512   0.714E-04
   1 F= -.29062472E+04 E0= -.29062472E+04  d E =-.290625E+04  mag=     5.8798
       N       E                     dE             d eps       ncg     rms          rms(c)
DAV:   1    -0.287174383433E+04    0.30286E-02   -0.10095E+00  5728   0.956E-01    0.161E+00
DAV:   2    -0.287174362518E+04    0.20914E-03   -0.28924E-02  6288   0.151E-01    0.901E-01
DAV:   3    -0.287174229866E+04    0.13265E-02   -0.13054E-03  6464   0.355E-02    0.471E-01
DAV:   4    -0.287173687438E+04    0.54243E-02   -0.19701E-03  6416   0.485E-02    0.104E-01
DAV:   5    -0.287173880990E+04   -0.19355E-02   -0.63473E-04  6320   0.263E-02    0.430E-02
DAV:   6    -0.287174075404E+04   -0.19441E-02   -0.18195E-04  6528   0.125E-02    0.281E-02
DAV:   7    -0.287174176660E+04   -0.10126E-02   -0.25191E-05  4880   0.519E-03    0.186E-02
DAV:   8    -0.287174336390E+04   -0.15973E-02   -0.55505E-05  5472   0.574E-03    0.121E-02
DAV:   9    -0.287174404288E+04   -0.67898E-03   -0.12748E-05  4752   0.406E-03    0.100E-02
DAV:  10    -0.287174489271E+04   -0.84983E-03   -0.18494E-05  5056   0.494E-03    0.814E-03
DAV:  11    -0.287174556276E+04   -0.67005E-03   -0.10397E-05  4688   0.345E-03    0.685E-03
DAV:  12    -0.287174615727E+04   -0.59451E-03   -0.15162E-05  4912   0.334E-03    0.423E-03
DAV:  13    -0.287174645618E+04   -0.29891E-03   -0.58428E-06  4704   0.197E-03    0.393E-03
DAV:  14    -0.287174662314E+04   -0.16695E-03   -0.12934E-06  4864   0.104E-03    0.333E-03
DAV:  15    -0.287174699941E+04   -0.37627E-03   -0.18006E-06  4608   0.142E-03    0.262E-03
DAV:  16    -0.287174740213E+04   -0.40272E-03   -0.28532E-06  4720   0.161E-03    0.264E-03
DAV:  17    -0.287174753966E+04   -0.13754E-03   -0.10404E-06  4784   0.107E-03    0.202E-03
DAV:  18    -0.287174771325E+04   -0.17358E-03   -0.13949E-06  4688   0.126E-03    0.138E-03
DAV:  19    -0.287174781852E+04   -0.10527E-03   -0.98130E-07  4688   0.101E-03    0.126E-03
DAV:  20    -0.287174792188E+04   -0.10336E-03   -0.74181E-07  4720   0.955E-04    0.799E-04
DAV:  21    -0.287174798605E+04   -0.64170E-04   -0.48205E-07  4688   0.707E-04    0.494E-04
DAV:  22    -0.287174801331E+04   -0.27264E-04   -0.17904E-07  4704   0.484E-04    0.466E-04
DAV:  23    -0.287174803382E+04   -0.20508E-04   -0.94643E-08  4688   0.353E-04    0.416E-04
DAV:  24    -0.287174804083E+04   -0.70101E-05   -0.22113E-09  4800   0.252E-04
   2 F= -.29062481E+04 E0= -.29062481E+04  d E =-.979275E-03  mag=     5.9996
       N       E                     dE             d eps       ncg     rms          rms(c)
DAV:   1    -0.287174977101E+04   -0.17372E-02   -0.14368E-01  5920   0.361E-01    0.138E-01
DAV:   2    -0.287174996627E+04   -0.19525E-03   -0.38325E-03  6432   0.563E-02    0.566E-02
DAV:   3    -0.287175001033E+04   -0.44059E-04   -0.13265E-04  6256   0.144E-02    0.321E-02
DAV:   4    -0.287174999089E+04    0.19433E-04   -0.79500E-05  6416   0.115E-02    0.114E-02
DAV:   5    -0.287174998767E+04    0.32233E-05   -0.20029E-05  5296   0.611E-03
   3 F= -.29062502E+04 E0= -.29062502E+04  d E =-.300004E-02  mag=     5.9997
       N       E                     dE             d eps       ncg     rms          rms(c)
DAV:   1    -0.287175019733E+04   -0.20644E-03   -0.38876E-02  5856   0.188E-01    0.751E-02
DAV:   2    -0.287175026364E+04   -0.66305E-04   -0.10509E-03  6352   0.296E-02    0.297E-02
DAV:   3    -0.287175025976E+04    0.38769E-05   -0.35476E-05  5712   0.802E-03    0.166E-02
DAV:   4    -0.287175024289E+04    0.16878E-04   -0.20674E-05  4848   0.696E-03    0.591E-03
DAV:   5    -0.287175024136E+04    0.15215E-05   -0.93738E-06  4656   0.404E-03
   4 F= -.29062504E+04 E0= -.29062504E+04  d E =-.329233E-02  mag=     5.9998
       N       E                     dE             d eps       ncg     rms          rms(c)
DAV:   1    -0.287174746598E+04    0.27769E-02   -0.62583E-01  5568   0.736E-01    0.221E-01
DAV:   2    -0.287174584733E+04    0.16187E-02   -0.13558E-02  6576   0.105E-01    0.966E-02
DAV:   3    -0.287174981177E+04   -0.39644E-02   -0.72271E-04  6288   0.248E-02    0.573E-02
DAV:   4    -0.287175062915E+04   -0.81738E-03   -0.25358E-04  6560   0.188E-02    0.220E-02
DAV:   5    -0.287175073529E+04   -0.10614E-03   -0.53339E-05  6512   0.896E-03    0.145E-02
DAV:   6    -0.287175079637E+04   -0.61078E-04   -0.15836E-05  4736   0.515E-03    0.802E-03
DAV:   7    -0.287175082860E+04   -0.32228E-04   -0.33671E-06  4528   0.230E-03    0.516E-03
DAV:   8    -0.287175085643E+04   -0.27834E-04   -0.13490E-06  4576   0.223E-03    0.208E-03
DAV:   9    -0.287175087308E+04   -0.16643E-04   -0.11738E-06  4704   0.160E-03    0.110E-03
DAV:  10    -0.287175088266E+04   -0.95864E-05   -0.37408E-07  4608   0.103E-03
   5 F= -.29062513E+04 E0= -.29062513E+04  d E =-.891127E-03  mag=     5.9999
       N       E                     dE             d eps       ncg     rms          rms(c)
DAV:   1    -0.287175101636E+04   -0.14328E-03   -0.50002E-02  5824   0.208E-01    0.627E-02
DAV:   2    -0.287175105716E+04   -0.40799E-04   -0.10806E-03  6496   0.296E-02    0.274E-02
DAV:   3    -0.287175112523E+04   -0.68077E-04   -0.32291E-05  5216   0.634E-03    0.161E-02
DAV:   4    -0.287175112044E+04    0.47945E-05   -0.19868E-05  4848   0.537E-03    0.593E-03
DAV:   5    -0.287175111743E+04    0.30096E-05   -0.52805E-06  4656   0.259E-03
   6 F= -.29062515E+04 E0= -.29062515E+04  d E =-.105520E-02  mag=     5.9999
       N       E                     dE             d eps       ncg     rms          rms(c)
DAV:   1    -0.287174724373E+04    0.38767E-02   -0.57268E-01  5552   0.689E-01    0.200E-01
DAV:   2    -0.287174514306E+04    0.21007E-02   -0.12041E-02  6512   0.976E-02    0.860E-02
DAV:   3    -0.287175045553E+04   -0.53125E-02   -0.78786E-04  6320   0.225E-02    0.505E-02
DAV:   4    -0.287175153203E+04   -0.10765E-02   -0.18691E-04  6560   0.160E-02    0.203E-02
DAV:   5    -0.287175170955E+04   -0.17752E-03   -0.53637E-05  6528   0.856E-03    0.119E-02
DAV:   6    -0.287175176747E+04   -0.57919E-04   -0.92015E-06  4752   0.371E-03    0.804E-03
DAV:   7    -0.287175180808E+04   -0.40604E-04   -0.19352E-06  4592   0.167E-03    0.475E-03
DAV:   8    -0.287175184548E+04   -0.37410E-04   -0.11293E-06  4608   0.206E-03    0.178E-03
DAV:   9    -0.287175186072E+04   -0.15230E-04   -0.81921E-07  4768   0.144E-03    0.117E-03
DAV:  10    -0.287175187167E+04   -0.10952E-04   -0.30605E-07  4704   0.132E-03    0.827E-04
DAV:  11    -0.287175187745E+04   -0.57840E-05   -0.23240E-07  4736   0.644E-04
   7 F= -.29062524E+04 E0= -.29062524E+04  d E =-.943921E-03  mag=     6.0000
       N       E                     dE             d eps       ncg     rms          rms(c)
DAV:   1    -0.287175193775E+04   -0.66078E-04   -0.19435E-02  5840   0.127E-01    0.370E-02
DAV:   2    -0.287175196264E+04   -0.24892E-04   -0.40629E-04  6464   0.179E-02    0.158E-02
DAV:   3    -0.287175199372E+04   -0.31084E-04   -0.11316E-05  4816   0.355E-03    0.923E-03
DAV:   4    -0.287175198228E+04    0.11445E-04   -0.63010E-06  4576   0.303E-03    0.359E-03
DAV:   5    -0.287175197520E+04    0.70717E-05   -0.24864E-06  4624   0.170E-03
   8 F= -.29062525E+04 E0= -.29062525E+04  d E =-.100775E-02  mag=     6.0000
       N       E                     dE             d eps       ncg     rms          rms(c)
DAV:   1    -0.287174994520E+04    0.20371E-02   -0.25998E-01  5552   0.451E-01    0.125E-01
DAV:   2    -0.287174781483E+04    0.21304E-02   -0.52126E-03  6496   0.634E-02    0.576E-02
DAV:   3    -0.287175161524E+04   -0.38004E-02   -0.45589E-04  6304   0.150E-02    0.337E-02
DAV:   4    -0.287175251201E+04   -0.89677E-03   -0.97835E-05  6544   0.987E-03    0.139E-02
DAV:   5    -0.287175266815E+04   -0.15614E-03   -0.19645E-05  5312   0.513E-03    0.654E-03
DAV:   6    -0.287175271805E+04   -0.49899E-04   -0.51422E-06  4624   0.273E-03    0.430E-03
DAV:   7    -0.287175274479E+04   -0.26745E-04   -0.13032E-06  4592   0.120E-03    0.279E-03
DAV:   8    -0.287175276395E+04   -0.19156E-04   -0.46295E-07  4576   0.867E-04    0.141E-03
DAV:   9    -0.287175278046E+04   -0.16515E-04   -0.22369E-07  4720   0.873E-04    0.510E-04
DAV:  10    -0.287175278804E+04   -0.75743E-05   -0.15200E-07  4704   0.615E-04
   9 F= -.29062534E+04 E0= -.29062534E+04  d E =-.918299E-03  mag=     6.0000
       N       E                     dE             d eps       ncg     rms          rms(c)
DAV:   1    -0.287175103541E+04    0.17451E-02   -0.16534E-01  5584   0.360E-01    0.997E-02
DAV:   2    -0.287174927819E+04    0.17572E-02   -0.33262E-03  6480   0.506E-02    0.460E-02
DAV:   3    -0.287175188838E+04   -0.26102E-02   -0.28960E-04  6192   0.120E-02    0.269E-02
DAV:   4    -0.287175254381E+04   -0.65543E-03   -0.65137E-05  6288   0.795E-03    0.111E-02
DAV:   5    -0.287175266535E+04   -0.12155E-03   -0.12556E-05  4880   0.417E-03    0.518E-03
DAV:   6    -0.287175270655E+04   -0.41194E-04   -0.35896E-06  4640   0.227E-03    0.341E-03
DAV:   7    -0.287175272833E+04   -0.21784E-04   -0.93775E-07  4544   0.102E-03    0.225E-03
DAV:   8    -0.287175274369E+04   -0.15362E-04   -0.29604E-07  4576   0.705E-04    0.118E-03
DAV:   9    -0.287175275914E+04   -0.15448E-04   -0.15565E-07  4736   0.755E-04    0.425E-04
DAV:  10    -0.287175276563E+04   -0.64862E-05   -0.95470E-08  4688   0.507E-04
  10 F= -.29062535E+04 E0= -.29062535E+04  d E =-.980073E-03  mag=     6.0000
       N       E                     dE             d eps       ncg     rms          rms(c)
DAV:   1    -0.287175144460E+04    0.13145E-02   -0.14358E-01  5568   0.326E-01    0.907E-02
DAV:   2    -0.287174945154E+04    0.19931E-02   -0.26756E-03  6480   0.449E-02    0.410E-02
DAV:   3    -0.287175236506E+04   -0.29135E-02   -0.29926E-04  5952   0.110E-02    0.234E-02
DAV:   4    -0.287175310917E+04   -0.74411E-03   -0.60007E-05  5600   0.693E-03    0.100E-02
DAV:   5    -0.287175326049E+04   -0.15132E-03   -0.12239E-05  4864   0.363E-03    0.450E-03
DAV:   6    -0.287175329709E+04   -0.36598E-04   -0.23803E-06  4672   0.179E-03    0.295E-03
DAV:   7    -0.287175332532E+04   -0.28233E-04   -0.94283E-07  4560   0.997E-04    0.172E-03
DAV:   8    -0.287175333576E+04   -0.10445E-04   -0.19250E-07  4640   0.495E-04    0.116E-03
DAV:   9    -0.287175335256E+04   -0.16796E-04   -0.14784E-07  4672   0.587E-04    0.386E-04
DAV:  10    -0.287175335803E+04   -0.54720E-05   -0.19466E-08  4736   0.298E-04
  11 F= -.29062542E+04 E0= -.29062542E+04  d E =-.677000E-03  mag=     6.0000
       N       E                     dE             d eps       ncg     rms          rms(c)
DAV:   1    -0.287174782700E+04    0.55256E-02   -0.41945E-01  5472   0.558E-01    0.155E-01
DAV:   2    -0.287174486358E+04    0.29634E-02   -0.76920E-03  6480   0.763E-02    0.701E-02
DAV:   3    -0.287175165261E+04   -0.67890E-02   -0.79270E-04  6336   0.183E-02    0.401E-02
DAV:   4    -0.287175317927E+04   -0.15267E-02   -0.15134E-04  6496   0.115E-02    0.172E-02
DAV:   5    -0.287175346798E+04   -0.28871E-03   -0.31680E-05  5680   0.587E-03    0.775E-03
DAV:   6    -0.287175354741E+04   -0.79431E-04   -0.60649E-06  4672   0.287E-03    0.504E-03
DAV:   7    -0.287175360355E+04   -0.56136E-04   -0.19723E-06  4544   0.137E-03    0.295E-03
DAV:   8    -0.287175363747E+04   -0.33918E-04   -0.69196E-07  4560   0.841E-04    0.167E-03
DAV:   9    -0.287175367101E+04   -0.33543E-04   -0.39880E-07  4672   0.854E-04    0.572E-04
DAV:  10    -0.287175368534E+04   -0.14335E-04   -0.17813E-07  4704   0.526E-04    0.553E-04
DAV:  11    -0.287175369124E+04   -0.58973E-05    0.15735E-09  4784   0.231E-04
  12 F= -.29062546E+04 E0= -.29062546E+04  d E =-.115489E-02  mag=     6.0000
       N       E                     dE             d eps       ncg     rms          rms(c)
DAV:   1    -0.287175274042E+04    0.94493E-03   -0.14328E-01  5552   0.327E-01    0.107E-01
DAV:   2    -0.287175068264E+04    0.20578E-02   -0.29687E-03  6448   0.482E-02    0.466E-02
DAV:   3    -0.287175376358E+04   -0.30809E-02   -0.34843E-04  6240   0.131E-02    0.264E-02
DAV:   4    -0.287175448276E+04   -0.71918E-03   -0.68531E-05  6352   0.810E-03    0.111E-02
DAV:   5    -0.287175461825E+04   -0.13549E-03   -0.11135E-05  4752   0.427E-03    0.533E-03
DAV:   6    -0.287175466910E+04   -0.50847E-04   -0.42241E-06  4624   0.250E-03    0.353E-03
DAV:   7    -0.287175469051E+04   -0.21412E-04   -0.99257E-07  4544   0.107E-03    0.257E-03
DAV:   8    -0.287175470795E+04   -0.17438E-04   -0.32565E-07  4592   0.776E-04    0.127E-03
DAV:   9    -0.287175472545E+04   -0.17504E-04   -0.18460E-07  4736   0.845E-04    0.533E-04
DAV:  10    -0.287175472947E+04   -0.40244E-05   -0.13135E-07  4720   0.519E-04
  13 F= -.29062558E+04 E0= -.29062558E+04  d E =-.116961E-02  mag=     6.0000
       N       E                     dE             d eps       ncg     rms          rms(c)
DAV:   1    -0.287175336643E+04    0.13590E-02   -0.11751E-01  5568   0.296E-01    0.965E-02
DAV:   2    -0.287175151375E+04    0.18527E-02   -0.24355E-03  6480   0.436E-02    0.422E-02
DAV:   3    -0.287175413104E+04   -0.26173E-02   -0.28808E-04  6128   0.119E-02    0.239E-02
DAV:   4    -0.287175475801E+04   -0.62696E-03   -0.56766E-05  5936   0.740E-03    0.100E-02
DAV:   5    -0.287175487683E+04   -0.11883E-03   -0.10047E-05  4688   0.401E-03    0.488E-03
DAV:   6    -0.287175491861E+04   -0.41779E-04   -0.34503E-06  4640   0.232E-03    0.327E-03
DAV:   7    -0.287175493771E+04   -0.19096E-04   -0.89238E-07  4544   0.104E-03    0.232E-03
DAV:   8    -0.287175495130E+04   -0.13594E-04   -0.25227E-07  4592   0.726E-04    0.122E-03
DAV:   9    -0.287175496594E+04   -0.14635E-04   -0.15192E-07  4736   0.836E-04    0.473E-04
DAV:  10    -0.287175496954E+04   -0.36018E-05   -0.11238E-07  4736   0.500E-04
  14 F= -.29062562E+04 E0= -.29062562E+04  d E =-.152873E-02  mag=     6.0000
       N       E                     dE             d eps       ncg     rms          rms(c)
DAV:   1    -0.287175328734E+04    0.16786E-02   -0.15988E-01  5536   0.339E-01    0.107E-01
DAV:   2    -0.287175082883E+04    0.24585E-02   -0.30579E-03  6512   0.485E-02    0.473E-02
DAV:   3    -0.287175461498E+04   -0.37862E-02   -0.41045E-04  6192   0.133E-02    0.266E-02
DAV:   4    -0.287175552154E+04   -0.90656E-03   -0.79494E-05  6336   0.826E-03    0.113E-02
DAV:   5    -0.287175569394E+04   -0.17239E-03   -0.11788E-05  4832   0.418E-03    0.533E-03
DAV:   6    -0.287175575619E+04   -0.62254E-04   -0.44040E-06  4624   0.246E-03    0.342E-03
DAV:   7    -0.287175578192E+04   -0.25728E-04   -0.10103E-06  4576   0.104E-03    0.243E-03
DAV:   8    -0.287175580087E+04   -0.18950E-04   -0.31328E-07  4608   0.680E-04    0.133E-03
DAV:   9    -0.287175582508E+04   -0.24212E-04   -0.21483E-07  4704   0.822E-04    0.513E-04
DAV:  10    -0.287175583059E+04   -0.55095E-05   -0.10915E-07  4784   0.473E-04
  15 F= -.29062572E+04 E0= -.29062572E+04  d E =-.103860E-02  mag=     6.0000
       N       E                     dE             d eps       ncg     rms          rms(c)
DAV:   1    -0.287175254619E+04    0.32789E-02   -0.21834E-01  5552   0.397E-01    0.125E-01
DAV:   2    -0.287174972901E+04    0.28172E-02   -0.41562E-03  6496   0.566E-02    0.553E-02
DAV:   3    -0.287175458051E+04   -0.48515E-02   -0.54657E-04  6288   0.154E-02    0.311E-02
DAV:   4    -0.287175570258E+04   -0.11221E-02   -0.10391E-04  6512   0.962E-03    0.133E-02
DAV:   5    -0.287175591435E+04   -0.21177E-03   -0.16119E-05  4976   0.492E-03    0.631E-03
DAV:   6    -0.287175599323E+04   -0.78886E-04   -0.59028E-06  4704   0.288E-03    0.406E-03
DAV:   7    -0.287175602647E+04   -0.33239E-04   -0.12479E-06  4592   0.118E-03    0.287E-03
DAV:   8    -0.287175605304E+04   -0.26568E-04   -0.46705E-07  4576   0.840E-04    0.153E-03
DAV:   9    -0.287175608358E+04   -0.30537E-04   -0.29486E-07  4688   0.100E-03    0.601E-04
DAV:  10    -0.287175609150E+04   -0.79278E-05   -0.19284E-07  4784   0.591E-04
  16 F= -.29062577E+04 E0= -.29062577E+04  d E =-.150706E-02  mag=     6.0000
       N       E                     dE             d eps       ncg     rms          rms(c)
DAV:   1    -0.287175414638E+04    0.19372E-02   -0.16301E-01  5520   0.338E-01    0.105E-01
DAV:   2    -0.287175153624E+04    0.26101E-02   -0.30177E-03  6480   0.477E-02    0.457E-02
DAV:   3    -0.287175561024E+04   -0.40740E-02   -0.42975E-04  6128   0.131E-02    0.254E-02
DAV:   4    -0.287175658811E+04   -0.97787E-03   -0.75175E-05  5888   0.793E-03    0.110E-02
DAV:   5    -0.287175679542E+04   -0.20732E-03   -0.14432E-05  4976   0.427E-03    0.492E-03
DAV:   6    -0.287175685321E+04   -0.57787E-04   -0.33256E-06  4624   0.212E-03    0.347E-03
DAV:   7    -0.287175688811E+04   -0.34897E-04   -0.96625E-07  4576   0.101E-03    0.222E-03
DAV:   8    -0.287175691085E+04   -0.22737E-04   -0.32918E-07  4560   0.689E-04    0.121E-03
DAV:   9    -0.287175693686E+04   -0.26013E-04   -0.19238E-07  4688   0.743E-04    0.436E-04
DAV:  10    -0.287175694752E+04   -0.10662E-04   -0.94702E-08  4736   0.476E-04    0.430E-04
DAV:  11    -0.287175695333E+04   -0.58053E-05    0.21319E-08  4800   0.238E-04
  17 F= -.29062587E+04 E0= -.29062587E+04  d E =-.100270E-02  mag=     6.0000
       N       E                     dE             d eps       ncg     rms          rms(c)
DAV:   1    -0.287175259712E+04    0.43504E-02   -0.27189E-01  5520   0.437E-01    0.136E-01
DAV:   2    -0.287174937901E+04    0.32181E-02   -0.49801E-03  6448   0.614E-02    0.591E-02
DAV:   3    -0.287175546910E+04   -0.60901E-02   -0.67445E-04  6304   0.166E-02    0.329E-02
DAV:   4    -0.287175684016E+04   -0.13711E-02   -0.11637E-04  6496   0.101E-02    0.142E-02
DAV:   5    -0.287175711778E+04   -0.27763E-03   -0.21975E-05  5312   0.536E-03    0.638E-03
DAV:   6    -0.287175720003E+04   -0.82249E-04   -0.54356E-06  4688   0.267E-03    0.457E-03
DAV:   7    -0.287175724439E+04   -0.44362E-04   -0.12665E-06  4560   0.116E-03    0.296E-03
DAV:   8    -0.287175728115E+04   -0.36759E-04   -0.68982E-07  4560   0.955E-04    0.139E-03
DAV:   9    -0.287175731239E+04   -0.31240E-04   -0.32587E-07  4704   0.905E-04    0.584E-04
DAV:  10    -0.287175732853E+04   -0.16133E-04   -0.19637E-07  4736   0.677E-04    0.567E-04
DAV:  11    -0.287175733689E+04   -0.83647E-05   -0.24271E-08  4768   0.339E-04
  18 F= -.29062592E+04 E0= -.29062592E+04  d E =-.156828E-02  mag=     6.0000
       N       E                     dE             d eps       ncg     rms          rms(c)
DAV:   1    -0.287175455730E+04    0.27712E-02   -0.20735E-01  5536   0.380E-01    0.122E-01
DAV:   2    -0.287175153510E+04    0.30222E-02   -0.39154E-03  6496   0.546E-02    0.538E-02
DAV:   3    -0.287175668911E+04   -0.51540E-02   -0.56220E-04  6288   0.153E-02    0.300E-02
DAV:   4    -0.287175788615E+04   -0.11970E-02   -0.10051E-04  6416   0.947E-03    0.127E-02
DAV:   5    -0.287175811383E+04   -0.22768E-03   -0.17945E-05  5168   0.528E-03    0.586E-03
DAV:   6    -0.287175818941E+04   -0.75581E-04   -0.54530E-06  4656   0.279E-03    0.428E-03
DAV:   7    -0.287175822539E+04   -0.35975E-04   -0.11406E-06  4576   0.116E-03    0.299E-03
DAV:   8    -0.287175826235E+04   -0.36967E-04   -0.66713E-07  4544   0.110E-03    0.129E-03
DAV:   9    -0.287175829208E+04   -0.29729E-04   -0.33232E-07  4704   0.106E-03    0.667E-04
DAV:  10    -0.287175830561E+04   -0.13531E-04   -0.27526E-07  4736   0.798E-04    0.686E-04
DAV:  11    -0.287175831336E+04   -0.77469E-05   -0.30147E-08  4768   0.394E-04
  19 F= -.29062604E+04 E0= -.29062604E+04  d E =-.111531E-02  mag=     6.0000
       N       E                     dE             d eps       ncg     rms          rms(c)
DAV:   1    -0.287175621115E+04    0.20945E-02   -0.12997E-01  5536   0.301E-01    0.964E-02
DAV:   2    -0.287175378913E+04    0.24220E-02   -0.24706E-03  6464   0.433E-02    0.426E-02
DAV:   3    -0.287175733379E+04   -0.35447E-02   -0.36126E-04  6016   0.122E-02    0.238E-02
DAV:   4    -0.287175820850E+04   -0.87471E-03   -0.67308E-05  5696   0.763E-03    0.101E-02
DAV:   5    -0.287175838034E+04   -0.17184E-03   -0.12785E-05  4944   0.437E-03    0.468E-03
DAV:   6    -0.287175843109E+04   -0.50747E-04   -0.35602E-06  4624   0.229E-03    0.343E-03
DAV:   7    -0.287175845926E+04   -0.28171E-04   -0.89732E-07  4560   0.104E-03    0.234E-03
DAV:   8    -0.287175848254E+04   -0.23275E-04   -0.33691E-07  4544   0.843E-04    0.117E-03
DAV:   9    -0.287175850560E+04   -0.23061E-04   -0.18747E-07  4704   0.917E-04    0.481E-04
DAV:  10    -0.287175851526E+04   -0.96636E-05   -0.15207E-07  4736   0.616E-04
  20 F= -.29062607E+04 E0= -.29062607E+04  d E =-.142722E-02  mag=     6.0000
       N       E                     dE             d eps       ncg     rms          rms(c)
DAV:   1    -0.287175410828E+04    0.43973E-02   -0.25912E-01  5520   0.420E-01    0.139E-01
DAV:   2    -0.287175070253E+04    0.34057E-02   -0.46615E-03  6464   0.594E-02    0.582E-02
DAV:   3    -0.287175727978E+04   -0.65772E-02   -0.70700E-04  6320   0.166E-02    0.318E-02
DAV:   4    -0.287175871233E+04   -0.14326E-02   -0.11164E-04  6512   0.979E-03    0.140E-02
DAV:   5    -0.287175902813E+04   -0.31580E-03   -0.22315E-05  5312   0.542E-03    0.611E-03
DAV:   6    -0.287175911807E+04   -0.89935E-04   -0.54637E-06  4688   0.265E-03    0.457E-03
DAV:   7    -0.287175916754E+04   -0.49479E-04   -0.12350E-06  4576   0.114E-03    0.297E-03
DAV:   8    -0.287175921225E+04   -0.44705E-04   -0.73518E-07  4544   0.997E-04    0.134E-03
DAV:   9    -0.287175924570E+04   -0.33451E-04   -0.32482E-07  4704   0.920E-04    0.602E-04
DAV:  10    -0.287175926328E+04   -0.17576E-04   -0.21076E-07  4720   0.722E-04    0.588E-04
DAV:  11    -0.287175927200E+04   -0.87278E-05   -0.34745E-08  4784   0.360E-04
  21 F= -.29062616E+04 E0= -.29062616E+04  d E =-.955575E-03  mag=     6.0000
       N       E                     dE             d eps       ncg     rms          rms(c)
DAV:   1    -0.287175731870E+04    0.19446E-02   -0.10537E-01  5552   0.268E-01    0.884E-02
DAV:   2    -0.287175500645E+04    0.23123E-02   -0.19305E-03  6448   0.382E-02    0.371E-02
DAV:   3    -0.287175825392E+04   -0.32475E-02   -0.31464E-04  5696   0.109E-02    0.203E-02
DAV:   4    -0.287175904622E+04   -0.79230E-03   -0.53562E-05  5440   0.652E-03    0.893E-03
DAV:   5    -0.287175923053E+04   -0.18431E-03   -0.10936E-05  4832   0.376E-03    0.388E-03
DAV:   6    -0.287175927505E+04   -0.44525E-04   -0.25585E-06  4656   0.182E-03    0.293E-03
DAV:   7    -0.287175930557E+04   -0.30518E-04   -0.73809E-07  4576   0.923E-04    0.187E-03
DAV:   8    -0.287175932481E+04   -0.19235E-04   -0.21635E-07  4576   0.613E-04    0.107E-03
DAV:   9    -0.287175934574E+04   -0.20937E-04   -0.11108E-07  4704   0.674E-04    0.389E-04
DAV:  10    -0.287175935447E+04   -0.87272E-05   -0.56030E-08  4752   0.432E-04
  22 F= -.29062618E+04 E0= -.29062618E+04  d E =-.116491E-02  mag=     6.0000
       N       E                     dE             d eps       ncg     rms          rms(c)
DAV:   1    -0.287175466044E+04    0.46853E-02   -0.23088E-01  5504   0.385E-01    0.128E-01
DAV:   2    -0.287175104823E+04    0.36122E-02   -0.39453E-03  6496   0.545E-02    0.559E-02
DAV:   3    -0.287175787390E+04   -0.68257E-02   -0.69511E-04  6368   0.161E-02    0.300E-02
DAV:   4    -0.287175946030E+04   -0.15864E-02   -0.12028E-04  6496   0.940E-03    0.132E-02
DAV:   5    -0.287175978114E+04   -0.32084E-03   -0.18360E-05  5088   0.490E-03    0.576E-03
DAV:   6    -0.287175988572E+04   -0.10459E-03   -0.59416E-06  4640   0.267E-03    0.405E-03
DAV:   7    -0.287175993426E+04   -0.48540E-04   -0.12266E-06  4624   0.111E-03    0.275E-03
DAV:   8    -0.287175997706E+04   -0.42799E-04   -0.79227E-07  4496   0.887E-04    0.133E-03
DAV:   9    -0.287176001824E+04   -0.41176E-04   -0.43031E-07  4688   0.879E-04    0.612E-04
DAV:  10    -0.287176003459E+04   -0.16349E-04   -0.19739E-07  4784   0.599E-04    0.558E-04
DAV:  11    -0.287176004591E+04   -0.11327E-04   -0.20455E-08  4720   0.328E-04    0.495E-04
DAV:  12    -0.287176006422E+04   -0.18303E-04   -0.15602E-08  4656   0.358E-04    0.261E-04
DAV:  13    -0.287176007594E+04   -0.11725E-04    0.92529E-09  4752   0.290E-04    0.236E-04
DAV:  14    -0.287176008189E+04   -0.59465E-05    0.40022E-08  4736   0.202E-04
  23 F= -.29062628E+04 E0= -.29062628E+04  d E =-.981231E-03  mag=     6.0000
       N       E                     dE             d eps       ncg     rms          rms(c)
DAV:   1    -0.287175445088E+04    0.56251E-02   -0.24599E-01  5504   0.397E-01    0.133E-01
DAV:   2    -0.287175075321E+04    0.36977E-02   -0.41986E-03  6496   0.563E-02    0.577E-02
DAV:   3    -0.287175793590E+04   -0.71827E-02   -0.73631E-04  6352   0.165E-02    0.310E-02
DAV:   4    -0.287175959139E+04   -0.16555E-02   -0.12741E-04  6496   0.969E-03    0.136E-02
DAV:   5    -0.287175992049E+04   -0.32909E-03   -0.19491E-05  5152   0.504E-03    0.596E-03
DAV:   6    -0.287176002651E+04   -0.10603E-03   -0.62567E-06  4640   0.274E-03    0.417E-03
DAV:   7    -0.287176007543E+04   -0.48917E-04   -0.12935E-06  4640   0.114E-03    0.282E-03
DAV:   8    -0.287176011736E+04   -0.41933E-04   -0.83323E-07  4480   0.908E-04    0.137E-03
DAV:   9    -0.287176015786E+04   -0.40497E-04   -0.45260E-07  4688   0.900E-04    0.613E-04
DAV:  10    -0.287176017400E+04   -0.16138E-04   -0.20787E-07  4784   0.611E-04    0.563E-04
DAV:  11    -0.287176018489E+04   -0.10891E-04   -0.22524E-08  4720   0.332E-04    0.502E-04
DAV:  12    -0.287176020281E+04   -0.17923E-04   -0.15658E-08  4640   0.362E-04    0.264E-04
DAV:  13    -0.287176021453E+04   -0.11722E-04    0.84231E-09  4768   0.296E-04    0.240E-04
DAV:  14    -0.287176022044E+04   -0.59048E-05    0.39635E-08  4704   0.207E-04
  24 F= -.29062632E+04 E0= -.29062632E+04  d E =-.138183E-02  mag=     6.0000
       N       E                     dE             d eps       ncg     rms          rms(c)
DAV:   1    -0.287175506597E+04    0.51486E-02   -0.23564E-01  5504   0.384E-01    0.129E-01
DAV:   2    -0.287175127161E+04    0.37944E-02   -0.39658E-03  6496   0.545E-02    0.562E-02
DAV:   3    -0.287175857521E+04   -0.73036E-02   -0.73630E-04  6368   0.163E-02    0.300E-02
DAV:   4    -0.287176028826E+04   -0.17130E-02   -0.12694E-04  6336   0.952E-03    0.132E-02
DAV:   5    -0.287176063452E+04   -0.34626E-03   -0.19609E-05  5232   0.510E-03    0.571E-03
DAV:   6    -0.287176073623E+04   -0.10170E-03   -0.59632E-06  4720   0.272E-03    0.410E-03
DAV:   7    -0.287176078405E+04   -0.47828E-04   -0.12268E-06  4624   0.113E-03    0.275E-03
DAV:   8    -0.287176082717E+04   -0.43119E-04   -0.81092E-07  4496   0.955E-04    0.131E-03
DAV:   9    -0.287176086753E+04   -0.40356E-04   -0.43926E-07  4656   0.954E-04    0.604E-04
DAV:  10    -0.287176088599E+04   -0.18457E-04   -0.22453E-07  4784   0.681E-04    0.551E-04
DAV:  11    -0.287176089736E+04   -0.11377E-04   -0.33488E-08  4672   0.373E-04    0.539E-04
DAV:  12    -0.287176091154E+04   -0.14172E-04    0.39235E-09  4656   0.320E-04    0.294E-04
DAV:  13    -0.287176092687E+04   -0.15336E-04    0.14945E-09  4672   0.347E-04    0.287E-04
DAV:  14    -0.287176093343E+04   -0.65615E-05    0.31794E-08  4736   0.243E-04
  25 F= -.29062643E+04 E0= -.29062643E+04  d E =-.106441E-02  mag=     6.0000
       N       E                     dE             d eps       ncg     rms          rms(c)
DAV:   1    -0.287175437817E+04    0.65487E-02   -0.26527E-01  5504   0.407E-01    0.137E-01
DAV:   2    -0.287175049821E+04    0.38800E-02   -0.44393E-03  6480   0.577E-02    0.597E-02
DAV:   3    -0.287175846341E+04   -0.79652E-02   -0.80517E-04  6384   0.171E-02    0.318E-02
DAV:   4    -0.287176031671E+04   -0.18533E-02   -0.14084E-04  6368   0.101E-02    0.140E-02
DAV:   5    -0.287176068622E+04   -0.36951E-03   -0.21815E-05  5328   0.539E-03    0.607E-03
DAV:   6    -0.287176079671E+04   -0.11049E-03   -0.66729E-06  4704   0.288E-03    0.435E-03
DAV:   7    -0.287176084917E+04   -0.52451E-04   -0.13561E-06  4640   0.119E-03    0.291E-03
DAV:   8    -0.287176089678E+04   -0.47610E-04   -0.92640E-07  4496   0.102E-03    0.137E-03
DAV:   9    -0.287176094036E+04   -0.43582E-04   -0.50273E-07  4640   0.101E-03    0.640E-04
DAV:  10    -0.287176096050E+04   -0.20145E-04   -0.26169E-07  4784   0.724E-04    0.586E-04
DAV:  11    -0.287176097283E+04   -0.12328E-04   -0.46772E-08  4688   0.394E-04    0.571E-04
DAV:  12    -0.287176098814E+04   -0.15307E-04   -0.49034E-09  4672   0.339E-04    0.312E-04
DAV:  13    -0.287176100496E+04   -0.16819E-04   -0.89891E-09  4656   0.374E-04    0.305E-04
DAV:  14    -0.287176101182E+04   -0.68661E-05    0.26485E-08  4752   0.256E-04
  26 F= -.29062647E+04 E0= -.29062647E+04  d E =-.151572E-02  mag=     6.0000
       N       E                     dE             d eps       ncg     rms          rms(c)
DAV:   1    -0.287175313130E+04    0.78737E-02   -0.33551E-01  5504   0.456E-01    0.155E-01
DAV:   2    -0.287174896136E+04    0.41699E-02   -0.55098E-03  6448   0.644E-02    0.664E-02
DAV:   3    -0.287175874708E+04   -0.97857E-02   -0.99565E-04  6384   0.188E-02    0.352E-02
DAV:   4    -0.287176092968E+04   -0.21826E-02   -0.16457E-04  6496   0.108E-02    0.157E-02
DAV:   5    -0.287176140075E+04   -0.47108E-03   -0.29480E-05  5440   0.598E-03    0.666E-03
DAV:   6    -0.287176152669E+04   -0.12593E-03   -0.81119E-06  4816   0.302E-03    0.512E-03
DAV:   7    -0.287176159349E+04   -0.66804E-04   -0.16112E-06  4656   0.124E-03    0.334E-03
DAV:   8    -0.287176165404E+04   -0.60551E-04   -0.12831E-06  4480   0.105E-03    0.155E-03
DAV:   9    -0.287176170549E+04   -0.51448E-04   -0.62821E-07  4640   0.949E-04    0.684E-04
DAV:  10    -0.287176173213E+04   -0.26643E-04   -0.29261E-07  4768   0.706E-04    0.594E-04
DAV:  11    -0.287176174698E+04   -0.14848E-04   -0.72094E-08  4720   0.378E-04    0.558E-04
DAV:  12    -0.287176176399E+04   -0.17010E-04   -0.20455E-08  4688   0.286E-04    0.322E-04
DAV:  13    -0.287176178400E+04   -0.20009E-04   -0.30267E-08  4656   0.335E-04    0.368E-04
DAV:  14    -0.287176179059E+04   -0.65853E-05    0.26786E-08  4784   0.232E-04
  27 F= -.29062660E+04 E0= -.29062660E+04  d E =-.124763E-02  mag=     6.0000
       N       E                     dE             d eps       ncg     rms          rms(c)
DAV:   1    -0.287175177554E+04    0.10008E-01   -0.38595E-01  5504   0.489E-01    0.167E-01
DAV:   2    -0.287174756196E+04    0.42136E-02   -0.63320E-03  6448   0.691E-02    0.712E-02
DAV:   3    -0.287175843229E+04   -0.10870E-01   -0.11225E-03  6352   0.200E-02    0.377E-02
DAV:   4    -0.287176081711E+04   -0.23848E-02   -0.18454E-04  6560   0.115E-02    0.169E-02
DAV:   5    -0.287176132739E+04   -0.51028E-03   -0.33373E-05  5504   0.639E-03    0.718E-03
DAV:   6    -0.287176146736E+04   -0.13997E-03   -0.93682E-06  4768   0.324E-03    0.551E-03
DAV:   7    -0.287176154161E+04   -0.74246E-04   -0.18395E-06  4656   0.132E-03    0.358E-03
DAV:   8    -0.287176160998E+04   -0.68368E-04   -0.15215E-06  4480   0.113E-03    0.166E-03
DAV:   9    -0.287176166670E+04   -0.56721E-04   -0.73467E-07  4640   0.102E-03    0.735E-04
DAV:  10    -0.287176169665E+04   -0.29950E-04   -0.34769E-07  4752   0.763E-04    0.634E-04
DAV:  11    -0.287176171326E+04   -0.16614E-04   -0.96186E-08  4736   0.409E-04    0.599E-04
DAV:  12    -0.287176173161E+04   -0.18346E-04   -0.32309E-08  4672   0.301E-04    0.348E-04
DAV:  13    -0.287176175430E+04   -0.22689E-04   -0.50383E-08  4656   0.367E-04    0.403E-04
DAV:  14    -0.287176176140E+04   -0.70995E-05    0.18178E-08  4784   0.252E-04
  28 F= -.29062665E+04 E0= -.29062665E+04  d E =-.172140E-02  mag=     6.0000
       N       E                     dE             d eps       ncg     rms          rms(c)
DAV:   1    -0.287175513110E+04    0.66232E-02   -0.26718E-01  5488   0.400E-01    0.133E-01
DAV:   2    -0.287175105844E+04    0.40727E-02   -0.42149E-03  6480   0.556E-02    0.583E-02
DAV:   3    -0.287175961692E+04   -0.85585E-02   -0.83222E-04  6336   0.164E-02    0.305E-02
DAV:   4    -0.287176167192E+04   -0.20550E-02   -0.14922E-04  6288   0.949E-03    0.136E-02
DAV:   5    -0.287176211500E+04   -0.44308E-03   -0.23727E-05  5328   0.483E-03    0.560E-03
DAV:   6    -0.287176222340E+04   -0.10841E-03   -0.51620E-06  4736   0.233E-03    0.386E-03
DAV:   7    -0.287176229188E+04   -0.68479E-04   -0.14969E-06  4624   0.111E-03    0.230E-03
DAV:   8    -0.287176233555E+04   -0.43670E-04   -0.79830E-07  4512   0.745E-04    0.124E-03
DAV:   9    -0.287176238396E+04   -0.48406E-04   -0.48507E-07  4608   0.714E-04    0.519E-04
DAV:  10    -0.287176240578E+04   -0.21826E-04   -0.16314E-07  4816   0.455E-04    0.454E-04
DAV:  11    -0.287176241883E+04   -0.13041E-04   -0.16671E-08  4672   0.250E-04    0.385E-04
DAV:  12    -0.287176244171E+04   -0.22885E-04   -0.45261E-08  4672   0.290E-04    0.238E-04
DAV:  13    -0.287176245533E+04   -0.13617E-04    0.61910E-10  4736   0.243E-04    0.211E-04
DAV:  14    -0.287176245878E+04   -0.34506E-05    0.46773E-08  4816   0.148E-04
  29 F= -.29062675E+04 E0= -.29062675E+04  d E =-.104702E-02  mag=     6.0000
       N       E                     dE             d eps       ncg     rms          rms(c)
DAV:   1    -0.287174276296E+04    0.19692E-01   -0.73305E-01  5456   0.663E-01    0.220E-01
DAV:   2    -0.287173902775E+04    0.37352E-02   -0.11454E-02  6416   0.920E-02    0.966E-02
DAV:   3    -0.287175720933E+04   -0.18182E-01   -0.18956E-03  6400   0.255E-02    0.504E-02
DAV:   4    -0.287176114994E+04   -0.39406E-02   -0.33093E-04  6528   0.150E-02    0.226E-02
DAV:   5    -0.287176194906E+04   -0.79912E-03   -0.59853E-05  6368   0.777E-03    0.970E-03
DAV:   6    -0.287176218039E+04   -0.23134E-03   -0.14704E-05  4848   0.377E-03    0.655E-03
DAV:   7    -0.287176232598E+04   -0.14559E-03   -0.33390E-06  4736   0.166E-03    0.373E-03
DAV:   8    -0.287176242750E+04   -0.10153E-03   -0.23737E-06  4576   0.125E-03    0.195E-03
DAV:   9    -0.287176252423E+04   -0.96721E-04   -0.12648E-06  4608   0.116E-03    0.860E-04
DAV:  10    -0.287176257378E+04   -0.49556E-04   -0.55976E-07  4752   0.773E-04    0.754E-04
DAV:  11    -0.287176260000E+04   -0.26221E-04   -0.14462E-07  4720   0.395E-04    0.654E-04
DAV:  12    -0.287176263830E+04   -0.38300E-04   -0.16517E-07  4640   0.385E-04    0.395E-04
DAV:  13    -0.287176267433E+04   -0.36024E-04   -0.15988E-07  4688   0.453E-04    0.414E-04
DAV:  14    -0.287176267968E+04   -0.53562E-05    0.56806E-10  4864   0.243E-04
  30 F= -.29062683E+04 E0= -.29062683E+04  d E =-.184714E-02  mag=     6.0000
       N       E                     dE             d eps       ncg     rms          rms(c)
DAV:   1    -0.287175682216E+04    0.58522E-02   -0.24635E-01  5488   0.386E-01    0.141E-01
DAV:   2    -0.287175286689E+04    0.39553E-02   -0.41446E-03  6496   0.559E-02    0.593E-02
DAV:   3    -0.287176111831E+04   -0.82514E-02   -0.84475E-04  6368   0.174E-02    0.314E-02
DAV:   4    -0.287176295821E+04   -0.18399E-02   -0.13584E-04  6496   0.986E-03    0.139E-02
DAV:   5    -0.287176334857E+04   -0.39035E-03   -0.21526E-05  5152   0.547E-03    0.596E-03
DAV:   6    -0.287176345496E+04   -0.10640E-03   -0.65474E-06  4752   0.290E-03    0.467E-03
DAV:   7    -0.287176350537E+04   -0.50409E-04   -0.13071E-06  4640   0.119E-03    0.321E-03
DAV:   8    -0.287176355357E+04   -0.48199E-04   -0.97380E-07  4480   0.107E-03    0.142E-03
DAV:   9    -0.287176359237E+04   -0.38794E-04   -0.44847E-07  4688   0.987E-04    0.661E-04
DAV:  10    -0.287176361234E+04   -0.19974E-04   -0.26797E-07  4736   0.748E-04    0.650E-04
DAV:  11    -0.287176362229E+04   -0.99516E-05   -0.46010E-08  4768   0.372E-04
  31 F= -.29062695E+04 E0= -.29062695E+04  d E =-.124419E-02  mag=     6.0000
       N       E                     dE             d eps       ncg     rms          rms(c)
DAV:   1    -0.287175664292E+04    0.69694E-02   -0.25600E-01  5472   0.394E-01    0.144E-01
DAV:   2    -0.287175269401E+04    0.39489E-02   -0.42948E-03  6464   0.570E-02    0.605E-02
DAV:   3    -0.287176118179E+04   -0.84878E-02   -0.86631E-04  6384   0.176E-02    0.320E-02
DAV:   4    -0.287176307597E+04   -0.18942E-02   -0.14116E-04  6496   0.101E-02    0.142E-02
DAV:   5    -0.287176348145E+04   -0.40548E-03   -0.22454E-05  5152   0.562E-03    0.609E-03
DAV:   6    -0.287176359494E+04   -0.11349E-03   -0.69907E-06  4752   0.299E-03    0.481E-03
DAV:   7    -0.287176364837E+04   -0.53434E-04   -0.13568E-06  4624   0.122E-03    0.332E-03
DAV:   8    -0.287176370164E+04   -0.53270E-04   -0.10488E-06  4480   0.112E-03    0.148E-03
DAV:   9    -0.287176374414E+04   -0.42503E-04   -0.49981E-07  4672   0.104E-03    0.701E-04
DAV:  10    -0.287176376604E+04   -0.21900E-04   -0.29915E-07  4752   0.786E-04    0.678E-04
DAV:  11    -0.287176377756E+04   -0.11516E-04   -0.58027E-08  4736   0.400E-04    0.636E-04
DAV:  12    -0.287176379379E+04   -0.16234E-04   -0.15892E-08  4688   0.346E-04    0.339E-04
DAV:  13    -0.287176380918E+04   -0.15386E-04   -0.10062E-08  4672   0.346E-04    0.382E-04
DAV:  14    -0.287176381516E+04   -0.59780E-05    0.31181E-08  4768   0.239E-04
  32 F= -.29062700E+04 E0= -.29062700E+04  d E =-.174449E-02  mag=     6.0000
       N       E                     dE             d eps       ncg     rms          rms(c)
DAV:   1    -0.287175551085E+04    0.82983E-02   -0.31222E-01  5472   0.429E-01    0.149E-01
DAV:   2    -0.287175135281E+04    0.41580E-02   -0.48526E-03  6480   0.600E-02    0.647E-02
DAV:   3    -0.287176143646E+04   -0.10084E-01   -0.99164E-04  6352   0.181E-02    0.336E-02
DAV:   4    -0.287176379353E+04   -0.23571E-02   -0.17916E-04  6496   0.104E-02    0.149E-02
DAV:   5    -0.287176427527E+04   -0.48174E-03   -0.24447E-05  5280   0.502E-03    0.623E-03
DAV:   6    -0.287176439392E+04   -0.11864E-03   -0.56195E-06  4768   0.249E-03    0.423E-03
DAV:   7    -0.287176446189E+04   -0.67972E-04   -0.14207E-06  4640   0.112E-03    0.259E-03
DAV:   8    -0.287176450911E+04   -0.47218E-04   -0.78162E-07  4560   0.801E-04    0.134E-03
DAV:   9    -0.287176455290E+04   -0.43793E-04   -0.39742E-07  4688   0.724E-04    0.573E-04
DAV:  10    -0.287176457201E+04   -0.19109E-04   -0.14680E-07  4752   0.475E-04    0.502E-04
DAV:  11    -0.287176458286E+04   -0.10854E-04   -0.81921E-09  4784   0.247E-04    0.424E-04
DAV:  12    -0.287176460303E+04   -0.20169E-04   -0.26415E-08  4672   0.308E-04    0.266E-04
DAV:  13    -0.287176461361E+04   -0.10580E-04    0.12545E-08  4784   0.248E-04    0.239E-04
DAV:  14    -0.287176461788E+04   -0.42698E-05    0.43780E-08  4720   0.177E-04
  33 F= -.29062712E+04 E0= -.29062712E+04  d E =-.118622E-02  mag=     6.0000
       N       E                     dE             d eps       ncg     rms          rms(c)
DAV:   1    -0.287175127100E+04    0.13343E-01   -0.46468E-01  5456   0.524E-01    0.182E-01
DAV:   2    -0.287174708107E+04    0.41899E-02   -0.72060E-03  6464   0.732E-02    0.789E-02
DAV:   3    -0.287176067621E+04   -0.13595E-01   -0.13953E-03  6336   0.216E-02    0.410E-02
DAV:   4    -0.287176371324E+04   -0.30370E-02   -0.24493E-04  6576   0.125E-02    0.181E-02
DAV:   5    -0.287176431852E+04   -0.60528E-03   -0.34857E-05  5648   0.606E-03    0.770E-03
DAV:   6    -0.287176447295E+04   -0.15443E-03   -0.83956E-06  4832   0.300E-03    0.522E-03
DAV:   7    -0.287176456385E+04   -0.90898E-04   -0.19342E-06  4608   0.133E-03    0.314E-03
DAV:   8    -0.287176463039E+04   -0.66537E-04   -0.11989E-06  4528   0.972E-04    0.160E-03
DAV:   9    -0.287176468750E+04   -0.57111E-04   -0.59050E-07  4672   0.871E-04    0.698E-04
DAV:  10    -0.287176471399E+04   -0.26490E-04   -0.24734E-07  4752   0.586E-04    0.611E-04
DAV:  11    -0.287176472840E+04   -0.14415E-04   -0.43912E-08  4784   0.298E-04    0.518E-04
DAV:  12    -0.287176475377E+04   -0.25363E-04   -0.63408E-08  4672   0.355E-04    0.324E-04
DAV:  13    -0.287176476901E+04   -0.15246E-04   -0.20426E-08  4784   0.314E-04    0.308E-04
DAV:  14    -0.287176477433E+04   -0.53140E-05    0.28704E-08  4736   0.220E-04
  34 F= -.29062719E+04 E0= -.29062719E+04  d E =-.181056E-02  mag=     6.0000
       N       E                     dE             d eps       ncg     rms          rms(c)
DAV:   1    -0.287175436098E+04    0.10408E-01   -0.40779E-01  5456   0.496E-01    0.175E-01
DAV:   2    -0.287175008473E+04    0.42763E-02   -0.65798E-03  6448   0.705E-02    0.739E-02
DAV:   3    -0.287176222925E+04   -0.12145E-01   -0.12753E-03  6336   0.211E-02    0.386E-02
DAV:   4    -0.287176483958E+04   -0.26103E-02   -0.19850E-04  6560   0.118E-02    0.175E-02
DAV:   5    -0.287176542091E+04   -0.58132E-03   -0.35497E-05  5520   0.661E-03    0.716E-03
DAV:   6    -0.287176554535E+04   -0.12444E-03   -0.81350E-06  4768   0.310E-03    0.574E-03
DAV:   7    -0.287176561638E+04   -0.71032E-04   -0.17036E-06  4688   0.133E-03    0.366E-03
DAV:   8    -0.287176568300E+04   -0.66617E-04   -0.12470E-06  4544   0.119E-03    0.161E-03
DAV:   9    -0.287176572612E+04   -0.43124E-04   -0.46985E-07  4720   0.986E-04    0.742E-04
DAV:  10    -0.287176575218E+04   -0.26055E-04   -0.28614E-07  4688   0.798E-04    0.664E-04
DAV:  11    -0.287176576274E+04   -0.10565E-04   -0.77921E-08  4768   0.381E-04    0.663E-04
DAV:  12    -0.287176577478E+04   -0.12032E-04   -0.23755E-09  4688   0.251E-04    0.392E-04
DAV:  13    -0.287176579446E+04   -0.19686E-04   -0.52010E-08  4720   0.394E-04    0.581E-04
DAV:  14    -0.287176579872E+04   -0.42627E-05    0.23895E-08  4832   0.262E-04
  35 F= -.29062734E+04 E0= -.29062734E+04  d E =-.149831E-02  mag=     6.0000
       N       E                     dE             d eps       ncg     rms          rms(c)
DAV:   1    -0.287175588846E+04    0.99060E-02   -0.35412E-01  5488   0.463E-01    0.163E-01
DAV:   2    -0.287175167512E+04    0.42133E-02   -0.57212E-03  6448   0.657E-02    0.688E-02
DAV:   3    -0.287176257296E+04   -0.10898E-01   -0.11325E-03  6352   0.198E-02    0.360E-02
DAV:   4    -0.287176495014E+04   -0.23772E-02   -0.17795E-04  6480   0.111E-02    0.163E-02
DAV:   5    -0.287176548405E+04   -0.53391E-03   -0.31285E-05  5360   0.619E-03    0.662E-03
DAV:   6    -0.287176559709E+04   -0.11304E-03   -0.71260E-06  4768   0.292E-03    0.530E-03
DAV:   7    -0.287176566122E+04   -0.64129E-04   -0.15224E-06  4656   0.126E-03    0.341E-03
DAV:   8    -0.287176572006E+04   -0.58835E-04   -0.10628E-06  4544   0.110E-03    0.152E-03
DAV:   9    -0.287176575941E+04   -0.39356E-04   -0.40526E-07  4736   0.925E-04    0.694E-04
DAV:  10    -0.287176578236E+04   -0.22949E-04   -0.24367E-07  4688   0.737E-04    0.630E-04
DAV:  11    -0.287176579187E+04   -0.95057E-05   -0.57565E-08  4768   0.355E-04
  36 F= -.29062738E+04 E0= -.29062738E+04  d E =-.193314E-02  mag=     6.0000
       N       E                     dE             d eps       ncg     rms          rms(c)
DAV:   1    -0.287175543541E+04    0.10347E-01   -0.38025E-01  5472   0.472E-01    0.162E-01
DAV:   2    -0.287175111202E+04    0.43234E-02   -0.58959E-03  6432   0.660E-02    0.703E-02
DAV:   3    -0.287176296926E+04   -0.11857E-01   -0.11961E-03  6352   0.195E-02    0.363E-02
DAV:   4    -0.287176570787E+04   -0.27386E-02   -0.21154E-04  6512   0.113E-02    0.161E-02
DAV:   5    -0.287176626520E+04   -0.55733E-03   -0.30462E-05  5440   0.579E-03    0.671E-03
DAV:   6    -0.287176639400E+04   -0.12880E-03   -0.66886E-06  4752   0.269E-03    0.476E-03
DAV:   7    -0.287176647170E+04   -0.77701E-04   -0.15231E-06  4624   0.117E-03    0.291E-03
DAV:   8    -0.287176653468E+04   -0.62973E-04   -0.10012E-06  4512   0.963E-04    0.142E-03
DAV:   9    -0.287176658421E+04   -0.49539E-04   -0.46633E-07  4720   0.858E-04    0.707E-04
DAV:  10    -0.287176661037E+04   -0.26159E-04   -0.23811E-07  4688   0.642E-04    0.604E-04
DAV:  11    -0.287176662493E+04   -0.14559E-04   -0.52772E-08  4784   0.342E-04    0.536E-04
DAV:  12    -0.287176664259E+04   -0.17658E-04   -0.25483E-08  4720   0.298E-04    0.330E-04
DAV:  13    -0.287176665938E+04   -0.16788E-04   -0.27658E-08  4736   0.337E-04    0.368E-04
DAV:  14    -0.287176666433E+04   -0.49501E-05    0.26036E-08  4816   0.236E-04
  37 F= -.29062751E+04 E0= -.29062751E+04  d E =-.131715E-02  mag=     6.0000
       N       E                     dE             d eps       ncg     rms          rms(c)
DAV:   1    -0.287174060539E+04    0.26054E-01   -0.90742E-01  5472   0.729E-01    0.251E-01
DAV:   2    -0.287173782819E+04    0.27772E-02   -0.13999E-02  6400   0.102E-01    0.109E-01
DAV:   3    -0.287176035281E+04   -0.22525E-01   -0.23766E-03  6416   0.284E-02    0.561E-02
DAV:   4    -0.287176511540E+04   -0.47626E-02   -0.41622E-04  6528   0.168E-02    0.249E-02
DAV:   5    -0.287176602949E+04   -0.91409E-03   -0.69178E-05  6480   0.878E-03    0.108E-02
DAV:   6    -0.287176624894E+04   -0.21945E-03   -0.15123E-05  5008   0.396E-03    0.752E-03
DAV:   7    -0.287176639087E+04   -0.14193E-03   -0.29104E-06  4656   0.165E-03    0.438E-03
DAV:   8    -0.287176651079E+04   -0.11992E-03   -0.22775E-06  4528   0.144E-03    0.212E-03
DAV:   9    -0.287176659549E+04   -0.84696E-04   -0.10419E-06  4704   0.129E-03    0.104E-03
DAV:  10    -0.287176664455E+04   -0.49065E-04   -0.58782E-07  4672   0.987E-04    0.882E-04
DAV:  11    -0.287176666923E+04   -0.24682E-04   -0.18749E-07  4784   0.503E-04    0.807E-04
DAV:  12    -0.287176669395E+04   -0.24717E-04   -0.89868E-08  4672   0.363E-04    0.493E-04
DAV:  13    -0.287176672863E+04   -0.34682E-04   -0.16454E-07  4704   0.542E-04    0.555E-04
DAV:  14    -0.287176673594E+04   -0.73021E-05   -0.27009E-08  4848   0.338E-04
  38 F= -.29062759E+04 E0= -.29062759E+04  d E =-.207576E-02  mag=     6.0000
       N       E                     dE             d eps       ncg     rms          rms(c)
DAV:   1    -0.287175215721E+04    0.14571E-01   -0.53080E-01  5504   0.555E-01    0.196E-01
DAV:   2    -0.287174793343E+04    0.42238E-02   -0.82454E-03  6432   0.781E-02    0.831E-02
DAV:   3    -0.287176332529E+04   -0.15392E-01   -0.15933E-03  6368   0.231E-02    0.429E-02
DAV:   4    -0.287176668310E+04   -0.33578E-02   -0.26891E-04  6528   0.133E-02    0.192E-02
DAV:   5    -0.287176737195E+04   -0.68885E-03   -0.43158E-05  5904   0.710E-03    0.829E-03
DAV:   6    -0.287176752864E+04   -0.15669E-03   -0.99362E-06  4800   0.333E-03    0.624E-03
DAV:   7    -0.287176762432E+04   -0.95674E-04   -0.20369E-06  4672   0.142E-03    0.378E-03
DAV:   8    -0.287176770799E+04   -0.83676E-04   -0.15768E-06  4496   0.126E-03    0.172E-03
DAV:   9    -0.287176776727E+04   -0.59276E-04   -0.68997E-07  4672   0.110E-03    0.818E-04
DAV:  10    -0.287176780306E+04   -0.35787E-04   -0.39250E-07  4688   0.869E-04    0.716E-04
DAV:  11    -0.287176781978E+04   -0.16721E-04   -0.11315E-07  4752   0.433E-04    0.689E-04
DAV:  12    -0.287176783694E+04   -0.17160E-04   -0.26430E-08  4672   0.291E-04    0.419E-04
DAV:  13    -0.287176786509E+04   -0.28148E-04   -0.97743E-08  4704   0.476E-04    0.549E-04
DAV:  14    -0.287176787058E+04   -0.54983E-05    0.45784E-09  4864   0.286E-04
  39 F= -.29062775E+04 E0= -.29062775E+04  d E =-.165279E-02  mag=     6.0000
       N       E                     dE             d eps       ncg     rms          rms(c)
DAV:   1    -0.287174909048E+04    0.18775E-01   -0.64196E-01  5472   0.610E-01    0.215E-01
DAV:   2    -0.287174516655E+04    0.39239E-02   -0.99580E-03  6416   0.859E-02    0.914E-02
DAV:   3    -0.287176284853E+04   -0.17682E-01   -0.18522E-03  6416   0.250E-02    0.472E-02
DAV:   4    -0.287176662865E+04   -0.37801E-02   -0.30953E-04  6512   0.145E-02    0.211E-02
DAV:   5    -0.287176739928E+04   -0.77063E-03   -0.52172E-05  6368   0.778E-03    0.930E-03
DAV:   6    -0.287176757595E+04   -0.17667E-03   -0.11668E-05  4896   0.360E-03    0.693E-03
DAV:   7    -0.287176768661E+04   -0.11066E-03   -0.23022E-06  4640   0.151E-03    0.412E-03
DAV:   8    -0.287176778453E+04   -0.97913E-04   -0.18798E-06  4496   0.139E-03    0.188E-03
DAV:   9    -0.287176785217E+04   -0.67646E-04   -0.84561E-07  4688   0.122E-03    0.895E-04
DAV:  10    -0.287176789370E+04   -0.41528E-04   -0.47629E-07  4688   0.953E-04    0.779E-04
DAV:  11    -0.287176791335E+04   -0.19647E-04   -0.14962E-07  4752   0.480E-04    0.753E-04
DAV:  12    -0.287176793237E+04   -0.19020E-04   -0.41467E-08  4688   0.312E-04    0.462E-04
DAV:  13    -0.287176796571E+04   -0.33342E-04   -0.13769E-07  4704   0.538E-04    0.592E-04
DAV:  14    -0.287176797140E+04   -0.56926E-05   -0.11139E-08  4864   0.306E-04
  40 F= -.29062782E+04 E0= -.29062782E+04  d E =-.232340E-02  mag=     6.0000
       N       E                     dE             d eps       ncg     rms          rms(c)
DAV:   1    -0.287174831927E+04    0.19646E-01   -0.71907E-01  5456   0.646E-01    0.225E-01
DAV:   2    -0.287174464123E+04    0.36780E-02   -0.11146E-02  6432   0.908E-02    0.977E-02
DAV:   3    -0.287176382450E+04   -0.19183E-01   -0.20143E-03  6400   0.262E-02    0.508E-02
DAV:   4    -0.287176797905E+04   -0.41545E-02   -0.36084E-04  6528   0.156E-02    0.222E-02
DAV:   5    -0.287176875522E+04   -0.77618E-03   -0.54860E-05  6288   0.790E-03    0.998E-03
DAV:   6    -0.287176894305E+04   -0.18782E-03   -0.12495E-05  4864   0.374E-03    0.703E-03
DAV:   7    -0.287176906517E+04   -0.12212E-03   -0.26125E-06  4608   0.159E-03    0.411E-03
DAV:   8    -0.287176916751E+04   -0.10234E-03   -0.20006E-06  4496   0.139E-03    0.192E-03
DAV:   9    -0.287176924205E+04   -0.74538E-04   -0.91691E-07  4688   0.123E-03    0.914E-04
DAV:  10    -0.287176928472E+04   -0.42674E-04   -0.50406E-07  4704   0.919E-04    0.830E-04
DAV:  11    -0.287176930376E+04   -0.19041E-04   -0.12879E-07  4800   0.434E-04    0.766E-04
DAV:  12    -0.287176932873E+04   -0.24966E-04   -0.59995E-08  4656   0.353E-04    0.454E-04
DAV:  13    -0.287176936307E+04   -0.34342E-04   -0.12324E-07  4704   0.542E-04    0.570E-04
DAV:  14    -0.287176936899E+04   -0.59181E-05   -0.11552E-08  4880   0.301E-04
  41 F= -.29062802E+04 E0= -.29062802E+04  d E =-.199204E-02  mag=     6.0000
       N       E                     dE             d eps       ncg     rms          rms(c)
DAV:   1    -0.287174666586E+04    0.22697E-01   -0.78001E-01  5456   0.673E-01    0.234E-01
DAV:   2    -0.287174328957E+04    0.33763E-02   -0.12086E-02  6432   0.945E-02    0.102E-01
DAV:   3    -0.287176360222E+04   -0.20313E-01   -0.21515E-03  6400   0.271E-02    0.530E-02
DAV:   4    -0.287176796286E+04   -0.43606E-02   -0.38398E-04  6544   0.162E-02    0.231E-02
DAV:   5    -0.287176877583E+04   -0.81297E-03   -0.59396E-05  6400   0.822E-03    0.104E-02
DAV:   6    -0.287176897404E+04   -0.19821E-03   -0.13522E-05  4880   0.389E-03    0.733E-03
DAV:   7    -0.287176910362E+04   -0.12958E-03   -0.28114E-06  4624   0.165E-03    0.427E-03
DAV:   8    -0.287176921318E+04   -0.10957E-03   -0.21792E-06  4512   0.145E-03    0.200E-03
DAV:   9    -0.287176929212E+04   -0.78936E-04   -0.99398E-07  4688   0.129E-03    0.956E-04
DAV:  10    -0.287176933737E+04   -0.45251E-04   -0.54093E-07  4688   0.952E-04    0.865E-04
DAV:  11    -0.287176935787E+04   -0.20500E-04   -0.14506E-07  4800   0.453E-04    0.797E-04
DAV:  12    -0.287176938499E+04   -0.27120E-04   -0.74806E-08  4656   0.375E-04    0.471E-04
DAV:  13    -0.287176942122E+04   -0.36229E-04   -0.14055E-07  4704   0.570E-04    0.590E-04
DAV:  14    -0.287176942734E+04   -0.61215E-05   -0.20446E-08  4880   0.316E-04
  42 F= -.29062809E+04 E0= -.29062809E+04  d E =-.266962E-02  mag=     6.0000
       N       E                     dE             d eps       ncg     rms          rms(c)
DAV:   1    -0.287175229943E+04    0.17122E-01   -0.62874E-01  5456   0.604E-01    0.206E-01
DAV:   2    -0.287174830095E+04    0.39985E-02   -0.95421E-03  6448   0.834E-02    0.892E-02
DAV:   3    -0.287176551132E+04   -0.17210E-01   -0.17807E-03  6368   0.240E-02    0.462E-02
DAV:   4    -0.287176931045E+04   -0.37991E-02   -0.31366E-04  6528   0.140E-02    0.205E-02
DAV:   5    -0.287177006663E+04   -0.75619E-03   -0.49922E-05  6192   0.700E-03    0.889E-03
DAV:   6    -0.287177022255E+04   -0.15591E-03   -0.87229E-06  4832   0.301E-03    0.616E-03
DAV:   7    -0.287177034580E+04   -0.12325E-03   -0.26436E-06  4624   0.149E-03    0.330E-03
DAV:   8    -0.287177042616E+04   -0.80364E-04   -0.13559E-06  4544   0.106E-03    0.172E-03
DAV:   9    -0.287177049476E+04   -0.68594E-04   -0.68121E-07  4688   0.965E-04    0.770E-04
DAV:  10    -0.287177052901E+04   -0.34255E-04   -0.32231E-07  4688   0.627E-04    0.692E-04
DAV:  11    -0.287177054489E+04   -0.15880E-04   -0.53859E-08  4784   0.288E-04    0.586E-04
DAV:  12    -0.287177058284E+04   -0.37946E-04   -0.14334E-07  4656   0.416E-04    0.403E-04
DAV:  13    -0.287177060061E+04   -0.17769E-04   -0.46354E-08  4816   0.338E-04    0.387E-04
DAV:  14    -0.287177060385E+04   -0.32468E-05    0.29423E-08  4832   0.201E-04
  43 F= -.29062826E+04 E0= -.29062826E+04  d E =-.175717E-02  mag=     6.0000
       N       E                     dE             d eps       ncg     rms          rms(c)
DAV:   1    -0.287172468115E+04    0.45919E-01   -0.16479E+00  5456   0.978E-01    0.334E-01
DAV:   2    -0.287172678222E+04   -0.21011E-02   -0.24928E-02  6352   0.135E-01    0.145E-01
DAV:   3    -0.287176155765E+04   -0.34775E-01   -0.38535E-03  6432   0.364E-02    0.747E-02
DAV:   4    -0.287176849881E+04   -0.69412E-02   -0.66354E-04  6528   0.217E-02    0.333E-02
DAV:   5    -0.287176982426E+04   -0.13254E-02   -0.12274E-04  6464   0.112E-02    0.146E-02
DAV:   6    -0.287177013515E+04   -0.31090E-03   -0.24583E-05  5136   0.490E-03    0.102E-02
DAV:   7    -0.287177038079E+04   -0.24564E-03   -0.64256E-06  4800   0.228E-03    0.541E-03
DAV:   8    -0.287177055631E+04   -0.17552E-03   -0.32222E-06  4608   0.168E-03    0.276E-03
DAV:   9    -0.287177069460E+04   -0.13830E-03   -0.17705E-06  4704   0.153E-03    0.125E-03
DAV:  10    -0.287177076408E+04   -0.69471E-04   -0.84767E-07  4672   0.988E-04    0.112E-03
DAV:  11    -0.287177079750E+04   -0.33422E-04   -0.21692E-07  4768   0.460E-04    0.936E-04
DAV:  12    -0.287177087376E+04   -0.76264E-04   -0.46715E-07  4640   0.679E-04    0.628E-04
DAV:  13    -0.287177090859E+04   -0.34827E-04   -0.22614E-07  4784   0.548E-04    0.585E-04
DAV:  14    -0.287177091556E+04   -0.69708E-05   -0.41297E-08  4800   0.326E-04
  44 F= -.29062839E+04 E0= -.29062839E+04  d E =-.300894E-02  mag=     6.0000
       N       E                     dE             d eps       ncg     rms          rms(c)
DAV:   1    -0.287175002924E+04    0.20879E-01   -0.81784E-01  5488   0.701E-01    0.245E-01
DAV:   2    -0.287174660654E+04    0.34227E-02   -0.13123E-02  6400   0.988E-02    0.104E-01
DAV:   3    -0.287176689757E+04   -0.20291E-01   -0.22127E-03  6368   0.282E-02    0.547E-02
DAV:   4    -0.287177103893E+04   -0.41414E-02   -0.35806E-04  6528   0.164E-02    0.245E-02
DAV:   5    -0.287177186738E+04   -0.82845E-03   -0.66572E-05  6512   0.928E-03    0.107E-02
DAV:   6    -0.287177207062E+04   -0.20324E-03   -0.16371E-05  5040   0.422E-03    0.828E-03
DAV:   7    -0.287177218958E+04   -0.11895E-03   -0.25987E-06  4672   0.162E-03    0.508E-03
DAV:   8    -0.287177231783E+04   -0.12826E-03   -0.27523E-06  4560   0.171E-03    0.216E-03
DAV:   9    -0.287177239208E+04   -0.74252E-04   -0.10013E-06  4704   0.141E-03    0.113E-03
DAV:  10    -0.287177244451E+04   -0.52421E-04   -0.66212E-07  4672   0.125E-03    0.940E-04
DAV:  11    -0.287177246828E+04   -0.23775E-04   -0.27322E-07  4768   0.617E-04    0.966E-04
DAV:  12    -0.287177248706E+04   -0.18783E-04   -0.66654E-08  4688   0.324E-04    0.588E-04
DAV:  13    -0.287177252407E+04   -0.37006E-04   -0.20418E-07  4704   0.549E-04    0.697E-04
DAV:  14    -0.287177253224E+04   -0.81707E-05   -0.32379E-08  4848   0.379E-04
  45 F= -.29062863E+04 E0= -.29062863E+04  d E =-.238521E-02  mag=     6.0000
       N       E                     dE             d eps       ncg     rms          rms(c)
DAV:   1    -0.287176188660E+04    0.10637E-01   -0.38417E-01  5520   0.480E-01    0.168E-01
DAV:   2    -0.287175753843E+04    0.43482E-02   -0.61954E-03  6480   0.677E-02    0.714E-02
DAV:   3    -0.287176909831E+04   -0.11560E-01   -0.12196E-03  6368   0.203E-02    0.375E-02
DAV:   4    -0.287177165066E+04   -0.25523E-02   -0.19932E-04  6496   0.116E-02    0.168E-02
DAV:   5    -0.287177218155E+04   -0.53089E-03   -0.32071E-05  5536   0.642E-03    0.705E-03
DAV:   6    -0.287177230342E+04   -0.12187E-03   -0.78663E-06  4752   0.301E-03    0.544E-03
DAV:   7    -0.287177237258E+04   -0.69157E-04   -0.16210E-06  4656   0.125E-03    0.347E-03
DAV:   8    -0.287177244028E+04   -0.67701E-04   -0.12635E-06  4528   0.116E-03    0.150E-03
DAV:   9    -0.287177248343E+04   -0.43145E-04   -0.48972E-07  4720   0.987E-04    0.782E-04
DAV:  10    -0.287177251086E+04   -0.27433E-04   -0.31309E-07  4704   0.833E-04    0.698E-04
DAV:  11    -0.287177252392E+04   -0.13057E-04   -0.93639E-08  4784   0.414E-04    0.669E-04
DAV:  12    -0.287177253714E+04   -0.13226E-04   -0.14180E-08  4688   0.266E-04    0.386E-04
DAV:  13    -0.287177255553E+04   -0.18390E-04   -0.45718E-08  4688   0.349E-04    0.495E-04
DAV:  14    -0.287177256143E+04   -0.59027E-05    0.21443E-08  4816   0.276E-04
  46 F= -.29062868E+04 E0= -.29062868E+04  d E =-.294105E-02  mag=     6.0000
       N       E                     dE             d eps       ncg     rms          rms(c)
DAV:   1    -0.287175610001E+04    0.16456E-01   -0.66262E-01  5488   0.637E-01    0.219E-01
DAV:   2    -0.287175188141E+04    0.42186E-02   -0.10855E-02  6432   0.898E-02    0.953E-02
DAV:   3    -0.287176881882E+04   -0.16937E-01   -0.18367E-03  6368   0.257E-02    0.510E-02
DAV:   4    -0.287177244486E+04   -0.36260E-02   -0.31836E-04  6528   0.152E-02    0.223E-02
DAV:   5    -0.287177312093E+04   -0.67608E-03   -0.52052E-05  6416   0.805E-03    0.997E-03
DAV:   6    -0.287177331462E+04   -0.19369E-03   -0.14488E-05  4912   0.391E-03    0.712E-03
DAV:   7    -0.287177341938E+04   -0.10476E-03   -0.23221E-06  4656   0.151E-03    0.436E-03
DAV:   8    -0.287177351612E+04   -0.96737E-04   -0.23086E-06  4560   0.143E-03    0.197E-03
DAV:   9    -0.287177358477E+04   -0.68653E-04   -0.90976E-07  4672   0.122E-03    0.962E-04
DAV:  10    -0.287177362753E+04   -0.42755E-04   -0.51015E-07  4704   0.965E-04    0.856E-04
DAV:  11    -0.287177364910E+04   -0.21570E-04   -0.15757E-07  4768   0.490E-04    0.772E-04
DAV:  12    -0.287177367410E+04   -0.25002E-04   -0.88770E-08  4672   0.377E-04    0.446E-04
DAV:  13    -0.287177370493E+04   -0.30830E-04   -0.12033E-07  4688   0.498E-04    0.511E-04
DAV:  14    -0.287177371205E+04   -0.71231E-05   -0.12421E-08  4816   0.316E-04
  47 F= -.29062887E+04 E0= -.29062887E+04  d E =-.190818E-02  mag=     6.0000
       N       E                     dE             d eps       ncg     rms          rms(c)
DAV:   1    -0.287176740940E+04    0.62955E-02   -0.23198E-01  5504   0.377E-01    0.129E-01
DAV:   2    -0.287176340276E+04    0.40066E-02   -0.38747E-03  6496   0.535E-02    0.564E-02
DAV:   3    -0.287177109860E+04   -0.76958E-02   -0.80397E-04  6352   0.164E-02    0.302E-02
DAV:   4    -0.287177294067E+04   -0.18421E-02   -0.14168E-04  6400   0.946E-03    0.132E-02
DAV:   5    -0.287177331005E+04   -0.36938E-03   -0.19344E-05  5152   0.486E-03    0.563E-03
DAV:   6    -0.287177340370E+04   -0.93654E-04   -0.50133E-06  4672   0.242E-03    0.405E-03
DAV:   7    -0.287177345265E+04   -0.48948E-04   -0.11896E-06  4640   0.104E-03    0.261E-03
DAV:   8    -0.287177349258E+04   -0.39932E-04   -0.72026E-07  4528   0.834E-04    0.124E-03
DAV:   9    -0.287177352773E+04   -0.35150E-04   -0.33717E-07  4704   0.753E-04    0.574E-04
DAV:  10    -0.287177354583E+04   -0.18099E-04   -0.16025E-07  4736   0.556E-04    0.529E-04
DAV:  11    -0.287177355571E+04   -0.98802E-05   -0.12377E-08  4768   0.285E-04
  48 F= -.29062890E+04 E0= -.29062890E+04  d E =-.220009E-02  mag=     6.0000
       N       E                     dE             d eps       ncg     rms          rms(c)
DAV:   1    -0.287175743897E+04    0.16107E-01   -0.68506E-01  5520   0.660E-01    0.223E-01
DAV:   2    -0.287175323591E+04    0.42031E-02   -0.11312E-02  6384   0.925E-02    0.956E-02
DAV:   3    -0.287176988756E+04   -0.16652E-01   -0.18471E-03  6352   0.265E-02    0.519E-02
DAV:   4    -0.287177334833E+04   -0.34608E-02   -0.29589E-04  6512   0.153E-02    0.233E-02
DAV:   5    -0.287177408826E+04   -0.73993E-03   -0.57702E-05  6448   0.858E-03    0.100E-02
DAV:   6    -0.287177426996E+04   -0.18170E-03   -0.15883E-05  4944   0.435E-03    0.790E-03
DAV:   7    -0.287177436931E+04   -0.99350E-04   -0.26615E-06  4704   0.171E-03    0.495E-03
DAV:   8    -0.287177446634E+04   -0.97026E-04   -0.22705E-06  4576   0.160E-03    0.225E-03
DAV:   9    -0.287177453882E+04   -0.72484E-04   -0.98225E-07  4624   0.141E-03    0.979E-04
DAV:  10    -0.287177458462E+04   -0.45797E-04   -0.56682E-07  4752   0.113E-03    0.805E-04
DAV:  11    -0.287177460879E+04   -0.24172E-04   -0.22054E-07  4720   0.634E-04    0.824E-04
DAV:  12    -0.287177462743E+04   -0.18637E-04   -0.53986E-08  4720   0.365E-04    0.526E-04
DAV:  13    -0.287177466550E+04   -0.38069E-04   -0.18486E-07  4672   0.670E-04    0.647E-04
DAV:  14    -0.287177467085E+04   -0.53527E-05   -0.36019E-08  4880   0.334E-04
  49 F= -.29062908E+04 E0= -.29062908E+04  d E =-.176675E-02  mag=     6.0000
       N       E                     dE             d eps       ncg     rms          rms(c)
DAV:   1    -0.287175449050E+04    0.20175E-01   -0.78684E-01  5504   0.707E-01    0.239E-01
DAV:   2    -0.287175060112E+04    0.38894E-02   -0.12991E-02  6432   0.991E-02    0.102E-01
DAV:   3    -0.287176898612E+04   -0.18385E-01   -0.20505E-03  6400   0.280E-02    0.556E-02
DAV:   4    -0.287177275346E+04   -0.37673E-02   -0.33107E-04  6528   0.163E-02    0.249E-02
DAV:   5    -0.287177354786E+04   -0.79440E-03   -0.65647E-05  6496   0.917E-03    0.107E-02
DAV:   6    -0.287177374481E+04   -0.19695E-03   -0.18295E-05  4976   0.466E-03    0.851E-03
DAV:   7    -0.287177385151E+04   -0.10670E-03   -0.29935E-06  4704   0.181E-03    0.533E-03
DAV:   8    -0.287177395659E+04   -0.10508E-03   -0.26293E-06  4576   0.172E-03    0.240E-03
DAV:   9    -0.287177403486E+04   -0.78267E-04   -0.11432E-06  4624   0.151E-03    0.103E-03
DAV:  10    -0.287177408533E+04   -0.50477E-04   -0.66102E-07  4736   0.124E-03    0.829E-04
DAV:  11    -0.287177411108E+04   -0.25743E-04   -0.28002E-07  4720   0.695E-04    0.880E-04
DAV:  12    -0.287177412770E+04   -0.16620E-04   -0.58810E-08  4736   0.352E-04    0.601E-04
DAV:  13    -0.287177416944E+04   -0.41741E-04   -0.24305E-07  4672   0.702E-04    0.758E-04
DAV:  14    -0.287177417545E+04   -0.60084E-05   -0.49252E-08  4864   0.372E-04
  50 F= -.29062910E+04 E0= -.29062910E+04  d E =-.196974E-02  mag=     6.0000
       N       E                     dE             d eps       ncg     rms          rms(c)
DAV:   1    -0.287177425875E+04   -0.89310E-04   -0.11477E-01  5792   0.270E-01    0.914E-02
DAV:   2    -0.287177431579E+04   -0.57039E-04   -0.18502E-03  6464   0.373E-02    0.392E-02
DAV:   3    -0.287177454035E+04   -0.22456E-03   -0.73566E-05  5936   0.742E-03    0.212E-02
DAV:   4    -0.287177454658E+04   -0.62378E-05   -0.22496E-05  5248   0.550E-03    0.947E-03
DAV:   5    -0.287177451034E+04    0.36242E-04   -0.11386E-05  4800   0.376E-03    0.397E-03
DAV:   6    -0.287177451888E+04   -0.85379E-05   -0.27556E-06  4784   0.187E-03
  51 F= -.29062911E+04 E0= -.29062911E+04  d E =-.204586E-02  mag=     6.0000
       N       E                     dE             d eps       ncg     rms          rms(c)
DAV:   1    -0.287175672190E+04    0.17788E-01   -0.76550E-01  5504   0.704E-01    0.233E-01
DAV:   2    -0.287175313910E+04    0.35828E-02   -0.12850E-02  6480   0.985E-02    0.102E-01
DAV:   3    -0.287177066443E+04   -0.17525E-01   -0.19651E-03  6416   0.275E-02    0.557E-02
DAV:   4    -0.287177436050E+04   -0.36961E-02   -0.33986E-04  6528   0.165E-02    0.244E-02
DAV:   5    -0.287177505297E+04   -0.69247E-03   -0.61499E-05  6448   0.882E-03    0.108E-02
DAV:   6    -0.287177521885E+04   -0.16588E-03   -0.15671E-05  4928   0.432E-03    0.800E-03
DAV:   7    -0.287177531354E+04   -0.94694E-04   -0.26603E-06  4736   0.171E-03    0.486E-03
DAV:   8    -0.287177539914E+04   -0.85595E-04   -0.18735E-06  4544   0.160E-03    0.216E-03
DAV:   9    -0.287177545586E+04   -0.56720E-04   -0.86693E-07  4704   0.138E-03    0.929E-04
DAV:  10    -0.287177549003E+04   -0.34173E-04   -0.51936E-07  4688   0.107E-03    0.833E-04
DAV:  11    -0.287177550388E+04   -0.13848E-04   -0.15398E-07  4816   0.506E-04    0.867E-04
DAV:  12    -0.287177551496E+04   -0.11088E-04   -0.77336E-09  4672   0.273E-04    0.590E-04
DAV:  13    -0.287177554636E+04   -0.31398E-04   -0.17637E-07  4672   0.638E-04    0.864E-04
DAV:  14    -0.287177555075E+04   -0.43917E-05   -0.19459E-08  4880   0.344E-04
  52 F= -.29062927E+04 E0= -.29062927E+04  d E =-.163536E-02  mag=     6.0000
       N       E                     dE             d eps       ncg     rms          rms(c)
DAV:   1    -0.287177417227E+04    0.13741E-02   -0.56646E-02  5584   0.191E-01    0.633E-02
DAV:   2    -0.287177223137E+04    0.19409E-02   -0.10027E-03  6464   0.273E-02    0.276E-02
DAV:   3    -0.287177458773E+04   -0.23564E-02   -0.21863E-04  5264   0.853E-03    0.151E-02
DAV:   4    -0.287177525217E+04   -0.66443E-03   -0.44585E-05  5328   0.507E-03    0.661E-03
DAV:   5    -0.287177540179E+04   -0.14962E-03   -0.63373E-06  4688   0.268E-03    0.281E-03
DAV:   6    -0.287177542834E+04   -0.26549E-04   -0.14061E-06  4720   0.129E-03    0.210E-03
DAV:   7    -0.287177544809E+04   -0.19756E-04   -0.43709E-07  4624   0.718E-04    0.129E-03
DAV:   8    -0.287177545792E+04   -0.98324E-05   -0.90999E-08  4672   0.420E-04
  53 F= -.29062928E+04 E0= -.29062928E+04  d E =-.170678E-02  mag=     6.0000
       N       E                     dE             d eps       ncg     rms          rms(c)
DAV:   1    -0.287176481141E+04    0.10637E-01   -0.51752E-01  5504   0.593E-01    0.205E-01
DAV:   2    -0.287176053302E+04    0.42784E-02   -0.92400E-03  6448   0.844E-02    0.850E-02
DAV:   3    -0.287177285277E+04   -0.12320E-01   -0.14435E-03  6384   0.238E-02    0.470E-02
DAV:   4    -0.287177531310E+04   -0.24603E-02   -0.21817E-04  6512   0.138E-02    0.208E-02
DAV:   5    -0.287177584297E+04   -0.52987E-03   -0.44826E-05  6112   0.746E-03    0.944E-03
DAV:   6    -0.287177597629E+04   -0.13332E-03   -0.10246E-05  4800   0.351E-03    0.712E-03
DAV:   7    -0.287177605857E+04   -0.82283E-04   -0.22045E-06  4688   0.152E-03    0.421E-03
DAV:   8    -0.287177612647E+04   -0.67894E-04   -0.12911E-06  4544   0.132E-03    0.193E-03
DAV:   9    -0.287177617318E+04   -0.46711E-04   -0.59058E-07  4736   0.111E-03    0.828E-04
DAV:  10    -0.287177620348E+04   -0.30301E-04   -0.33799E-07  4656   0.862E-04    0.750E-04
DAV:  11    -0.287177621565E+04   -0.12165E-04   -0.87292E-08  4800   0.401E-04    0.694E-04
DAV:  12    -0.287177623225E+04   -0.16609E-04   -0.26601E-08  4656   0.318E-04    0.436E-04
DAV:  13    -0.287177625558E+04   -0.23330E-04   -0.71807E-08  4704   0.529E-04    0.565E-04
DAV:  14    -0.287177625824E+04   -0.26585E-05    0.40449E-09  4864   0.264E-04
  54 F= -.29062941E+04 E0= -.29062941E+04  d E =-.135157E-02  mag=     6.0000
       N       E                     dE             d eps       ncg     rms          rms(c)
DAV:   1    -0.287177596604E+04    0.28954E-03   -0.11906E-02  5664   0.899E-02    0.311E-02
DAV:   2    -0.287177531258E+04    0.65346E-03   -0.23661E-04  6416   0.133E-02    0.129E-02
DAV:   3    -0.287177591717E+04   -0.60459E-03   -0.49421E-05  4912   0.409E-03    0.712E-03
DAV:   4    -0.287177611893E+04   -0.20176E-03   -0.10145E-05  5024   0.242E-03    0.314E-03
DAV:   5    -0.287177617478E+04   -0.55848E-04   -0.15184E-06  4704   0.132E-03    0.135E-03
DAV:   6    -0.287177618475E+04   -0.99734E-05   -0.33007E-07  4736   0.630E-04
  55 F= -.29062941E+04 E0= -.29062941E+04  d E =-.136180E-02  mag=     6.0000
       N       E                     dE             d eps       ncg     rms          rms(c)
DAV:   1    -0.287176892685E+04    0.72479E-02   -0.36552E-01  5504   0.500E-01    0.166E-01
DAV:   2    -0.287176472848E+04    0.41984E-02   -0.65037E-03  6464   0.710E-02    0.722E-02
DAV:   3    -0.287177406149E+04   -0.93330E-02   -0.10650E-03  6400   0.206E-02    0.402E-02
DAV:   4    -0.287177607886E+04   -0.20174E-02   -0.17082E-04  6512   0.119E-02    0.177E-02
DAV:   5    -0.287177650436E+04   -0.42551E-03   -0.30873E-05  5488   0.647E-03    0.768E-03
DAV:   6    -0.287177662100E+04   -0.11663E-03   -0.88274E-06  4736   0.338E-03    0.577E-03
DAV:   7    -0.287177667743E+04   -0.56436E-04   -0.18238E-06  4704   0.141E-03    0.381E-03
DAV:   8    -0.287177672672E+04   -0.49287E-04   -0.10738E-06  4528   0.118E-03    0.179E-03
DAV:   9    -0.287177677031E+04   -0.43585E-04   -0.52955E-07  4704   0.110E-03    0.721E-04
DAV:  10    -0.287177679633E+04   -0.26022E-04   -0.31809E-07  4704   0.850E-04    0.658E-04
DAV:  11    -0.287177680819E+04   -0.11866E-04   -0.75700E-08  4784   0.425E-04    0.655E-04
DAV:  12    -0.287177681964E+04   -0.11451E-04    0.59091E-09  4672   0.269E-04    0.432E-04
DAV:  13    -0.287177684527E+04   -0.25622E-04   -0.87171E-08  4656   0.543E-04    0.592E-04
DAV:  14    -0.287177684987E+04   -0.46071E-05    0.43965E-09  4864   0.287E-04
  56 F= -.29062953E+04 E0= -.29062953E+04  d E =-.115608E-02  mag=     6.0000
       N       E                     dE             d eps       ncg     rms          rms(c)
DAV:   1    -0.287177569954E+04    0.11457E-02   -0.51598E-02  5584   0.188E-01    0.625E-02
DAV:   2    -0.287177399237E+04    0.17072E-02   -0.95635E-04  6464   0.271E-02    0.271E-02
DAV:   3    -0.287177600816E+04   -0.20158E-02   -0.19076E-04  5184   0.834E-03    0.151E-02
DAV:   4    -0.287177656477E+04   -0.55662E-03   -0.36505E-05  5280   0.494E-03    0.661E-03
DAV:   5    -0.287177669461E+04   -0.12984E-03   -0.59919E-06  4704   0.271E-03    0.282E-03
DAV:   6    -0.287177672042E+04   -0.25814E-04   -0.14843E-06  4704   0.135E-03    0.213E-03
DAV:   7    -0.287177673693E+04   -0.16508E-04   -0.42585E-07  4640   0.727E-04    0.138E-03
DAV:   8    -0.287177674513E+04   -0.82046E-05   -0.90239E-08  4640   0.427E-04
  57 F= -.29062954E+04 E0= -.29062954E+04  d E =-.123591E-02  mag=     6.0000
       N       E                     dE             d eps       ncg     rms          rms(c)
DAV:   1    -0.287177007898E+04    0.66580E-02   -0.37227E-01  5504   0.511E-01    0.165E-01
DAV:   2    -0.287176603355E+04    0.40454E-02   -0.66256E-03  6480   0.717E-02    0.710E-02
DAV:   3    -0.287177493300E+04   -0.88995E-02   -0.10275E-03  6368   0.203E-02    0.398E-02
DAV:   4    -0.287177686078E+04   -0.19278E-02   -0.16441E-04  6528   0.116E-02    0.177E-02
DAV:   5    -0.287177727606E+04   -0.41528E-03   -0.30439E-05  5424   0.611E-03    0.749E-03
DAV:   6    -0.287177738031E+04   -0.10425E-03   -0.74060E-06  4704   0.309E-03    0.544E-03
DAV:   7    -0.287177743758E+04   -0.57271E-04   -0.17512E-06  4672   0.135E-03    0.344E-03
DAV:   8    -0.287177748025E+04   -0.42665E-04   -0.79778E-07  4544   0.990E-04    0.177E-03
DAV:   9    -0.287177751972E+04   -0.39473E-04   -0.41664E-07  4720   0.929E-04    0.655E-04
DAV:  10    -0.287177754178E+04   -0.22064E-04   -0.22259E-07  4720   0.667E-04    0.604E-04
DAV:  11    -0.287177755143E+04   -0.96507E-05   -0.31877E-08  4800   0.324E-04
  58 F= -.29062965E+04 E0= -.29062965E+04  d E =-.114600E-02  mag=     6.0000
       N       E                     dE             d eps       ncg     rms          rms(c)
DAV:   1    -0.287177634428E+04    0.11975E-02   -0.61798E-02  5600   0.208E-01    0.670E-02
DAV:   2    -0.287177456541E+04    0.17789E-02   -0.11342E-03  6432   0.295E-02    0.290E-02
DAV:   3    -0.287177673588E+04   -0.21705E-02   -0.20943E-04  5328   0.882E-03    0.162E-02
DAV:   4    -0.287177732803E+04   -0.59215E-03   -0.39503E-05  5280   0.517E-03    0.718E-03
DAV:   5    -0.287177747171E+04   -0.14368E-03   -0.68851E-06  4640   0.283E-03    0.302E-03
DAV:   6    -0.287177750073E+04   -0.29021E-04   -0.15750E-06  4688   0.139E-03    0.224E-03
DAV:   7    -0.287177752126E+04   -0.20534E-04   -0.48783E-07  4624   0.770E-04    0.140E-03
DAV:   8    -0.287177753100E+04   -0.97402E-05   -0.10132E-07  4672   0.429E-04
  59 F= -.29062966E+04 E0= -.29062966E+04  d E =-.126403E-02  mag=     6.0000
       N       E                     dE             d eps       ncg     rms          rms(c)
DAV:   1    -0.287177027061E+04    0.72507E-02   -0.42228E-01  5520   0.548E-01    0.174E-01
DAV:   2    -0.287176628887E+04    0.39817E-02   -0.76684E-03  6448   0.770E-02    0.754E-02
DAV:   3    -0.287177570029E+04   -0.94114E-02   -0.11055E-03  6384   0.211E-02    0.424E-02
DAV:   4    -0.287177771907E+04   -0.20188E-02   -0.18323E-04  6496   0.124E-02    0.184E-02
DAV:   5    -0.287177811431E+04   -0.39524E-03   -0.32410E-05  5552   0.647E-03    0.814E-03
DAV:   6    -0.287177821091E+04   -0.96604E-04   -0.74945E-06  4656   0.320E-03    0.592E-03
DAV:   7    -0.287177826916E+04   -0.58247E-04   -0.18811E-06  4672   0.144E-03    0.365E-03
DAV:   8    -0.287177831388E+04   -0.44719E-04   -0.81140E-07  4544   0.110E-03    0.180E-03
DAV:   9    -0.287177835118E+04   -0.37303E-04   -0.41004E-07  4704   0.101E-03    0.674E-04
DAV:  10    -0.287177837124E+04   -0.20062E-04   -0.25265E-07  4720   0.709E-04    0.689E-04
DAV:  11    -0.287177837786E+04   -0.66204E-05   -0.27095E-08  4784   0.302E-04
  60 F= -.29062977E+04 E0= -.29062977E+04  d E =-.109096E-02  mag=     6.0000
       N       E                     dE             d eps       ncg     rms          rms(c)
DAV:   1    -0.287177786733E+04    0.50392E-03   -0.29490E-02  5664   0.145E-01    0.458E-02
DAV:   2    -0.287177678324E+04    0.10841E-02   -0.56923E-04  6496   0.208E-02    0.200E-02
DAV:   3    -0.287177791919E+04   -0.11360E-02   -0.10368E-04  4992   0.616E-03    0.112E-02
DAV:   4    -0.287177826802E+04   -0.34883E-03   -0.21344E-05  5200   0.372E-03    0.485E-03
DAV:   5    -0.287177835322E+04   -0.85204E-04   -0.32506E-06  4640   0.201E-03    0.211E-03
DAV:   6    -0.287177837048E+04   -0.17259E-04   -0.78417E-07  4720   0.987E-04    0.159E-03
DAV:   7    -0.287177838318E+04   -0.12697E-04   -0.22362E-07  4688   0.571E-04    0.984E-04
DAV:   8    -0.287177838906E+04   -0.58839E-05   -0.23107E-08  4704   0.331E-04
  61 F= -.29062978E+04 E0= -.29062978E+04  d E =-.116673E-02  mag=     6.0000
       N       E                     dE             d eps       ncg     rms          rms(c)
DAV:   1    -0.287177095226E+04    0.74309E-02   -0.45398E-01  5504   0.571E-01    0.181E-01
DAV:   2    -0.287176706440E+04    0.38879E-02   -0.83340E-03  6464   0.801E-02    0.778E-02
DAV:   3    -0.287177657065E+04   -0.95062E-02   -0.11329E-03  6400   0.217E-02    0.439E-02
DAV:   4    -0.287177857504E+04   -0.20044E-02   -0.19120E-04  6512   0.132E-02    0.190E-02
DAV:   5    -0.287177895713E+04   -0.38208E-03   -0.35517E-05  5664   0.689E-03    0.882E-03
DAV:   6    -0.287177904941E+04   -0.92286E-04   -0.81769E-06  4672   0.338E-03    0.635E-03
DAV:   7    -0.287177910507E+04   -0.55656E-04   -0.19913E-06  4656   0.149E-03    0.390E-03
DAV:   8    -0.287177914788E+04   -0.42814E-04   -0.91830E-07  4544   0.120E-03    0.183E-03
DAV:   9    -0.287177918229E+04   -0.34407E-04   -0.45994E-07  4720   0.110E-03    0.738E-04
DAV:  10    -0.287177920322E+04   -0.20933E-04   -0.30565E-07  4704   0.827E-04    0.716E-04
DAV:  11    -0.287177921124E+04   -0.80194E-05   -0.60121E-08  4816   0.376E-04
  62 F= -.29062989E+04 E0= -.29062989E+04  d E =-.108836E-02  mag=     6.0000
       N       E                     dE             d eps       ncg     rms          rms(c)
DAV:   1    -0.287177774916E+04    0.14541E-02   -0.78029E-02  5568   0.237E-01    0.748E-02
DAV:   2    -0.287177587531E+04    0.18738E-02   -0.14690E-03  6432   0.335E-02    0.323E-02
DAV:   3    -0.287177828347E+04   -0.24082E-02   -0.24022E-04  5424   0.963E-03    0.182E-02
DAV:   4    -0.287177892652E+04   -0.64305E-03   -0.46657E-05  5344   0.592E-03    0.785E-03
[...]
 197 F= -.29063703E+04 E0= -.29063703E+04  d E =-.845158E-03  mag=     6.0000
       N       E                     dE             d eps       ncg     rms          rms(c)
DAV:   1    -0.287184939861E+04    0.52614E-05   -0.74056E-03  6384   0.801E-02    0.253E-02
DAV:   2    -0.287184943095E+04   -0.32338E-04   -0.15462E-04  6320   0.111E-02    0.105E-02
DAV:   3    -0.287184942499E+04    0.59561E-05   -0.36135E-06  4336   0.250E-03    0.617E-03
DAV:   4    -0.287184942659E+04   -0.16016E-05   -0.30091E-06  4576   0.261E-03    0.226E-03
DAV:   5    -0.287184942940E+04   -0.28072E-05   -0.13588E-06  4752   0.136E-03
 198 F= -.29063703E+04 E0= -.29063703E+04  d E =-.904207E-03  mag=     6.0000
       N       E                     dE             d eps       ncg     rms          rms(c)
DAV:   1    -0.287184955154E+04   -0.12495E-03   -0.24479E-01  5632   0.462E-01    0.129E-01
DAV:   2    -0.287184956055E+04   -0.90149E-05   -0.50413E-03  6400   0.635E-02    0.586E-02
DAV:   3    -0.287184993418E+04   -0.37363E-03   -0.18755E-04  6192   0.133E-02    0.352E-02
DAV:   4    -0.287184998044E+04   -0.46263E-04   -0.75420E-05  6432   0.109E-02    0.122E-02
DAV:   5    -0.287184998664E+04   -0.61974E-05   -0.21324E-05  5248   0.553E-03
 199 F= -.29063712E+04 E0= -.29063712E+04  d E =-.846026E-03  mag=     6.0000
       N       E                     dE             d eps       ncg     rms          rms(c)
DAV:   1    -0.287184995894E+04    0.21503E-04   -0.11326E-02  6320   0.994E-02    0.310E-02
DAV:   2    -0.287184998915E+04   -0.30211E-04   -0.24005E-04  6272   0.139E-02    0.127E-02
DAV:   3    -0.287184998557E+04    0.35774E-05   -0.59002E-06  4336   0.310E-03    0.751E-03
DAV:   4    -0.287184998617E+04   -0.59622E-06   -0.42622E-06  4528   0.332E-03    0.262E-03
DAV:   5    -0.287184998883E+04   -0.26604E-05   -0.23245E-06  4736   0.184E-03
 200 F= -.29063712E+04 E0= -.29063712E+04  d E =-.910297E-03  mag=     6.0000
       N       E                     dE             d eps       ncg     rms          rms(c)
DAV:   1    -0.287185006149E+04   -0.75317E-04   -0.22558E-01  5616   0.444E-01    0.121E-01
DAV:   2    -0.287185008638E+04   -0.24897E-04   -0.46649E-03  6352   0.610E-02    0.557E-02
DAV:   3    -0.287185041552E+04   -0.32913E-03   -0.16535E-04  6176   0.124E-02    0.336E-02
DAV:   4    -0.287185045858E+04   -0.43060E-04   -0.73250E-05  6416   0.102E-02    0.116E-02
DAV:   5    -0.287185046306E+04   -0.44795E-05   -0.16191E-05  4976   0.473E-03
 201 F= -.29063719E+04 E0= -.29063719E+04  d E =-.716386E-03  mag=     6.0000
       N       E                     dE             d eps       ncg     rms          rms(c)
DAV:   1    -0.287185044067E+04    0.17906E-04   -0.11692E-02  6336   0.101E-01    0.301E-02
DAV:   2    -0.287185047103E+04   -0.30363E-04   -0.24881E-04  6288   0.141E-02    0.127E-02
DAV:   3    -0.287185046654E+04    0.44896E-05   -0.57751E-06  4336   0.293E-03    0.756E-03
DAV:   4    -0.287185046512E+04    0.14274E-05   -0.48584E-06  4544   0.303E-03    0.257E-03
DAV:   5    -0.287185046668E+04   -0.15666E-05   -0.18159E-06  4736   0.153E-03
 202 F= -.29063720E+04 E0= -.29063720E+04  d E =-.775148E-03  mag=     6.0000
       N       E                     dE             d eps       ncg     rms          rms(c)
DAV:   1    -0.287185056307E+04   -0.97950E-04   -0.23135E-01  5632   0.449E-01    0.118E-01
DAV:   2    -0.287185057629E+04   -0.13220E-04   -0.47072E-03  6320   0.610E-02    0.550E-02
DAV:   3    -0.287185092238E+04   -0.34610E-03   -0.16392E-04  6176   0.123E-02    0.335E-02
DAV:   4    -0.287185096536E+04   -0.42973E-04   -0.73078E-05  6416   0.105E-02    0.116E-02
DAV:   5    -0.287185096690E+04   -0.15400E-05   -0.17874E-05  5104   0.495E-03
 203 F= -.29063726E+04 E0= -.29063726E+04  d E =-.635682E-03  mag=     6.0000
       N       E                     dE             d eps       ncg     rms          rms(c)
DAV:   1    -0.287185095009E+04    0.15268E-04   -0.12893E-02  6288   0.106E-01    0.309E-02
DAV:   2    -0.287185097923E+04   -0.29146E-04   -0.26986E-04  6288   0.146E-02    0.130E-02
DAV:   3    -0.287185097640E+04    0.28335E-05   -0.64779E-06  4400   0.310E-03    0.782E-03
DAV:   4    -0.287185097455E+04    0.18516E-05   -0.49818E-06  4496   0.328E-03    0.268E-03
DAV:   5    -0.287185097631E+04   -0.17584E-05   -0.21631E-06  4752   0.168E-03
 204 F= -.29063727E+04 E0= -.29063727E+04  d E =-.677080E-03  mag=     6.0000
       N       E                     dE             d eps       ncg     rms          rms(c)
DAV:   1    -0.287185114773E+04   -0.17319E-03   -0.20168E-01  5648   0.417E-01    0.109E-01
DAV:   2    -0.287185114453E+04    0.31991E-05   -0.40979E-03  6320   0.566E-02    0.510E-02
DAV:   3    -0.287185146046E+04   -0.31593E-03   -0.14057E-04  6208   0.113E-02    0.309E-02
DAV:   4    -0.287185149942E+04   -0.38951E-04   -0.64695E-05  6368   0.978E-03    0.106E-02
DAV:   5    -0.287185150050E+04   -0.10867E-05   -0.15257E-05  4960   0.435E-03
 205 F= -.29063733E+04 E0= -.29063733E+04  d E =-.648095E-03  mag=     6.0000
       N       E                     dE             d eps       ncg     rms          rms(c)
DAV:   1    -0.287185148721E+04    0.12202E-04   -0.18839E-02  6160   0.127E-01    0.361E-02
DAV:   2    -0.287185151024E+04   -0.23022E-04   -0.39105E-04  6224   0.175E-02    0.155E-02
DAV:   3    -0.287185151866E+04   -0.84299E-05   -0.10154E-05  4640   0.356E-03    0.928E-03
DAV:   4    -0.287185151962E+04   -0.95280E-06   -0.68975E-06  4432   0.358E-03    0.314E-03
DAV:   5    -0.287185152200E+04   -0.23806E-05   -0.26082E-06  4752   0.174E-03
 206 F= -.29063734E+04 E0= -.29063734E+04  d E =-.707480E-03  mag=     6.0000
       N       E                     dE             d eps       ncg     rms          rms(c)
DAV:   1    -0.287185165289E+04   -0.13327E-03   -0.18128E-01  5632   0.396E-01    0.106E-01
DAV:   2    -0.287185165214E+04    0.74576E-06   -0.37988E-03  6336   0.547E-02    0.492E-02
DAV:   3    -0.287185193434E+04   -0.28220E-03   -0.13099E-04  6192   0.115E-02    0.296E-02
DAV:   4    -0.287185197629E+04   -0.41945E-04   -0.60753E-05  6384   0.998E-03    0.103E-02
DAV:   5    -0.287185198210E+04   -0.58166E-05   -0.16140E-05  4928   0.479E-03
 207 F= -.29063740E+04 E0= -.29063740E+04  d E =-.612915E-03  mag=     6.0000
       N       E                     dE             d eps       ncg     rms          rms(c)
DAV:   1    -0.287185197656E+04   -0.27026E-06   -0.75570E-03  6368   0.808E-02    0.245E-02
DAV:   2    -0.287185199975E+04   -0.23193E-04   -0.16307E-04  6272   0.114E-02    0.102E-02
DAV:   3    -0.287185199644E+04    0.33064E-05   -0.37661E-06  4320   0.269E-03    0.606E-03
DAV:   4    -0.287185199868E+04   -0.22346E-05   -0.31550E-06  4464   0.301E-03    0.212E-03
DAV:   5    -0.287185200126E+04   -0.25845E-05   -0.17630E-06  4784   0.158E-03
 208 F= -.29063741E+04 E0= -.29063741E+04  d E =-.663247E-03  mag=     6.0000
       N       E                     dE             d eps       ncg     rms          rms(c)
DAV:   1    -0.287185216680E+04   -0.16812E-03   -0.15059E-01  5648   0.362E-01    0.981E-02
DAV:   2    -0.287185219235E+04   -0.25555E-04   -0.31967E-03  6288   0.504E-02    0.445E-02
DAV:   3    -0.287185239540E+04   -0.20305E-03   -0.10880E-04  6176   0.103E-02    0.268E-02
DAV:   4    -0.287185242480E+04   -0.29396E-04   -0.48926E-05  6288   0.855E-03    0.942E-03
DAV:   5    -0.287185242830E+04   -0.34958E-05   -0.11538E-05  4784   0.415E-03
 209 F= -.29063746E+04 E0= -.29063746E+04  d E =-.592658E-03  mag=     6.0000
       N       E                     dE             d eps       ncg     rms          rms(c)
DAV:   1    -0.287185241796E+04    0.68424E-05   -0.98222E-03  6368   0.924E-02    0.273E-02
DAV:   2    -0.287185244411E+04   -0.26149E-04   -0.21352E-04  6288   0.131E-02    0.114E-02
DAV:   3    -0.287185243873E+04    0.53727E-05   -0.48698E-06  4336   0.277E-03    0.680E-03
DAV:   4    -0.287185243717E+04    0.15603E-05   -0.41020E-06  4512   0.290E-03    0.232E-03
DAV:   5    -0.287185243830E+04   -0.11218E-05   -0.16969E-06  4720   0.150E-03
 210 F= -.29063747E+04 E0= -.29063747E+04  d E =-.644960E-03  mag=     6.0000
       N       E                     dE             d eps       ncg     rms          rms(c)
DAV:   1    -0.287185257979E+04   -0.14262E-03   -0.15215E-01  5648   0.364E-01    0.956E-02
DAV:   2    -0.287185262501E+04   -0.45211E-04   -0.32282E-03  6256   0.505E-02    0.441E-02
DAV:   3    -0.287185280896E+04   -0.18396E-03   -0.10418E-04  6176   0.102E-02    0.266E-02
DAV:   4    -0.287185283016E+04   -0.21201E-04   -0.47896E-05  6192   0.865E-03    0.942E-03
DAV:   5    -0.287185282911E+04    0.10582E-05   -0.11826E-05  4784   0.417E-03
 211 F= -.29063753E+04 E0= -.29063753E+04  d E =-.572321E-03  mag=     6.0000
       N       E                     dE             d eps       ncg     rms          rms(c)
DAV:   1    -0.287185280388E+04    0.26284E-04   -0.17787E-02  6032   0.124E-01    0.348E-02
DAV:   2    -0.287185283387E+04   -0.29988E-04   -0.38330E-04  6288   0.174E-02    0.150E-02
DAV:   3    -0.287185283344E+04    0.42230E-06   -0.93290E-06  4512   0.364E-03    0.896E-03
DAV:   4    -0.287185283008E+04    0.33662E-05   -0.64407E-06  4416   0.373E-03    0.299E-03
DAV:   5    -0.287185283048E+04   -0.40140E-06   -0.28587E-06  4752   0.195E-03
 212 F= -.29063753E+04 E0= -.29063753E+04  d E =-.635769E-03  mag=     6.0000
       N       E                     dE             d eps       ncg     rms          rms(c)
DAV:   1    -0.287185294128E+04   -0.11120E-03   -0.14899E-01  5664   0.359E-01    0.921E-02
DAV:   2    -0.287185297899E+04   -0.37718E-04   -0.31283E-03  6240   0.494E-02    0.422E-02
DAV:   3    -0.287185316170E+04   -0.18271E-03   -0.94607E-05  6176   0.957E-03    0.257E-02
DAV:   4    -0.287185318177E+04   -0.20063E-04   -0.47410E-05  6144   0.880E-03    0.888E-03
DAV:   5    -0.287185318057E+04    0.11950E-05   -0.12714E-05  4848   0.414E-03
 213 F= -.29063759E+04 E0= -.29063759E+04  d E =-.544112E-03  mag=     6.0000
       N       E                     dE             d eps       ncg     rms          rms(c)
DAV:   1    -0.287185314841E+04    0.33356E-04   -0.23995E-02  5744   0.144E-01    0.392E-02
DAV:   2    -0.287185317404E+04   -0.25634E-04   -0.51171E-04  6256   0.200E-02    0.168E-02
DAV:   3    -0.287185318435E+04   -0.10306E-04   -0.12626E-05  4688   0.401E-03    0.101E-02
DAV:   4    -0.287185318398E+04    0.36851E-06   -0.83155E-06  4464   0.422E-03    0.335E-03
DAV:   5    -0.287185318544E+04   -0.14597E-05   -0.36886E-06  4736   0.213E-03
 214 F= -.29063760E+04 E0= -.29063760E+04  d E =-.626833E-03  mag=     6.0000
       N       E                     dE             d eps       ncg     rms          rms(c)
DAV:   1    -0.287185327686E+04   -0.92881E-04   -0.16019E-01  5648   0.373E-01    0.946E-02
DAV:   2    -0.287185331404E+04   -0.37174E-04   -0.34218E-03  6288   0.519E-02    0.446E-02
DAV:   3    -0.287185351365E+04   -0.19961E-03   -0.10591E-04  6144   0.104E-02    0.270E-02
DAV:   4    -0.287185354812E+04   -0.34472E-04   -0.51233E-05  6256   0.892E-03    0.928E-03
DAV:   5    -0.287185355258E+04   -0.44576E-05   -0.12846E-05  4832   0.425E-03
 215 F= -.29063765E+04 E0= -.29063765E+04  d E =-.550535E-03  mag=     6.0000
       N       E                     dE             d eps       ncg     rms          rms(c)
DAV:   1    -0.287185353651E+04    0.11612E-04   -0.63297E-03  6416   0.742E-02    0.211E-02
DAV:   2    -0.287185355679E+04   -0.20276E-04   -0.13858E-04  6288   0.105E-02    0.888E-03
DAV:   3    -0.287185355258E+04    0.42072E-05   -0.28955E-06  4288   0.229E-03    0.530E-03
DAV:   4    -0.287185355474E+04   -0.21608E-05   -0.25886E-06  4480   0.255E-03    0.181E-03
DAV:   5    -0.287185355669E+04   -0.19489E-05   -0.12518E-06  4816   0.131E-03
 216 F= -.29063766E+04 E0= -.29063766E+04  d E =-.591107E-03  mag=     6.0000
       N       E                     dE             d eps       ncg     rms          rms(c)
DAV:   1    -0.287185363267E+04   -0.77931E-04   -0.15803E-01  5648   0.370E-01    0.933E-02
DAV:   2    -0.287185364469E+04   -0.12022E-04   -0.33631E-03  6272   0.512E-02    0.438E-02
DAV:   3    -0.287185386444E+04   -0.21975E-03   -0.10347E-04  6160   0.998E-03    0.266E-02
DAV:   4    -0.287185390660E+04   -0.42161E-04   -0.51286E-05  6144   0.884E-03    0.902E-03
DAV:   5    -0.287185391154E+04   -0.49387E-05   -0.13012E-05  4848   0.429E-03
 217 F= -.29063771E+04 E0= -.29063771E+04  d E =-.500688E-03  mag=     6.0000
       N       E                     dE             d eps       ncg     rms          rms(c)
DAV:   1    -0.287185390044E+04    0.61590E-05   -0.12280E-02  6128   0.103E-01    0.282E-02
DAV:   2    -0.287185391976E+04   -0.19314E-04   -0.26710E-04  6288   0.145E-02    0.122E-02
DAV:   3    -0.287185392039E+04   -0.63027E-06   -0.58277E-06  4368   0.294E-03    0.733E-03
DAV:   4    -0.287185392319E+04   -0.28005E-05   -0.48959E-06  4448   0.322E-03    0.243E-03
DAV:   5    -0.287185392527E+04   -0.20794E-05   -0.20850E-06  4752   0.165E-03
 218 F= -.29063771E+04 E0= -.29063771E+04  d E =-.555076E-03  mag=     6.0000
       N       E                     dE             d eps       ncg     rms          rms(c)
DAV:   1    -0.287185395688E+04   -0.33697E-04   -0.17703E-01  5648   0.393E-01    0.995E-02
DAV:   2    -0.287185396619E+04   -0.93064E-05   -0.37932E-03  6320   0.544E-02    0.458E-02
DAV:   3    -0.287185422169E+04   -0.25550E-03   -0.11629E-04  6160   0.104E-02    0.277E-02
DAV:   4    -0.287185427241E+04   -0.50718E-04   -0.55213E-05  6352   0.888E-03    0.937E-03
DAV:   5    -0.287185427691E+04   -0.45002E-05   -0.12530E-05  4800   0.405E-03
 219 F= -.29063776E+04 E0= -.29063776E+04  d E =-.498014E-03  mag=     6.0000
       N       E                     dE             d eps       ncg     rms          rms(c)
DAV:   1    -0.287185424413E+04    0.28282E-04   -0.13722E-02  6128   0.109E-01    0.300E-02
DAV:   2    -0.287185426380E+04   -0.19678E-04   -0.29892E-04  6256   0.153E-02    0.126E-02
DAV:   3    -0.287185426688E+04   -0.30717E-05   -0.65735E-06  4384   0.301E-03    0.753E-03
DAV:   4    -0.287185427103E+04   -0.41500E-05   -0.50506E-06  4448   0.309E-03    0.246E-03
DAV:   5    -0.287185427313E+04   -0.21011E-05   -0.19433E-06  4736   0.155E-03
 220 F= -.29063776E+04 E0= -.29063776E+04  d E =-.535005E-03  mag=     6.0000
       N       E                     dE             d eps       ncg     rms          rms(c)
DAV:   1    -0.287185431349E+04   -0.42464E-04   -0.16072E-01  5648   0.374E-01    0.928E-02
DAV:   2    -0.287185429288E+04    0.20611E-04   -0.34081E-03  6288   0.515E-02    0.431E-02
DAV:   3    -0.287185455108E+04   -0.25820E-03   -0.10613E-04  6176   0.988E-03    0.262E-02
DAV:   4    -0.287185460116E+04   -0.50072E-04   -0.50437E-05  6160   0.881E-03    0.889E-03
DAV:   5    -0.287185460443E+04   -0.32734E-05   -0.12764E-05  4704   0.410E-03
 221 F= -.29063781E+04 E0= -.29063781E+04  d E =-.473214E-03  mag=     6.0000
       N       E                     dE             d eps       ncg     rms          rms(c)
DAV:   1    -0.287185458179E+04    0.19364E-04   -0.16141E-02  6000   0.118E-01    0.317E-02
DAV:   2    -0.287185459740E+04   -0.15610E-04   -0.34852E-04  6208   0.165E-02    0.136E-02
DAV:   3    -0.287185460667E+04   -0.92721E-05   -0.81906E-06  4544   0.327E-03    0.816E-03
DAV:   4    -0.287185461210E+04   -0.54264E-05   -0.56978E-06  4416   0.344E-03    0.267E-03
DAV:   5    -0.287185461462E+04   -0.25186E-05   -0.24875E-06  4752   0.174E-03
 222 F= -.29063782E+04 E0= -.29063782E+04  d E =-.528376E-03  mag=     6.0000
       N       E                     dE             d eps       ncg     rms          rms(c)
DAV:   1    -0.287185471324E+04   -0.10114E-03   -0.14897E-01  5648   0.361E-01    0.942E-02
DAV:   2    -0.287185469202E+04    0.21219E-04   -0.32355E-03  6288   0.505E-02    0.422E-02
DAV:   3    -0.287185493136E+04   -0.23934E-03   -0.10484E-04  6176   0.991E-03    0.254E-02
DAV:   4    -0.287185498235E+04   -0.50995E-04   -0.47740E-05  6176   0.850E-03    0.869E-03
DAV:   5    -0.287185498806E+04   -0.57074E-05   -0.11652E-05  4736   0.393E-03
 223 F= -.29063787E+04 E0= -.29063787E+04  d E =-.479530E-03  mag=     6.0000
       N       E                     dE             d eps       ncg     rms          rms(c)
DAV:   1    -0.287185493325E+04    0.49099E-04   -0.26156E-02  5776   0.151E-01    0.417E-02
DAV:   2    -0.287185494199E+04   -0.87382E-05   -0.57487E-04  6256   0.213E-02    0.175E-02
DAV:   3    -0.287185496706E+04   -0.25065E-04   -0.15156E-05  4672   0.425E-03    0.104E-02
DAV:   4    -0.287185497783E+04   -0.10775E-04   -0.91082E-06  4432   0.418E-03    0.342E-03
DAV:   5    -0.287185498120E+04   -0.33662E-05   -0.37073E-06  4752   0.211E-03
 224 F= -.29063787E+04 E0= -.29063787E+04  d E =-.517154E-03  mag=     6.0000
       N       E                     dE             d eps       ncg     rms          rms(c)
DAV:   1    -0.287185510223E+04   -0.12440E-03   -0.13573E-01  5648   0.343E-01    0.814E-02
DAV:   2    -0.287185505131E+04    0.50925E-04   -0.28722E-03  6256   0.471E-02    0.384E-02
DAV:   3    -0.287185529400E+04   -0.24269E-03   -0.89241E-05  6016   0.867E-03    0.235E-02
DAV:   4    -0.287185535151E+04   -0.57512E-04   -0.42581E-05  6000   0.791E-03    0.812E-03
DAV:   5    -0.287185535760E+04   -0.60934E-05   -0.10211E-05  4736   0.362E-03
 225 F= -.29063791E+04 E0= -.29063791E+04  d E =-.455369E-03  mag=     6.0000
       N       E                     dE             d eps       ncg     rms          rms(c)
DAV:   1    -0.287185531397E+04    0.37537E-04   -0.71283E-02  5712   0.249E-01    0.606E-02
DAV:   2    -0.287185528850E+04    0.25477E-04   -0.15226E-03  6224   0.343E-02    0.276E-02
DAV:   3    -0.287185540471E+04   -0.11622E-03   -0.44648E-05  5168   0.639E-03    0.169E-02
DAV:   4    -0.287185543690E+04   -0.32188E-04   -0.23245E-05  5200   0.616E-03    0.566E-03
DAV:   5    -0.287185544280E+04   -0.59044E-05   -0.69514E-06  4640   0.294E-03
 226 F= -.29063793E+04 E0= -.29063793E+04  d E =-.597829E-03  mag=     6.0000
       N       E                     dE             d eps       ncg     rms          rms(c)
DAV:   1    -0.287185557110E+04   -0.13420E-03   -0.16989E-01  5648   0.386E-01    0.104E-01
DAV:   2    -0.287185554271E+04    0.28390E-04   -0.37473E-03  6304   0.543E-02    0.447E-02
DAV:   3    -0.287185581772E+04   -0.27501E-03   -0.12205E-04  6176   0.108E-02    0.269E-02
DAV:   4    -0.287185587677E+04   -0.59044E-04   -0.54991E-05  6320   0.912E-03    0.936E-03
DAV:   5    -0.287185588143E+04   -0.46623E-05   -0.13346E-05  4832   0.433E-03
 227 F= -.29063799E+04 E0= -.29063799E+04  d E =-.594800E-03  mag=     6.0000
       N       E                     dE             d eps       ncg     rms          rms(c)
DAV:   1    -0.287185586896E+04    0.78023E-05   -0.10391E-02  6304   0.953E-02    0.282E-02
DAV:   2    -0.287185588432E+04   -0.15358E-04   -0.23344E-04  6208   0.136E-02    0.110E-02
DAV:   3    -0.287185588882E+04   -0.44967E-05   -0.55766E-06  4416   0.287E-03    0.656E-03
DAV:   4    -0.287185589688E+04   -0.80601E-05   -0.40253E-06  4464   0.300E-03    0.222E-03
DAV:   5    -0.287185590001E+04   -0.31297E-05   -0.18599E-06  4752   0.157E-03
 228 F= -.29063799E+04 E0= -.29063799E+04  d E =-.652006E-03  mag=     6.0000
       N       E                     dE             d eps       ncg     rms          rms(c)
DAV:   1    -0.287185583147E+04    0.65410E-04   -0.16109E-01  5648   0.375E-01    0.950E-02
DAV:   2    -0.287185580166E+04    0.29803E-04   -0.35129E-03  6336   0.525E-02    0.434E-02
DAV:   3    -0.287185607758E+04   -0.27592E-03   -0.11368E-04  6192   0.103E-02    0.264E-02
DAV:   4    -0.287185613944E+04   -0.61863E-04   -0.52379E-05  6208   0.889E-03    0.917E-03
DAV:   5    -0.287185614553E+04   -0.60868E-05   -0.12463E-05  4784   0.419E-03
 229 F= -.29063804E+04 E0= -.29063804E+04  d E =-.500105E-03  mag=     6.0000
