       N       E                     dE             d eps       ncg     rms          rms(c)
DAV:   1     0.190223166235E+05    0.19022E+05   -0.80546E+05  6192   0.107E+03
DAV:   2     0.279361031643E+03   -0.18743E+05   -0.17965E+05  7856   0.281E+02
DAV:   3    -0.306418088864E+04   -0.33435E+04   -0.33227E+04  6992   0.124E+02
DAV:   4    -0.316349425404E+04   -0.99313E+02   -0.98877E+02  7072   0.244E+01
DAV:   5    -0.316582574758E+04   -0.23315E+01   -0.23279E+01  7568   0.339E+00    0.197E+02
DAV:   6    -0.155584000941E+04    0.16100E+04   -0.31277E+03  6688   0.446E+01    0.908E+01
DAV:   7    -0.169162920720E+04   -0.13579E+03   -0.33176E+02  7184   0.147E+01    0.640E+01
DAV:   8    -0.170138915932E+04   -0.97600E+01   -0.54233E+01  7248   0.641E+00    0.458E+01
DAV:   9    -0.182178946096E+04   -0.12040E+03   -0.35319E+01  7296   0.571E+00    0.380E+01
DAV:  10    -0.198333728063E+04   -0.16155E+03   -0.54371E+01  7216   0.554E+00    0.342E+01
DAV:  11    -0.214736377998E+04   -0.16403E+03   -0.43133E+01  7184   0.524E+00    0.285E+01
DAV:  12    -0.238720600081E+04   -0.23984E+03   -0.97324E+01  6912   0.727E+00    0.236E+01
DAV:  13    -0.265518251983E+04   -0.26798E+03   -0.16098E+02  6800   0.892E+00    0.197E+01
DAV:  14    -0.285880388570E+04   -0.20362E+03   -0.17085E+02  6848   0.813E+00    0.129E+01
DAV:  15    -0.292420748849E+04   -0.65404E+02   -0.38699E+01  7104   0.387E+00    0.103E+01
DAV:  16    -0.294868737554E+04   -0.24480E+02   -0.87536E+00  6960   0.207E+00    0.847E+00
DAV:  17    -0.296188116728E+04   -0.13194E+02   -0.32539E+00  6848   0.132E+00    0.715E+00
DAV:  18    -0.297061134951E+04   -0.87302E+01   -0.19687E+00  6880   0.106E+00    0.591E+00
DAV:  19    -0.297717813330E+04   -0.65668E+01   -0.16888E+00  6768   0.935E-01    0.463E+00
DAV:  20    -0.298146867033E+04   -0.42905E+01   -0.12385E+00  6752   0.787E-01    0.364E+00
DAV:  21    -0.298450430217E+04   -0.30356E+01   -0.69205E-01  6816   0.599E-01    0.269E+00
DAV:  22    -0.298660916592E+04   -0.21049E+01   -0.42816E-01  6608   0.479E-01    0.163E+00
DAV:  23    -0.298748481948E+04   -0.87565E+00   -0.13884E-01  6672   0.302E-01    0.983E-01
DAV:  24    -0.298902841515E+04   -0.15436E+01   -0.48038E-02  6848   0.214E-01    0.708E-01
DAV:  25    -0.299064872783E+04   -0.16203E+01   -0.27847E-02  6768   0.158E-01    0.518E-01
DAV:  26    -0.299178995301E+04   -0.11412E+01   -0.16783E-02  7024   0.121E-01    0.343E-01
DAV:  27    -0.299272810314E+04   -0.93815E+00   -0.13277E-02  7008   0.103E-01    0.200E-01
DAV:  28    -0.299321676913E+04   -0.48867E+00   -0.61349E-03  7184   0.685E-02    0.119E-01
DAV:  29    -0.299338093460E+04   -0.16417E+00   -0.19252E-03  7104   0.406E-02    0.746E-02
DAV:  30    -0.299343735413E+04   -0.56420E-01   -0.93811E-04  7088   0.286E-02    0.396E-02
DAV:  31    -0.299344637984E+04   -0.90257E-02   -0.20205E-04  7104   0.135E-02    0.307E-02
DAV:  32    -0.299345060078E+04   -0.42209E-02   -0.36512E-05  6064   0.525E-03    0.196E-02
DAV:  33    -0.299345717547E+04   -0.65747E-02   -0.10336E-04  6336   0.771E-03    0.131E-02
DAV:  34    -0.299345899508E+04   -0.18196E-02   -0.18607E-05  5760   0.410E-03    0.950E-03
DAV:  35    -0.299346086328E+04   -0.18682E-02   -0.11216E-05  5360   0.305E-03    0.661E-03
DAV:  36    -0.299346253943E+04   -0.16762E-02   -0.13323E-05  5584   0.291E-03    0.460E-03
DAV:  37    -0.299346343378E+04   -0.89434E-03   -0.63073E-06  5056   0.221E-03    0.282E-03
DAV:  38    -0.299346383982E+04   -0.40604E-03   -0.37336E-06  5088   0.147E-03    0.188E-03
DAV:  39    -0.299346395420E+04   -0.11438E-03   -0.10983E-06  5104   0.922E-04    0.140E-03
DAV:  40    -0.299346404621E+04   -0.92012E-04   -0.10170E-06  5104   0.885E-04    0.929E-04
DAV:  41    -0.299346407573E+04   -0.29514E-04   -0.46245E-07  5104   0.622E-04    0.685E-04
DAV:  42    -0.299346408987E+04   -0.14141E-04   -0.21405E-07  5120   0.428E-04    0.411E-04
DAV:  43    -0.299346410199E+04   -0.12124E-04   -0.18325E-07  5024   0.378E-04    0.303E-04
DAV:  44    -0.299346410478E+04   -0.27880E-05   -0.55287E-08  5088   0.253E-04
   1 F= -.30322819E+04 E0= -.30322819E+04  d E =-.303228E+04  mag=    -0.0000
       N       E                     dE             d eps       ncg     rms          rms(c)
DAV:   1    -0.299261905997E+04    0.84504E+00   -0.53091E+02  5824   0.152E+01    0.216E+01
DAV:   2    -0.299435960515E+04   -0.17405E+01   -0.23760E+01  6928   0.327E+00    0.116E+01
DAV:   3    -0.299421412476E+04    0.14548E+00   -0.94870E-01  7200   0.888E-01    0.941E+00
DAV:   4    -0.299418466500E+04    0.29460E-01   -0.26488E-01  7072   0.525E-01    0.683E+00
DAV:   5    -0.299410013465E+04    0.84530E-01   -0.34519E-01  7312   0.612E-01    0.224E+00
DAV:   6    -0.299407124534E+04    0.28889E-01   -0.12350E-01  7552   0.402E-01    0.824E-01
DAV:   7    -0.299406966181E+04    0.15835E-02   -0.46613E-02  6944   0.183E-01    0.674E-01
DAV:   8    -0.299406764654E+04    0.20153E-02   -0.47880E-03  7072   0.691E-02    0.487E-01
DAV:   9    -0.299406690523E+04    0.74131E-03   -0.28686E-03  7072   0.654E-02    0.313E-01
DAV:  10    -0.299406636868E+04    0.53656E-03   -0.18925E-03  7200   0.471E-02    0.138E-01
DAV:  11    -0.299406630396E+04    0.64717E-04   -0.35806E-04  6976   0.296E-02    0.790E-02
DAV:  12    -0.299406636625E+04   -0.62287E-04   -0.18323E-04  7008   0.157E-02    0.611E-02
DAV:  13    -0.299406641480E+04   -0.48555E-04   -0.19916E-05  5888   0.715E-03    0.382E-02
DAV:  14    -0.299406660958E+04   -0.19478E-03   -0.10124E-04  6496   0.263E-02    0.204E-02
DAV:  15    -0.299406665380E+04   -0.44223E-04   -0.66326E-05  6752   0.698E-03    0.112E-02
DAV:  16    -0.299406670790E+04   -0.54101E-04   -0.30722E-06  4944   0.448E-03    0.853E-03
DAV:  17    -0.299406678351E+04   -0.75611E-04   -0.63931E-06  4976   0.477E-03    0.648E-03
DAV:  18    -0.299406683288E+04   -0.49362E-04   -0.66305E-06  4960   0.331E-03    0.481E-03
DAV:  19    -0.299406686388E+04   -0.31001E-04   -0.14701E-06  4928   0.156E-03    0.321E-03
DAV:  20    -0.299406690956E+04   -0.45678E-04   -0.13696E-06  4832   0.190E-03    0.187E-03
DAV:  21    -0.299406693129E+04   -0.21735E-04   -0.92511E-07  4976   0.112E-03    0.155E-03
DAV:  22    -0.299406694568E+04   -0.14393E-04   -0.29341E-07  4912   0.628E-04    0.156E-03
DAV:  23    -0.299406695831E+04   -0.12630E-04   -0.18492E-07  4896   0.445E-04    0.128E-03
DAV:  24    -0.299406697437E+04   -0.16052E-04   -0.21104E-07  4864   0.542E-04    0.984E-04
DAV:  25    -0.299406698064E+04   -0.62714E-05   -0.16283E-07  4896   0.511E-04
   2 F= -.30328292E+04 E0= -.30328292E+04  d E =-.547331E+00  mag=    -0.0000
       N       E                     dE             d eps       ncg     rms          rms(c)
DAV:   1    -0.299452836068E+04   -0.46139E+00   -0.10589E+02  5760   0.676E+00    0.563E+00
DAV:   2    -0.299477229311E+04   -0.24393E+00   -0.37599E+00  7072   0.135E+00    0.238E+00
DAV:   3    -0.299473720131E+04    0.35092E-01   -0.16584E-01  7232   0.394E-01    0.152E+00
DAV:   4    -0.299472875440E+04    0.84469E-02   -0.90753E-02  7040   0.289E-01    0.115E+00
DAV:   5    -0.299471474418E+04    0.14010E-01   -0.39338E-02  7040   0.207E-01    0.437E-01
DAV:   6    -0.299471296487E+04    0.17793E-02   -0.13494E-02  7392   0.130E-01    0.311E-01
DAV:   7    -0.299471233144E+04    0.63344E-03   -0.57017E-03  6976   0.712E-02    0.201E-01
DAV:   8    -0.299471205854E+04    0.27289E-03   -0.73013E-04  6944   0.321E-02    0.114E-01
DAV:   9    -0.299471205103E+04    0.75097E-05   -0.47711E-04  6912   0.308E-02    0.906E-02
DAV:  10    -0.299471199244E+04    0.58594E-04   -0.28280E-04  7072   0.220E-02    0.327E-02
DAV:  11    -0.299471203741E+04   -0.44973E-04   -0.72858E-05  6880   0.132E-02    0.178E-02
DAV:  12    -0.299471208332E+04   -0.45908E-04   -0.25946E-05  6016   0.691E-03    0.147E-02
DAV:  13    -0.299471212025E+04   -0.36928E-04   -0.56051E-06  5024   0.315E-03    0.102E-02
DAV:  14    -0.299471218994E+04   -0.69694E-04   -0.83262E-06  4992   0.779E-03    0.687E-03
DAV:  15    -0.299471221404E+04   -0.24102E-04   -0.79021E-06  5056   0.272E-03    0.316E-03
DAV:  16    -0.299471223245E+04   -0.18404E-04   -0.14903E-06  4896   0.188E-03    0.246E-03
DAV:  17    -0.299471225621E+04   -0.23761E-04   -0.11721E-06  4928   0.203E-03    0.198E-03
DAV:  18    -0.299471227452E+04   -0.18308E-04   -0.14015E-06  4928   0.142E-03    0.145E-03
DAV:  19    -0.299471228309E+04   -0.85721E-05   -0.30710E-07  4960   0.658E-04
   3 F= -.30335297E+04 E0= -.30335297E+04  d E =-.124782E+01  mag=    -0.0000
       N       E                     dE             d eps       ncg     rms          rms(c)
DAV:   1    -0.299432402487E+04    0.38825E+00   -0.39816E+02  5760   0.145E+01    0.127E+01
DAV:   2    -0.299553790920E+04   -0.12139E+01   -0.14899E+01  7136   0.262E+00    0.630E+00
DAV:   3    -0.299543815655E+04    0.99753E-01   -0.35391E-01  7168   0.548E-01    0.480E+00
DAV:   4    -0.299541967034E+04    0.18486E-01   -0.12518E-01  6976   0.364E-01    0.370E+00
DAV:   5    -0.299537541128E+04    0.44259E-01   -0.13376E-01  7040   0.404E-01    0.104E+00
DAV:   6    -0.299537240804E+04    0.30032E-02   -0.45755E-02  7200   0.234E-01    0.581E-01
DAV:   7    -0.299537046208E+04    0.19460E-02   -0.11481E-02  7008   0.108E-01    0.388E-01
DAV:   8    -0.299536975776E+04    0.70432E-03   -0.15609E-03  7040   0.443E-02    0.253E-01
DAV:   9    -0.299536943411E+04    0.32365E-03   -0.16807E-03  7296   0.481E-02    0.177E-01
DAV:  10    -0.299536911814E+04    0.31597E-03   -0.11798E-03  7200   0.365E-02    0.727E-02
DAV:  11    -0.299536906563E+04    0.52515E-04   -0.21166E-04  7072   0.266E-02    0.424E-02
DAV:  12    -0.299536907989E+04   -0.14257E-04   -0.13711E-04  7136   0.155E-02    0.358E-02
DAV:  13    -0.299536909914E+04   -0.19251E-04   -0.15279E-05  6112   0.590E-03    0.286E-02
DAV:  14    -0.299536915145E+04   -0.52314E-04   -0.13138E-05  4992   0.195E-02    0.126E-02
DAV:  15    -0.299536923145E+04   -0.79996E-04   -0.43658E-05  6784   0.222E-02    0.135E-02
DAV:  16    -0.299536925339E+04   -0.21947E-04   -0.48119E-05  6656   0.570E-03    0.892E-03
DAV:  17    -0.299536928996E+04   -0.36568E-04   -0.89574E-07  4784   0.547E-03    0.732E-03
DAV:  18    -0.299536937782E+04   -0.87860E-04   -0.47845E-06  4896   0.127E-02    0.462E-03
DAV:  19    -0.299536940017E+04   -0.22348E-04   -0.22091E-05  6048   0.391E-03    0.688E-03
DAV:  20    -0.299536940022E+04   -0.52503E-07   -0.20114E-06  5056   0.120E-03
   4 F= -.30341063E+04 E0= -.30341063E+04  d E =-.576600E+00  mag=    -0.0000
       N       E                     dE             d eps       ncg     rms          rms(c)
DAV:   1    -0.299546312883E+04   -0.93729E-01   -0.48284E+01  5760   0.521E+00    0.301E+00
DAV:   2    -0.299557780036E+04   -0.11467E+00   -0.14741E+00  7040   0.857E-01    0.126E+00
DAV:   3    -0.299556537453E+04    0.12426E-01   -0.37475E-02  7264   0.195E-01    0.706E-01
DAV:   4    -0.299556333995E+04    0.20346E-02   -0.22836E-02  7040   0.162E-01    0.680E-01
DAV:   5    -0.299555916431E+04    0.41756E-02   -0.10833E-02  7040   0.117E-01    0.193E-01
DAV:   6    -0.299555891905E+04    0.24526E-03   -0.24619E-03  7008   0.528E-02    0.148E-01
DAV:   7    -0.299555881636E+04    0.10269E-03   -0.83294E-04  6976   0.280E-02    0.108E-01
DAV:   8    -0.299555875573E+04    0.60636E-04   -0.13486E-04  6752   0.159E-02    0.643E-02
DAV:   9    -0.299555871232E+04    0.43407E-04   -0.12558E-04  6784   0.171E-02    0.420E-02
DAV:  10    -0.299555868293E+04    0.29385E-04   -0.89553E-05  7040   0.131E-02    0.172E-02
DAV:  11    -0.299555867680E+04    0.61349E-05   -0.18859E-05  5856   0.933E-03
   5 F= -.30343143E+04 E0= -.30343143E+04  d E =-.784625E+00  mag=    -0.0000
       N       E                     dE             d eps       ncg     rms          rms(c)
DAV:   1    -0.299513196356E+04    0.42672E+00   -0.22166E+02  5760   0.103E+01    0.903E+00
DAV:   2    -0.299577544224E+04   -0.64348E+00   -0.77830E+00  7008   0.184E+00    0.444E+00
DAV:   3    -0.299571858821E+04    0.56854E-01   -0.25527E-01  7136   0.494E-01    0.323E+00
DAV:   4    -0.299570841732E+04    0.10171E-01   -0.85529E-02  6992   0.276E-01    0.263E+00
DAV:   5    -0.299568330566E+04    0.25112E-01   -0.74621E-02  7040   0.263E-01    0.105E+00
DAV:   6    -0.299568018290E+04    0.31228E-02   -0.37693E-02  7200   0.209E-01    0.498E-01
DAV:   7    -0.299567779440E+04    0.23885E-02   -0.13622E-02  7040   0.117E-01    0.285E-01
DAV:   8    -0.299567736608E+04    0.42832E-03   -0.15831E-03  6912   0.424E-02    0.189E-01
DAV:   9    -0.299567721166E+04    0.15442E-03   -0.70983E-04  7200   0.365E-02    0.133E-01
DAV:  10    -0.299567705308E+04    0.15858E-03   -0.46630E-04  7136   0.363E-02    0.525E-02
DAV:  11    -0.299567707047E+04   -0.17392E-04   -0.26172E-04  7232   0.234E-02    0.341E-02
DAV:  12    -0.299567710508E+04   -0.34607E-04   -0.81964E-05  7040   0.985E-03    0.329E-02
DAV:  13    -0.299567713007E+04   -0.24994E-04   -0.64319E-06  5056   0.347E-03    0.254E-02
DAV:  14    -0.299567727616E+04   -0.14608E-03   -0.53655E-05  6432   0.178E-02    0.123E-02
DAV:  15    -0.299567733111E+04   -0.54954E-04   -0.26924E-05  6144   0.742E-03    0.117E-02
DAV:  16    -0.299567735332E+04   -0.22212E-04   -0.11159E-05  5056   0.375E-03    0.657E-03
DAV:  17    -0.299567739106E+04   -0.37736E-04   -0.17923E-06  4896   0.349E-03    0.453E-03
DAV:  18    -0.299567743660E+04   -0.45543E-04   -0.53888E-06  4896   0.351E-03    0.366E-03
DAV:  19    -0.299567744434E+04   -0.77409E-05   -0.21702E-06  5008   0.141E-03
   6 F= -.30344817E+04 E0= -.30344817E+04  d E =-.167360E+00  mag=    -0.0000
       N       E                     dE             d eps       ncg     rms          rms(c)
DAV:   1    -0.299580573847E+04   -0.12830E+00   -0.40578E+01  5760   0.449E+00    0.242E+00
DAV:   2    -0.299590072171E+04   -0.94983E-01   -0.11927E+00  6976   0.759E-01    0.117E+00
DAV:   3    -0.299589228761E+04    0.84341E-02   -0.44456E-02  7136   0.194E-01    0.753E-01
DAV:   4    -0.299588973313E+04    0.25545E-02   -0.13373E-02  6976   0.113E-01    0.616E-01
DAV:   5    -0.299588674895E+04    0.29842E-02   -0.12749E-02  6944   0.107E-01    0.257E-01
DAV:   6    -0.299588613406E+04    0.61490E-03   -0.47823E-03  7072   0.729E-02    0.159E-01
DAV:   7    -0.299588588805E+04    0.24601E-03   -0.15389E-03  7056   0.391E-02    0.101E-01
DAV:   8    -0.299588581830E+04    0.69753E-04   -0.20699E-04  6944   0.168E-02    0.593E-02
DAV:   9    -0.299588579539E+04    0.22905E-04   -0.76794E-05  6720   0.165E-02    0.364E-02
DAV:  10    -0.299588578962E+04    0.57771E-05   -0.64595E-05  7024   0.132E-02
   7 F= -.30346959E+04 E0= -.30346959E+04  d E =-.381535E+00  mag=    -0.0000
       N       E                     dE             d eps       ncg     rms          rms(c)
DAV:   1    -0.299568603033E+04    0.19977E+00   -0.10786E+02  5968   0.755E+00    0.468E+00
DAV:   2    -0.299596030048E+04   -0.27427E+00   -0.34487E+00  7168   0.128E+00    0.262E+00
DAV:   3    -0.299593154263E+04    0.28758E-01   -0.11096E-01  7104   0.323E-01    0.160E+00
DAV:   4    -0.299592727674E+04    0.42659E-02   -0.40785E-02  6912   0.216E-01    0.158E+00
DAV:   5    -0.299591195169E+04    0.15325E-01   -0.39532E-02  6976   0.200E-01    0.389E-01
DAV:   6    -0.299591193563E+04    0.16054E-04   -0.10453E-02  7024   0.103E-01    0.244E-01
DAV:   7    -0.299591160176E+04    0.33387E-03   -0.21160E-03  7008   0.487E-02    0.177E-01
DAV:   8    -0.299591148588E+04    0.11589E-03   -0.30240E-04  6976   0.178E-02    0.113E-01
DAV:   9    -0.299591142328E+04    0.62595E-04   -0.23182E-04  7040   0.181E-02    0.553E-02
DAV:  10    -0.299591141305E+04    0.10228E-04   -0.15700E-04  6944   0.127E-02    0.287E-02
DAV:  11    -0.299591141780E+04   -0.47497E-05   -0.43061E-05  6208   0.758E-03
   8 F= -.30347077E+04 E0= -.30347077E+04  d E =-.117923E-01  mag=    -0.0000
       N       E                     dE             d eps       ncg     rms          rms(c)
DAV:   1    -0.299597612894E+04   -0.64716E-01   -0.27044E+01  5760   0.379E+00    0.188E+00
DAV:   2    -0.299604214275E+04   -0.66014E-01   -0.82396E-01  6976   0.650E-01    0.118E+00
DAV:   3    -0.299603455113E+04    0.75916E-02   -0.25427E-02  7200   0.162E-01    0.583E-01
DAV:   4    -0.299603307280E+04    0.14783E-02   -0.12037E-02  6848   0.119E-01    0.648E-01
DAV:   5    -0.299603014777E+04    0.29250E-02   -0.76714E-03  7200   0.909E-02    0.146E-01
DAV:   6    -0.299603020761E+04   -0.59839E-04   -0.20174E-03  7008   0.437E-02    0.115E-01
DAV:   7    -0.299603012336E+04    0.84243E-04   -0.33351E-04  6976   0.202E-02    0.801E-02
DAV:   8    -0.299603010207E+04    0.21295E-04   -0.56748E-05  6432   0.740E-03    0.499E-02
DAV:   9    -0.299603008973E+04    0.12339E-04   -0.64855E-05  6368   0.839E-03    0.308E-02
DAV:  10    -0.299603007765E+04    0.12076E-04   -0.43650E-05  6304   0.626E-03    0.104E-02
DAV:  11    -0.299603007745E+04    0.20221E-06   -0.66318E-06  5088   0.355E-03
   9 F= -.30348335E+04 E0= -.30348335E+04  d E =-.137664E+00  mag=    -0.0000
       N       E                     dE             d eps       ncg     rms          rms(c)
DAV:   1    -0.299610066088E+04   -0.70583E-01   -0.46634E+01  5760   0.519E+00    0.253E+00
DAV:   2    -0.299622175188E+04   -0.12109E+00   -0.14501E+00  6912   0.873E-01    0.165E+00
DAV:   3    -0.299621055598E+04    0.11196E-01   -0.48552E-02  6960   0.217E-01    0.919E-01
DAV:   4    -0.299620895999E+04    0.15960E-02   -0.19339E-02  6896   0.150E-01    0.991E-01
DAV:   5    -0.299620201177E+04    0.69482E-02   -0.15539E-02  6976   0.134E-01    0.279E-01
DAV:   6    -0.299620210075E+04   -0.88979E-04   -0.58574E-03  6976   0.764E-02    0.187E-01
DAV:   7    -0.299620178482E+04    0.31594E-03   -0.14941E-03  6912   0.382E-02    0.127E-01
DAV:   8    -0.299620174539E+04    0.39425E-04   -0.17173E-04  6880   0.127E-02    0.849E-02
DAV:   9    -0.299620174098E+04    0.44137E-05   -0.13971E-04  6656   0.137E-02    0.508E-02
DAV:  10    -0.299620173441E+04    0.65714E-05   -0.10469E-04  7168   0.116E-02    0.198E-02
DAV:  11    -0.299620174795E+04   -0.13542E-04   -0.20089E-05  5488   0.812E-03    0.115E-02
DAV:  12    -0.299620176402E+04   -0.16070E-04   -0.14132E-05  5376   0.446E-03    0.102E-02
DAV:  13    -0.299620177209E+04   -0.80668E-05   -0.20079E-06  4992   0.178E-03
  10 F= -.30349730E+04 E0= -.30349730E+04  d E =-.139486E+00  mag=    -0.0000
       N       E                     dE             d eps       ncg     rms          rms(c)
DAV:   1    -0.299619712838E+04    0.46356E-02   -0.57375E-01  5824   0.580E-01    0.257E-01
DAV:   2    -0.299619861656E+04   -0.14882E-02   -0.17499E-02  6976   0.972E-02    0.178E-01
DAV:   3    -0.299619848520E+04    0.13136E-03   -0.57499E-04  6992   0.238E-02    0.864E-02
DAV:   4    -0.299619847352E+04    0.11685E-04   -0.25290E-04  6944   0.174E-02    0.993E-02
DAV:   5    -0.299619841534E+04    0.58173E-04   -0.19342E-04  6560   0.144E-02    0.264E-02
DAV:   6    -0.299619842048E+04   -0.51375E-05   -0.61762E-05  6976   0.701E-03
  11 F= -.30349755E+04 E0= -.30349755E+04  d E =-.142012E+00  mag=    -0.0000
       N       E                     dE             d eps       ncg     rms          rms(c)
DAV:   1    -0.299623822227E+04   -0.39807E-01   -0.19765E+01  5760   0.335E+00    0.141E+00
DAV:   2    -0.299628614036E+04   -0.47918E-01   -0.56389E-01  6944   0.526E-01    0.758E-01
DAV:   3    -0.299628285885E+04    0.32815E-02   -0.11207E-02  7104   0.957E-02    0.497E-01
DAV:   4    -0.299628194745E+04    0.91140E-03   -0.44529E-03  6944   0.676E-02    0.424E-01
DAV:   5    -0.299628065389E+04    0.12936E-02   -0.49198E-03  6928   0.689E-02    0.136E-01
DAV:   6    -0.299628059596E+04    0.57931E-04   -0.13152E-03  6928   0.346E-02    0.774E-02
DAV:   7    -0.299628056958E+04    0.26383E-04   -0.23924E-04  7056   0.147E-02    0.619E-02
DAV:   8    -0.299628055530E+04    0.14276E-04   -0.47163E-05  6112   0.709E-03    0.360E-02
DAV:   9    -0.299628055599E+04   -0.68976E-06   -0.37577E-05  6064   0.681E-03
  12 F= -.30350725E+04 E0= -.30350725E+04  d E =-.969912E-01  mag=    -0.0000
       N       E                     dE             d eps       ncg     rms          rms(c)
DAV:   1    -0.299627809281E+04    0.24625E-02   -0.56274E+00  5760   0.178E+00    0.729E-01
DAV:   2    -0.299629163058E+04   -0.13538E-01   -0.15960E-01  6976   0.279E-01    0.397E-01
DAV:   3    -0.299629068932E+04    0.94126E-03   -0.31723E-03  7104   0.511E-02    0.252E-01
DAV:   4    -0.299629042997E+04    0.25935E-03   -0.12892E-03  6880   0.368E-02    0.220E-01
DAV:   5    -0.299629006809E+04    0.36188E-03   -0.13636E-03  6880   0.370E-02    0.679E-02
DAV:   6    -0.299629005841E+04    0.96814E-05   -0.33192E-04  6880   0.183E-02    0.411E-02
DAV:   7    -0.299629005567E+04    0.27386E-05   -0.55705E-05  6880   0.785E-03
  13 F= -.30350796E+04 E0= -.30350796E+04  d E =-.104080E+00  mag=    -0.0000
       N       E                     dE             d eps       ncg     rms          rms(c)
DAV:   1    -0.299634227187E+04   -0.52213E-01   -0.14402E+01  5760   0.289E+00    0.115E+00
DAV:   2    -0.299637707652E+04   -0.34805E-01   -0.42889E-01  7072   0.473E-01    0.677E-01
DAV:   3    -0.299637413812E+04    0.29384E-02   -0.10121E-02  7136   0.964E-02    0.417E-01
DAV:   4    -0.299637316346E+04    0.97466E-03   -0.36128E-03  7056   0.648E-02    0.362E-01
DAV:   5    -0.299637212468E+04    0.10388E-02   -0.34992E-03  6960   0.619E-02    0.112E-01
DAV:   6    -0.299637208781E+04    0.36871E-04   -0.92980E-04  7040   0.336E-02    0.693E-02
DAV:   7    -0.299637209081E+04   -0.30059E-05   -0.21010E-04  6944   0.161E-02    0.561E-02
DAV:   8    -0.299637207524E+04    0.15570E-04   -0.32271E-05  6208   0.771E-03    0.332E-02
DAV:   9    -0.299637207423E+04    0.10133E-05   -0.30264E-05  6048   0.900E-03
  14 F= -.30351570E+04 E0= -.30351570E+04  d E =-.773720E-01  mag=    -0.0000
       N       E                     dE             d eps       ncg     rms          rms(c)
DAV:   1    -0.299637591366E+04   -0.38384E-02   -0.18132E+00  5792   0.102E+00    0.396E-01
DAV:   2    -0.299638021514E+04   -0.43015E-02   -0.53228E-02  7104   0.168E-01    0.240E-01
DAV:   3    -0.299637983510E+04    0.38003E-03   -0.13047E-03  7088   0.347E-02    0.145E-01
DAV:   4    -0.299637971559E+04    0.11951E-03   -0.46620E-04  6976   0.234E-02    0.129E-01
DAV:   5    -0.299637958096E+04    0.13463E-03   -0.46348E-04  6912   0.229E-02    0.394E-02
DAV:   6    -0.299637958038E+04    0.57550E-06   -0.12668E-04  7008   0.127E-02    0.245E-02
DAV:   7    -0.299637958383E+04   -0.34482E-05   -0.29625E-05  6752   0.612E-03
  15 F= -.30351628E+04 E0= -.30351628E+04  d E =-.832113E-01  mag=    -0.0000
       N       E                     dE             d eps       ncg     rms          rms(c)
DAV:   1    -0.299642585991E+04   -0.46280E-01   -0.85288E+00  5760   0.227E+00    0.101E+00
DAV:   2    -0.299644605096E+04   -0.20191E-01   -0.25145E-01  7072   0.370E-01    0.567E-01
DAV:   3    -0.299644411778E+04    0.19332E-02   -0.63364E-03  7072   0.818E-02    0.320E-01
DAV:   4    -0.299644355875E+04    0.55903E-03   -0.27332E-03  6976   0.607E-02    0.307E-01
DAV:   5    -0.299644283580E+04    0.72295E-03   -0.22151E-03  7040   0.542E-02    0.756E-02
DAV:   6    -0.299644282731E+04    0.84882E-05   -0.62843E-04  6976   0.266E-02    0.657E-02
DAV:   7    -0.299644281446E+04    0.12852E-04   -0.12809E-04  6976   0.116E-02    0.491E-02
DAV:   8    -0.299644280128E+04    0.13177E-04   -0.19583E-05  5856   0.579E-03    0.312E-02
DAV:   9    -0.299644279292E+04    0.83630E-05   -0.24963E-05  5792   0.764E-03
  16 F= -.30352237E+04 E0= -.30352237E+04  d E =-.608277E-01  mag=    -0.0000
       N       E                     dE             d eps       ncg     rms          rms(c)
DAV:   1    -0.299644940709E+04   -0.66058E-02   -0.32025E+00  5760   0.139E+00    0.614E-01
DAV:   2    -0.299645696891E+04   -0.75618E-02   -0.94456E-02  7104   0.227E-01    0.348E-01
DAV:   3    -0.299645621904E+04    0.74988E-03   -0.24083E-03  6944   0.509E-02    0.197E-01
DAV:   4    -0.299645599236E+04    0.22668E-03   -0.10476E-03  7008   0.380E-02    0.190E-01
DAV:   5    -0.299645569780E+04    0.29456E-03   -0.85817E-04  7008   0.351E-02    0.474E-02
DAV:   6    -0.299645569274E+04    0.50560E-05   -0.26184E-04  7040   0.177E-02    0.416E-02
DAV:   7    -0.299645568639E+04    0.63546E-05   -0.52409E-05  6992   0.780E-03
  17 F= -.30352346E+04 E0= -.30352346E+04  d E =-.718122E-01  mag=    -0.0000
       N       E                     dE             d eps       ncg     rms          rms(c)
DAV:   1    -0.299649260608E+04   -0.36913E-01   -0.94186E+00  5760   0.236E+00    0.986E-01
DAV:   2    -0.299651603928E+04   -0.23433E-01   -0.28145E-01  6976   0.382E-01    0.582E-01
DAV:   3    -0.299651450518E+04    0.15341E-02   -0.66369E-03  7072   0.762E-02    0.330E-01
DAV:   4    -0.299651409024E+04    0.41494E-03   -0.24664E-03  6976   0.532E-02    0.322E-01
DAV:   5    -0.299651345936E+04    0.63088E-03   -0.24760E-03  6928   0.494E-02    0.887E-02
DAV:   6    -0.299651343866E+04    0.20697E-04   -0.55046E-04  6976   0.230E-02    0.567E-02
DAV:   7    -0.299651343346E+04    0.52000E-05   -0.12378E-04  6976   0.112E-02    0.447E-02
DAV:   8    -0.299651342786E+04    0.56007E-05   -0.24112E-05  6048   0.484E-03
  18 F= -.30352894E+04 E0= -.30352894E+04  d E =-.547577E-01  mag=    -0.0000
       N       E                     dE             d eps       ncg     rms          rms(c)
DAV:   1    -0.299651787520E+04   -0.44417E-02   -0.58978E+00  5760   0.187E+00    0.772E-01
DAV:   2    -0.299653258665E+04   -0.14711E-01   -0.17666E-01  7008   0.304E-01    0.461E-01
DAV:   3    -0.299653161176E+04    0.97489E-03   -0.41505E-03  6976   0.604E-02    0.263E-01
DAV:   4    -0.299653133933E+04    0.27243E-03   -0.15640E-03  6976   0.425E-02    0.254E-01
DAV:   5    -0.299653094846E+04    0.39086E-03   -0.16080E-03  6944   0.398E-02    0.726E-02
DAV:   6    -0.299653093249E+04    0.15975E-04   -0.37775E-04  6880   0.190E-02    0.459E-02
DAV:   7    -0.299653093037E+04    0.21186E-05   -0.85062E-05  6976   0.923E-03
  19 F= -.30353024E+04 E0= -.30353024E+04  d E =-.677472E-01  mag=    -0.0000
       N       E                     dE             d eps       ncg     rms          rms(c)
DAV:   1    -0.299655929338E+04   -0.28361E-01   -0.41254E+00  5760   0.151E+00    0.662E-01
DAV:   2    -0.299657013739E+04   -0.10844E-01   -0.12663E-01  7072   0.247E-01    0.489E-01
DAV:   3    -0.299656940790E+04    0.72949E-03   -0.30604E-03  6944   0.517E-02    0.241E-01
DAV:   4    -0.299656936869E+04    0.39203E-04   -0.13342E-03  6944   0.396E-02    0.282E-01
DAV:   5    -0.299656894320E+04    0.42549E-03   -0.12491E-03  6960   0.336E-02    0.666E-02
DAV:   6    -0.299656895059E+04   -0.73810E-05   -0.27731E-04  6912   0.150E-02    0.456E-02
DAV:   7    -0.299656895081E+04   -0.22276E-06   -0.59380E-05  6912   0.763E-03
  20 F= -.30353421E+04 E0= -.30353421E+04  d E =-.397500E-01  mag=    -0.0000
       N       E                     dE             d eps       ncg     rms          rms(c)
DAV:   1    -0.299653498154E+04    0.33969E-01   -0.30555E+01  5760   0.412E+00    0.193E+00
DAV:   2    -0.299661509849E+04   -0.80117E-01   -0.93398E-01  7008   0.673E-01    0.138E+00
DAV:   3    -0.299660947585E+04    0.56226E-02   -0.22625E-02  6976   0.141E-01    0.680E-01
DAV:   4    -0.299660891114E+04    0.56471E-03   -0.93579E-03  6944   0.105E-01    0.783E-01
DAV:   5    -0.299660583326E+04    0.30779E-02   -0.86269E-03  6912   0.891E-02    0.180E-01
DAV:   6    -0.299660587583E+04   -0.42571E-04   -0.18195E-03  6880   0.397E-02    0.125E-01
DAV:   7    -0.299660586039E+04    0.15443E-04   -0.35989E-04  7008   0.196E-02    0.102E-01
DAV:   8    -0.299660582906E+04    0.31334E-04   -0.84440E-05  6304   0.865E-03    0.528E-02
DAV:   9    -0.299660582325E+04    0.58058E-05   -0.85653E-05  6144   0.792E-03
  21 F= -.30353798E+04 E0= -.30353798E+04  d E =-.774309E-01  mag=    -0.0000
       N       E                     dE             d eps       ncg     rms          rms(c)
DAV:   1    -0.299663049234E+04   -0.24663E-01   -0.88892E+00  5760   0.220E+00    0.101E+00
DAV:   2    -0.299665370599E+04   -0.23214E-01   -0.27607E-01  6944   0.364E-01    0.543E-01
DAV:   3    -0.299665231099E+04    0.13950E-02   -0.56649E-03  7024   0.688E-02    0.334E-01
DAV:   4    -0.299665182220E+04    0.48880E-03   -0.18431E-03  7040   0.455E-02    0.287E-01
DAV:   5    -0.299665138287E+04    0.43933E-03   -0.20642E-03  6992   0.456E-02    0.966E-02
DAV:   6    -0.299665137331E+04    0.95608E-05   -0.62436E-04  7024   0.241E-02    0.570E-02
DAV:   7    -0.299665136017E+04    0.13135E-04   -0.13746E-04  7040   0.118E-02    0.453E-02
DAV:   8    -0.299665134979E+04    0.10384E-04   -0.27723E-05  6048   0.551E-03    0.256E-02
DAV:   9    -0.299665134746E+04    0.23310E-05   -0.19363E-05  5600   0.519E-03
  22 F= -.30354232E+04 E0= -.30354232E+04  d E =-.434096E-01  mag=    -0.0000
       N       E                     dE             d eps       ncg     rms          rms(c)
DAV:   1    -0.299664594496E+04    0.54048E-02   -0.11441E+01  5760   0.250E+00    0.116E+00
DAV:   2    -0.299667572213E+04   -0.29777E-01   -0.35499E-01  6912   0.413E-01    0.617E-01
DAV:   3    -0.299667391080E+04    0.18113E-02   -0.72905E-03  7072   0.786E-02    0.380E-01
DAV:   4    -0.299667325115E+04    0.65965E-03   -0.22629E-03  7008   0.514E-02    0.325E-01
DAV:   5    -0.299667266050E+04    0.59066E-03   -0.24647E-03  6944   0.520E-02    0.106E-01
DAV:   6    -0.299667265131E+04    0.91892E-05   -0.75653E-04  7008   0.280E-02    0.635E-02
DAV:   7    -0.299667263734E+04    0.13963E-04   -0.18184E-04  6992   0.137E-02    0.514E-02
DAV:   8    -0.299667262220E+04    0.15143E-04   -0.36832E-05  6016   0.656E-03    0.293E-02
DAV:   9    -0.299667261932E+04    0.28826E-05   -0.26922E-05  5856   0.655E-03
  23 F= -.30354421E+04 E0= -.30354421E+04  d E =-.622787E-01  mag=    -0.0000
       N       E                     dE             d eps       ncg     rms          rms(c)
DAV:   1    -0.299671095630E+04   -0.38334E-01   -0.88995E+00  5760   0.222E+00    0.107E+00
DAV:   2    -0.299673434048E+04   -0.23384E-01   -0.28323E-01  6944   0.376E-01    0.625E-01
DAV:   3    -0.299673258002E+04    0.17605E-02   -0.72743E-03  7104   0.800E-02    0.368E-01
DAV:   4    -0.299673221667E+04    0.36335E-03   -0.28818E-03  6880   0.559E-02    0.349E-01
DAV:   5    -0.299673146422E+04    0.75245E-03   -0.29255E-03  6944   0.509E-02    0.120E-01
DAV:   6    -0.299673143727E+04    0.26953E-04   -0.91437E-04  6960   0.274E-02    0.685E-02
DAV:   7    -0.299673140828E+04    0.28987E-04   -0.18690E-04  6912   0.138E-02    0.521E-02
DAV:   8    -0.299673139811E+04    0.10168E-04   -0.31531E-05  6304   0.561E-03    0.307E-02
DAV:   9    -0.299673139588E+04    0.22347E-05   -0.24049E-05  5872   0.510E-03
  24 F= -.30354958E+04 E0= -.30354958E+04  d E =-.536920E-01  mag=    -0.0000
       N       E                     dE             d eps       ncg     rms          rms(c)
DAV:   1    -0.299673827599E+04   -0.68779E-02   -0.36934E+00  5760   0.143E+00    0.687E-01
DAV:   2    -0.299674793220E+04   -0.96562E-02   -0.11738E-01  6944   0.242E-01    0.400E-01
DAV:   3    -0.299674719036E+04    0.74184E-03   -0.30365E-03  7008   0.520E-02    0.234E-01
DAV:   4    -0.299674702621E+04    0.16414E-03   -0.11777E-03  6880   0.363E-02    0.223E-01
DAV:   5    -0.299674670809E+04    0.31812E-03   -0.11603E-03  6848   0.330E-02    0.753E-02
DAV:   6    -0.299674670055E+04    0.75433E-05   -0.37047E-04  6928   0.184E-02    0.448E-02
DAV:   7    -0.299674668968E+04    0.10869E-04   -0.86794E-05  6912   0.947E-03    0.344E-02
DAV:   8    -0.299674668619E+04    0.34870E-05   -0.12832E-05  5536   0.387E-03
  25 F= -.30355061E+04 E0= -.30355061E+04  d E =-.640503E-01  mag=    -0.0000
       N       E                     dE             d eps       ncg     rms          rms(c)
DAV:   1    -0.299677195149E+04   -0.25262E-01   -0.80536E+00  5760   0.209E+00    0.100E+00
DAV:   2    -0.299679311303E+04   -0.21162E-01   -0.25318E-01  7008   0.352E-01    0.619E-01
DAV:   3    -0.299679170058E+04    0.14125E-02   -0.62135E-03  7072   0.740E-02    0.348E-01
DAV:   4    -0.299679141668E+04    0.28390E-03   -0.23694E-03  6800   0.518E-02    0.347E-01
DAV:   5    -0.299679071985E+04    0.69684E-03   -0.25218E-03  6912   0.486E-02    0.103E-01
DAV:   6    -0.299679070815E+04    0.11692E-04   -0.67733E-04  6912   0.247E-02    0.593E-02
DAV:   7    -0.299679068942E+04    0.18731E-04   -0.13805E-04  6976   0.125E-02    0.462E-02
DAV:   8    -0.299679068064E+04    0.87858E-05   -0.26845E-05  5856   0.553E-03
  26 F= -.30355483E+04 E0= -.30355483E+04  d E =-.421261E-01  mag=    -0.0000
       N       E                     dE             d eps       ncg     rms          rms(c)
DAV:   1    -0.299678988412E+04    0.80530E-03   -0.72265E+00  5760   0.198E+00    0.949E-01
DAV:   2    -0.299680886604E+04   -0.18982E-01   -0.22713E-01  7040   0.334E-01    0.587E-01
DAV:   3    -0.299680759828E+04    0.12678E-02   -0.56476E-03  7072   0.707E-02    0.327E-01
DAV:   4    -0.299680733749E+04    0.26079E-03   -0.21677E-03  6848   0.493E-02    0.329E-01
DAV:   5    -0.299680670407E+04    0.63341E-03   -0.23049E-03  6880   0.465E-02    0.986E-02
DAV:   6    -0.299680669170E+04    0.12371E-04   -0.63414E-04  6880   0.240E-02    0.569E-02
DAV:   7    -0.299680667413E+04    0.17577E-04   -0.13037E-04  7040   0.123E-02    0.438E-02
DAV:   8    -0.299680666806E+04    0.60686E-05   -0.23910E-05  5856   0.546E-03
  27 F= -.30355620E+04 E0= -.30355620E+04  d E =-.558828E-01  mag=    -0.0000
       N       E                     dE             d eps       ncg     rms          rms(c)
DAV:   1    -0.299682870903E+04   -0.22035E-01   -0.84561E+00  5760   0.212E+00    0.984E-01
DAV:   2    -0.299685004200E+04   -0.21333E-01   -0.25827E-01  6944   0.355E-01    0.571E-01
DAV:   3    -0.299684871183E+04    0.13302E-02   -0.59791E-03  7072   0.723E-02    0.346E-01
DAV:   4    -0.299684834809E+04    0.36374E-03   -0.20463E-03  6912   0.487E-02    0.315E-01
DAV:   5    -0.299684781562E+04    0.53247E-03   -0.22930E-03  6944   0.488E-02    0.997E-02
DAV:   6    -0.299684779373E+04    0.21885E-04   -0.60995E-04  7040   0.257E-02    0.568E-02
DAV:   7    -0.299684778237E+04    0.11361E-04   -0.15033E-04  7008   0.126E-02    0.466E-02
DAV:   8    -0.299684777194E+04    0.10433E-04   -0.31990E-05  6112   0.569E-03    0.272E-02
DAV:   9    -0.299684776852E+04    0.34127E-05   -0.25214E-05  5952   0.551E-03
  28 F= -.30356011E+04 E0= -.30356011E+04  d E =-.390642E-01  mag=    -0.0000
       N       E                     dE             d eps       ncg     rms          rms(c)
DAV:   1    -0.299684941619E+04   -0.16443E-02   -0.37539E+00  5760   0.141E+00    0.649E-01
DAV:   2    -0.299685882714E+04   -0.94109E-02   -0.11422E-01  6944   0.237E-01    0.381E-01
DAV:   3    -0.299685820967E+04    0.61747E-03   -0.27303E-03  7072   0.497E-02    0.230E-01
DAV:   4    -0.299685804642E+04    0.16325E-03   -0.93660E-04  6880   0.335E-02    0.211E-01
DAV:   5    -0.299685778427E+04    0.26215E-03   -0.10255E-03  6880   0.342E-02    0.661E-02
DAV:   6    -0.299685777419E+04    0.10081E-04   -0.26987E-04  6976   0.182E-02    0.366E-02
DAV:   7    -0.299685777100E+04    0.31866E-05   -0.65003E-05  6960   0.875E-03
  29 F= -.30356094E+04 E0= -.30356094E+04  d E =-.473224E-01  mag=    -0.0000
       N       E                     dE             d eps       ncg     rms          rms(c)
DAV:   1    -0.299687687778E+04   -0.19104E-01   -0.58526E+00  5760   0.177E+00    0.803E-01
DAV:   2    -0.299689028968E+04   -0.13412E-01   -0.16584E-01  7008   0.291E-01    0.440E-01
DAV:   3    -0.299688933006E+04    0.95962E-03   -0.39294E-03  7104   0.601E-02    0.266E-01
DAV:   4    -0.299688910356E+04    0.22650E-03   -0.14852E-03  6944   0.429E-02    0.245E-01
DAV:   5    -0.299688875207E+04    0.35149E-03   -0.14794E-03  6976   0.394E-02    0.761E-02
DAV:   6    -0.299688873897E+04    0.13102E-04   -0.35737E-04  7008   0.198E-02    0.455E-02
DAV:   7    -0.299688873517E+04    0.38006E-05   -0.10378E-04  6944   0.103E-02    0.382E-02
DAV:   8    -0.299688872979E+04    0.53791E-05   -0.22246E-05  5952   0.473E-03
  30 F= -.30356379E+04 E0= -.30356379E+04  d E =-.285459E-01  mag=    -0.0000
       N       E                     dE             d eps       ncg     rms          rms(c)
DAV:   1    -0.299689160032E+04   -0.28652E-02   -0.27618E+00  5760   0.122E+00    0.552E-01
DAV:   2    -0.299689793781E+04   -0.63375E-02   -0.78203E-02  6976   0.200E-01    0.305E-01
DAV:   3    -0.299689747402E+04    0.46379E-03   -0.19298E-03  7120   0.424E-02    0.184E-01
DAV:   4    -0.299689736930E+04    0.10472E-03   -0.77901E-04  6880   0.303E-02    0.170E-01
DAV:   5    -0.299689719006E+04    0.17924E-03   -0.80811E-04  6864   0.286E-02    0.586E-02
DAV:   6    -0.299689717922E+04    0.10835E-04   -0.23272E-04  6944   0.151E-02    0.333E-02
DAV:   7    -0.299689717424E+04    0.49793E-05   -0.57501E-05  6880   0.790E-03
  31 F= -.30356445E+04 E0= -.30356445E+04  d E =-.351641E-01  mag=     0.0000
       N       E                     dE             d eps       ncg     rms          rms(c)
DAV:   1    -0.299691339363E+04   -0.16214E-01   -0.71256E+00  5760   0.197E+00    0.917E-01
DAV:   2    -0.299692997122E+04   -0.16578E-01   -0.20299E-01  6976   0.318E-01    0.475E-01
DAV:   3    -0.299692876419E+04    0.12070E-02   -0.44027E-03  6976   0.624E-02    0.293E-01
DAV:   4    -0.299692848009E+04    0.28410E-03   -0.18073E-03  6944   0.446E-02    0.256E-01
DAV:   5    -0.299692808883E+04    0.39126E-03   -0.15263E-03  6880   0.391E-02    0.876E-02
DAV:   6    -0.299692806921E+04    0.19626E-04   -0.43260E-04  7040   0.209E-02    0.482E-02
DAV:   7    -0.299692805981E+04    0.93954E-05   -0.11001E-04  6976   0.104E-02    0.387E-02
DAV:   8    -0.299692805290E+04    0.69165E-05   -0.20717E-05  5632   0.480E-03
  32 F= -.30356716E+04 E0= -.30356716E+04  d E =-.270653E-01  mag=     0.0000
       N       E                     dE             d eps       ncg     rms          rms(c)
DAV:   1    -0.299693048790E+04   -0.24281E-02   -0.12753E+00  5760   0.832E-01    0.390E-01
DAV:   2    -0.299693346648E+04   -0.29786E-02   -0.36514E-02  6976   0.135E-01    0.201E-01
DAV:   3    -0.299693325156E+04    0.21492E-03   -0.84270E-04  6976   0.274E-02    0.126E-01
DAV:   4    -0.299693321077E+04    0.40782E-04   -0.40194E-04  6880   0.195E-02    0.109E-01
DAV:   5    -0.299693313344E+04    0.77331E-04   -0.38614E-04  6656   0.180E-02    0.451E-02
DAV:   6    -0.299693312391E+04    0.95296E-05   -0.12127E-04  7008   0.103E-02    0.211E-02
DAV:   7    -0.299693312178E+04    0.21342E-05   -0.23654E-05  5920   0.526E-03
  33 F= -.30356744E+04 E0= -.30356744E+04  d E =-.298526E-01  mag=     0.0000
       N       E                     dE             d eps       ncg     rms          rms(c)
DAV:   1    -0.299693811350E+04   -0.49896E-02   -0.68048E+00  5760   0.196E+00    0.937E-01
DAV:   2    -0.299695521285E+04   -0.17099E-01   -0.20600E-01  6944   0.325E-01    0.526E-01
DAV:   3    -0.299695407240E+04    0.11404E-02   -0.46802E-03  7008   0.646E-02    0.297E-01
DAV:   4    -0.299695376873E+04    0.30367E-03   -0.17867E-03  6912   0.465E-02    0.286E-01
DAV:   5    -0.299695337789E+04    0.39084E-03   -0.17080E-03  6912   0.428E-02    0.741E-02
DAV:   6    -0.299695337808E+04   -0.18842E-06   -0.41124E-04  7040   0.216E-02    0.531E-02
DAV:   7    -0.299695337124E+04    0.68317E-05   -0.88256E-05  7008   0.103E-02
  34 F= -.30356960E+04 E0= -.30356960E+04  d E =-.216793E-01  mag=     0.0000
       N       E                     dE             d eps       ncg     rms          rms(c)
DAV:   1    -0.299695267392E+04    0.70416E-03   -0.96733E-01  5792   0.739E-01    0.359E-01
DAV:   2    -0.299695513024E+04   -0.24563E-02   -0.29727E-02  6944   0.123E-01    0.192E-01
DAV:   3    -0.299695498440E+04    0.14584E-03   -0.64704E-04  7040   0.244E-02    0.109E-01
DAV:   4    -0.299695494416E+04    0.40242E-04   -0.25576E-04  6880   0.181E-02    0.104E-01
DAV:   5    -0.299695489698E+04    0.47180E-04   -0.21324E-04  6848   0.169E-02    0.258E-02
DAV:   6    -0.299695489753E+04   -0.55059E-06   -0.62685E-05  7040   0.913E-03
  35 F= -.30356977E+04 E0= -.30356977E+04  d E =-.233756E-01  mag=     0.0000
       N       E                     dE             d eps       ncg     rms          rms(c)
DAV:   1    -0.299696181472E+04   -0.69177E-02   -0.78330E+00  5760   0.211E+00    0.956E-01
DAV:   2    -0.299698135908E+04   -0.19544E-01   -0.23649E-01  6944   0.352E-01    0.519E-01
DAV:   3    -0.299698012976E+04    0.12293E-02   -0.53604E-03  7072   0.681E-02    0.318E-01
DAV:   4    -0.299697977809E+04    0.35168E-03   -0.21624E-03  6976   0.481E-02    0.281E-01
DAV:   5    -0.299697935926E+04    0.41883E-03   -0.24109E-03  7008   0.467E-02    0.104E-01
DAV:   6    -0.299697930726E+04    0.51998E-04   -0.70733E-04  7008   0.253E-02    0.559E-02
DAV:   7    -0.299697929032E+04    0.16942E-04   -0.13924E-04  6976   0.125E-02    0.442E-02
DAV:   8    -0.299697928183E+04    0.84863E-05   -0.21394E-05  6016   0.540E-03
  36 F= -.30357197E+04 E0= -.30357197E+04  d E =-.219938E-01  mag=     0.0000
       N       E                     dE             d eps       ncg     rms          rms(c)
DAV:   1    -0.299697971809E+04   -0.42777E-03   -0.80414E-01  5760   0.677E-01    0.304E-01
DAV:   2    -0.299698174752E+04   -0.20294E-02   -0.24590E-02  7008   0.114E-01    0.169E-01
DAV:   3    -0.299698161851E+04    0.12902E-03   -0.57817E-04  7104   0.228E-02    0.104E-01
DAV:   4    -0.299698157849E+04    0.40018E-04   -0.21530E-04  6848   0.156E-02    0.900E-02
DAV:   5    -0.299698154005E+04    0.38439E-04   -0.26185E-04  6592   0.163E-02    0.353E-02
DAV:   6    -0.299698153490E+04    0.51502E-05   -0.87727E-05  6976   0.920E-03
  37 F= -.30357212E+04 E0= -.30357212E+04  d E =-.234577E-01  mag=     0.0000
       N       E                     dE             d eps       ncg     rms          rms(c)
DAV:   1    -0.299699101546E+04   -0.94754E-02   -0.79854E+00  5760   0.214E+00    0.916E-01
DAV:   2    -0.299701041476E+04   -0.19399E-01   -0.23005E-01  6880   0.343E-01    0.462E-01
DAV:   3    -0.299700920255E+04    0.12122E-02   -0.49152E-03  7168   0.635E-02    0.309E-01
DAV:   4    -0.299700900510E+04    0.19746E-03   -0.25697E-03  6944   0.452E-02    0.257E-01
DAV:   5    -0.299700854198E+04    0.46312E-03   -0.25567E-03  6912   0.438E-02    0.952E-02
DAV:   6    -0.299700850765E+04    0.34332E-04   -0.57493E-04  6912   0.220E-02    0.470E-02
DAV:   7    -0.299700850320E+04    0.44460E-05   -0.10386E-04  7008   0.111E-02    0.368E-02
DAV:   8    -0.299700849898E+04    0.42234E-05   -0.17950E-05  5728   0.499E-03
  38 F= -.30357431E+04 E0= -.30357431E+04  d E =-.219169E-01  mag=     0.0000
       N       E                     dE             d eps       ncg     rms          rms(c)
DAV:   1    -0.299701036283E+04   -0.18596E-02   -0.11545E+00  5760   0.812E-01    0.347E-01
DAV:   2    -0.299701318962E+04   -0.28268E-02   -0.33456E-02  6976   0.131E-01    0.176E-01
DAV:   3    -0.299701301179E+04    0.17784E-03   -0.71950E-04  7040   0.245E-02    0.116E-01
DAV:   4    -0.299701298183E+04    0.29957E-04   -0.37510E-04  6944   0.172E-02    0.964E-02
DAV:   5    -0.299701292454E+04    0.57290E-04   -0.38232E-04  6672   0.172E-02    0.381E-02
DAV:   6    -0.299701291906E+04    0.54800E-05   -0.91558E-05  6944   0.895E-03
  39 F= -.30357451E+04 E0= -.30357451E+04  d E =-.239329E-01  mag=     0.0000
       N       E                     dE             d eps       ncg     rms          rms(c)
DAV:   1    -0.299701088074E+04    0.20438E-02   -0.92805E+00  5760   0.233E+00    0.994E-01
DAV:   2    -0.299703274188E+04   -0.21861E-01   -0.26105E-01  6912   0.370E-01    0.515E-01
DAV:   3    -0.299703133875E+04    0.14031E-02   -0.54961E-03  7104   0.676E-02    0.324E-01
DAV:   4    -0.299703106979E+04    0.26896E-03   -0.28267E-03  6880   0.512E-02    0.284E-01
DAV:   5    -0.299703054842E+04    0.52138E-03   -0.27491E-03  6912   0.475E-02    0.105E-01
DAV:   6    -0.299703048825E+04    0.60167E-04   -0.68525E-04  6912   0.247E-02    0.541E-02
DAV:   7    -0.299703047101E+04    0.17242E-04   -0.13204E-04  7040   0.126E-02    0.430E-02
DAV:   8    -0.299703046059E+04    0.10413E-04   -0.23282E-05  5984   0.560E-03    0.240E-02
DAV:   9    -0.299703045718E+04    0.34192E-05   -0.20294E-05  5664   0.462E-03
  40 F= -.30357641E+04 E0= -.30357641E+04  d E =-.189312E-01  mag=     0.0000
       N       E                     dE             d eps       ncg     rms          rms(c)
DAV:   1    -0.299703043847E+04    0.22126E-04   -0.28775E-01  5824   0.410E-01    0.173E-01
DAV:   2    -0.299703112200E+04   -0.68354E-03   -0.81543E-03  6944   0.659E-02    0.926E-02
DAV:   3    -0.299703107597E+04    0.46033E-04   -0.17937E-04  7072   0.125E-02    0.585E-02
DAV:   4    -0.299703106838E+04    0.75874E-05   -0.87912E-05  6432   0.934E-03    0.515E-02
DAV:   5    -0.299703105126E+04    0.17123E-04   -0.90735E-05  6240   0.950E-03    0.193E-02
DAV:   6    -0.299703105042E+04    0.83982E-06   -0.25379E-05  5792   0.519E-03
  41 F= -.30357645E+04 E0= -.30357645E+04  d E =-.193709E-01  mag=     0.0000
       N       E                     dE             d eps       ncg     rms          rms(c)
DAV:   1    -0.299703643452E+04   -0.53833E-02   -0.87949E+00  5760   0.230E+00    0.937E-01
DAV:   2    -0.299705721599E+04   -0.20781E-01   -0.24888E-01  6912   0.368E-01    0.507E-01
DAV:   3    -0.299705589301E+04    0.13230E-02   -0.62588E-03  7040   0.732E-02    0.326E-01
DAV:   4    -0.299705556186E+04    0.33115E-03   -0.24387E-03  6912   0.482E-02    0.277E-01
DAV:   5    -0.299705510646E+04    0.45540E-03   -0.27806E-03  6912   0.473E-02    0.114E-01
DAV:   6    -0.299705505890E+04    0.47556E-04   -0.77913E-04  6944   0.248E-02    0.557E-02
DAV:   7    -0.299705504132E+04    0.17577E-04   -0.13609E-04  7008   0.126E-02    0.374E-02
DAV:   8    -0.299705503623E+04    0.50915E-05   -0.24476E-05  6016   0.501E-03
  42 F= -.30357836E+04 E0= -.30357836E+04  d E =-.191246E-01  mag=     0.0000
       N       E                     dE             d eps       ncg     rms          rms(c)
DAV:   1    -0.299705582901E+04   -0.78769E-03   -0.11056E+00  5760   0.817E-01    0.334E-01
DAV:   2    -0.299705846516E+04   -0.26361E-02   -0.31562E-02  6944   0.131E-01    0.181E-01
DAV:   3    -0.299705829831E+04    0.16684E-03   -0.80957E-04  6944   0.262E-02    0.115E-01
DAV:   4    -0.299705826034E+04    0.37977E-04   -0.32947E-04  6880   0.173E-02    0.988E-02
DAV:   5    -0.299705820711E+04    0.53231E-04   -0.36691E-04  6544   0.172E-02    0.418E-02
DAV:   6    -0.299705820052E+04    0.65824E-05   -0.10535E-04  6976   0.934E-03    0.198E-02
DAV:   7    -0.299705819967E+04    0.85472E-06   -0.17159E-05  5696   0.475E-03
  43 F= -.30357851E+04 E0= -.30357851E+04  d E =-.205630E-01  mag=     0.0000
       N       E                     dE             d eps       ncg     rms          rms(c)
DAV:   1    -0.299706779969E+04   -0.95992E-02   -0.72716E+00  5760   0.207E+00    0.866E-01
DAV:   2    -0.299708491475E+04   -0.17115E-01   -0.20436E-01  6880   0.330E-01    0.512E-01
DAV:   3    -0.299708383485E+04    0.10799E-02   -0.53023E-03  6944   0.667E-02    0.306E-01
DAV:   4    -0.299708355834E+04    0.27651E-03   -0.19047E-03  6880   0.442E-02    0.276E-01
DAV:   5    -0.299708316381E+04    0.39453E-03   -0.23192E-03  6848   0.432E-02    0.111E-01
DAV:   6    -0.299708312507E+04    0.38740E-04   -0.73056E-04  6976   0.233E-02    0.532E-02
DAV:   7    -0.299708310548E+04    0.19592E-04   -0.11544E-04  6976   0.116E-02    0.364E-02
DAV:   8    -0.299708310483E+04    0.65181E-06   -0.18033E-05  5760   0.444E-03
  44 F= -.30358034E+04 E0= -.30358034E+04  d E =-.182833E-01  mag=     0.0000
       N       E                     dE             d eps       ncg     rms          rms(c)
DAV:   1    -0.299708532900E+04   -0.22235E-02   -0.14882E+00  5760   0.936E-01    0.392E-01
DAV:   2    -0.299708885485E+04   -0.35259E-02   -0.42130E-02  6896   0.150E-01    0.233E-01
DAV:   3    -0.299708863108E+04    0.22377E-03   -0.11140E-03  6832   0.307E-02    0.139E-01
DAV:   4    -0.299708857527E+04    0.55807E-04   -0.41009E-04  6816   0.203E-02    0.126E-01
DAV:   5    -0.299708849908E+04    0.76194E-04   -0.49846E-04  6656   0.201E-02    0.515E-02
DAV:   6    -0.299708849152E+04    0.75560E-05   -0.15871E-04  6912   0.111E-02    0.241E-02
DAV:   7    -0.299708848963E+04    0.18878E-05   -0.24099E-05  5792   0.561E-03
  45 F= -.30358053E+04 E0= -.30358053E+04  d E =-.202410E-01  mag=     0.0000
       N       E                     dE             d eps       ncg     rms          rms(c)
DAV:   1    -0.299709029450E+04   -0.18030E-02   -0.67915E+00  5760   0.200E+00    0.842E-01
DAV:   2    -0.299710584920E+04   -0.15555E-01   -0.18747E-01  6944   0.315E-01    0.424E-01
DAV:   3    -0.299710488582E+04    0.96338E-03   -0.39716E-03  7104   0.583E-02    0.280E-01
DAV:   4    -0.299710458453E+04    0.30129E-03   -0.12651E-03  6912   0.377E-02    0.217E-01
DAV:   5    -0.299710434949E+04    0.23505E-03   -0.14539E-03  6976   0.375E-02    0.868E-02
DAV:   6    -0.299710433323E+04    0.16260E-04   -0.48009E-04  7008   0.213E-02    0.478E-02
DAV:   7    -0.299710432221E+04    0.11019E-04   -0.10678E-04  6880   0.101E-02    0.356E-02
DAV:   8    -0.299710431613E+04    0.60751E-05   -0.16429E-05  5632   0.428E-03
  46 F= -.30358205E+04 E0= -.30358205E+04  d E =-.151905E-01  mag=     0.0000
       N       E                     dE             d eps       ncg     rms          rms(c)
DAV:   1    -0.299710459187E+04   -0.26966E-03   -0.58663E-01  5824   0.589E-01    0.250E-01
DAV:   2    -0.299710594991E+04   -0.13580E-02   -0.16365E-02  6976   0.934E-02    0.127E-01
DAV:   3    -0.299710586419E+04    0.85724E-04   -0.36972E-04  6944   0.182E-02    0.841E-02
DAV:   4    -0.299710583809E+04    0.26095E-04   -0.11241E-04  6896   0.112E-02    0.651E-02
DAV:   5    -0.299710581844E+04    0.19646E-04   -0.14130E-04  6464   0.119E-02    0.274E-02
DAV:   6    -0.299710581806E+04    0.38347E-06   -0.52741E-05  6304   0.712E-03
  47 F= -.30358214E+04 E0= -.30358214E+04  d E =-.160957E-01  mag=     0.0000
       N       E                     dE             d eps       ncg     rms          rms(c)
DAV:   1    -0.299711146958E+04   -0.56511E-02   -0.58272E+00  5760   0.189E+00    0.748E-01
DAV:   2    -0.299712456006E+04   -0.13090E-01   -0.15757E-01  6976   0.296E-01    0.392E-01
DAV:   3    -0.299712367810E+04    0.88196E-03   -0.35272E-03  7072   0.573E-02    0.249E-01
DAV:   4    -0.299712345344E+04    0.22466E-03   -0.12599E-03  6896   0.380E-02    0.204E-01
DAV:   5    -0.299712323890E+04    0.21454E-03   -0.13671E-03  6944   0.360E-02    0.762E-02
DAV:   6    -0.299712322569E+04    0.13207E-04   -0.42750E-04  6912   0.194E-02    0.444E-02
DAV:   7    -0.299712321352E+04    0.12169E-04   -0.95326E-05  7008   0.101E-02    0.317E-02
DAV:   8    -0.299712320929E+04    0.42279E-05   -0.14397E-05  5664   0.415E-03
  48 F= -.30358359E+04 E0= -.30358359E+04  d E =-.145250E-01  mag=     0.0000
       N       E                     dE             d eps       ncg     rms          rms(c)
DAV:   1    -0.299712397928E+04   -0.76576E-03   -0.64576E-01  5792   0.629E-01    0.250E-01
DAV:   2    -0.299712544795E+04   -0.14687E-02   -0.17600E-02  6976   0.991E-02    0.132E-01
DAV:   3    -0.299712535029E+04    0.97653E-04   -0.39307E-04  7040   0.193E-02    0.827E-02
DAV:   4    -0.299712532453E+04    0.25764E-04   -0.13473E-04  6848   0.127E-02    0.679E-02
DAV:   5    -0.299712530283E+04    0.21695E-04   -0.14794E-04  6592   0.124E-02    0.247E-02
DAV:   6    -0.299712530250E+04    0.33603E-06   -0.48926E-05  6496   0.682E-03
  49 F= -.30358371E+04 E0= -.30358371E+04  d E =-.156459E-01  mag=     0.0000
       N       E                     dE             d eps       ncg     rms          rms(c)
DAV:   1    -0.299713161381E+04   -0.63110E-02   -0.65983E+00  5760   0.202E+00    0.781E-01
DAV:   2    -0.299714651305E+04   -0.14899E-01   -0.17664E-01  6912   0.311E-01    0.443E-01
DAV:   3    -0.299714555439E+04    0.95866E-03   -0.39421E-03  6976   0.585E-02    0.271E-01
DAV:   4    -0.299714534460E+04    0.20980E-03   -0.16421E-03  6944   0.411E-02    0.239E-01
DAV:   5    -0.299714504097E+04    0.30363E-03   -0.19193E-03  6912   0.396E-02    0.938E-02
DAV:   6    -0.299714500320E+04    0.37773E-04   -0.57562E-04  6848   0.208E-02    0.471E-02
DAV:   7    -0.299714498821E+04    0.14990E-04   -0.88778E-05  6976   0.103E-02    0.354E-02
DAV:   8    -0.299714498391E+04    0.42960E-05   -0.15512E-05  5760   0.439E-03
  50 F= -.30358521E+04 E0= -.30358521E+04  d E =-.150090E-01  mag=     0.0000
       N       E                     dE             d eps       ncg     rms          rms(c)
DAV:   1    -0.299714596697E+04   -0.97876E-03   -0.16847E+00  5760   0.102E+00    0.394E-01
DAV:   2    -0.299714980479E+04   -0.38378E-02   -0.45411E-02  6944   0.158E-01    0.226E-01
DAV:   3    -0.299714955901E+04    0.24578E-03   -0.10137E-03  6880   0.297E-02    0.137E-01
DAV:   4    -0.299714950552E+04    0.53489E-04   -0.41683E-04  6848   0.208E-02    0.121E-01
DAV:   5    -0.299714943173E+04    0.73795E-04   -0.49427E-04  6784   0.204E-02    0.479E-02
DAV:   6    -0.299714942249E+04    0.92402E-05   -0.15110E-04  6816   0.109E-02    0.238E-02
DAV:   7    -0.299714941955E+04    0.29352E-05   -0.22929E-05  5808   0.545E-03
  51 F= -.30358539E+04 E0= -.30358539E+04  d E =-.168722E-01  mag=     0.0000
       N       E                     dE             d eps       ncg     rms          rms(c)
DAV:   1    -0.299715470091E+04   -0.52784E-02   -0.50776E+00  5760   0.178E+00    0.681E-01
DAV:   2    -0.299716663019E+04   -0.11929E-01   -0.13927E-01  6912   0.276E-01    0.366E-01
DAV:   3    -0.299716594438E+04    0.68581E-03   -0.29133E-03  7008   0.493E-02    0.232E-01
DAV:   4    -0.299716578529E+04    0.15909E-03   -0.12570E-03  6976   0.342E-02    0.197E-01
DAV:   5    -0.299716558518E+04    0.20011E-03   -0.14214E-03  7008   0.334E-02    0.781E-02
DAV:   6    -0.299716555836E+04    0.26817E-04   -0.38917E-04  6880   0.171E-02    0.384E-02
DAV:   7    -0.299716554952E+04    0.88437E-05   -0.63142E-05  6816   0.846E-03
  52 F= -.30358668E+04 E0= -.30358668E+04  d E =-.128465E-01  mag=     0.0000
       N       E                     dE             d eps       ncg     rms          rms(c)
DAV:   1    -0.299716559399E+04   -0.35633E-04   -0.25325E+00  5760   0.126E+00    0.484E-01
DAV:   2    -0.299717155778E+04   -0.59638E-02   -0.69714E-02  6880   0.195E-01    0.256E-01
DAV:   3    -0.299717122443E+04    0.33335E-03   -0.14238E-03  7056   0.348E-02    0.162E-01
DAV:   4    -0.299717114870E+04    0.75727E-04   -0.61913E-04  6912   0.245E-02    0.138E-01
DAV:   5    -0.299717105067E+04    0.98035E-04   -0.67774E-04  7008   0.237E-02    0.529E-02
DAV:   6    -0.299717103960E+04    0.11073E-04   -0.18872E-04  6880   0.122E-02    0.275E-02
DAV:   7    -0.299717103557E+04    0.40307E-05   -0.32034E-05  5984   0.612E-03
  53 F= -.30358699E+04 E0= -.30358699E+04  d E =-.160026E-01  mag=     0.0000
       N       E                     dE             d eps       ncg     rms          rms(c)
DAV:   1    -0.299717781134E+04   -0.67717E-02   -0.49690E+00  5760   0.175E+00    0.716E-01
DAV:   2    -0.299718995110E+04   -0.12140E-01   -0.14275E-01  6976   0.279E-01    0.379E-01
DAV:   3    -0.299718927485E+04    0.67624E-03   -0.30881E-03  7072   0.490E-02    0.241E-01
DAV:   4    -0.299718915083E+04    0.12403E-03   -0.15390E-03  6992   0.361E-02    0.208E-01
DAV:   5    -0.299718889856E+04    0.25227E-03   -0.15771E-03  7008   0.337E-02    0.774E-02
DAV:   6    -0.299718887294E+04    0.25619E-04   -0.36054E-04  6944   0.176E-02    0.408E-02
DAV:   7    -0.299718886682E+04    0.61227E-05   -0.68310E-05  6944   0.871E-03
  54 F= -.30358846E+04 E0= -.30358846E+04  d E =-.146757E-01  mag=     0.0000
       N       E                     dE             d eps       ncg     rms          rms(c)
DAV:   1    -0.299718969332E+04   -0.82038E-03   -0.11042E+00  5760   0.825E-01    0.344E-01
DAV:   2    -0.299719240751E+04   -0.27142E-02   -0.32023E-02  6944   0.132E-01    0.175E-01
DAV:   3    -0.299719226734E+04    0.14017E-03   -0.65014E-04  7104   0.228E-02    0.111E-01
DAV:   4    -0.299719223475E+04    0.32590E-04   -0.30104E-04  6944   0.172E-02    0.917E-02
DAV:   5    -0.299719219290E+04    0.41848E-04   -0.28106E-04  7040   0.153E-02    0.328E-02
DAV:   6    -0.299719218975E+04    0.31546E-05   -0.66858E-05  6560   0.836E-03
  55 F= -.30358863E+04 E0= -.30358863E+04  d E =-.163930E-01  mag=     0.0000
       N       E                     dE             d eps       ncg     rms          rms(c)
DAV:   1    -0.299719880625E+04   -0.66133E-02   -0.57240E+00  5760   0.189E+00    0.759E-01
DAV:   2    -0.299721299701E+04   -0.14191E-01   -0.16472E-01  6880   0.300E-01    0.421E-01
DAV:   3    -0.299721225664E+04    0.74038E-03   -0.38593E-03  6944   0.542E-02    0.262E-01
DAV:   4    -0.299721219792E+04    0.58721E-04   -0.22404E-03  6912   0.402E-02    0.240E-01
DAV:   5    -0.299721181811E+04    0.37981E-03   -0.22391E-03  7008   0.386E-02    0.934E-02
DAV:   6    -0.299721178262E+04    0.35487E-04   -0.44817E-04  7008   0.194E-02    0.410E-02
DAV:   7    -0.299721177502E+04    0.76033E-05   -0.80729E-05  7008   0.963E-03
  56 F= -.30359007E+04 E0= -.30359007E+04  d E =-.143474E-01  mag=     0.0000
       N       E                     dE             d eps       ncg     rms          rms(c)
DAV:   1    -0.299721279842E+04   -0.10158E-02   -0.22083E+00  5760   0.117E+00    0.476E-01
DAV:   2    -0.299721829853E+04   -0.55001E-02   -0.63927E-02  6880   0.186E-01    0.257E-01
DAV:   3    -0.299721802392E+04    0.27462E-03   -0.13798E-03  7008   0.328E-02    0.158E-01
DAV:   4    -0.299721800247E+04    0.21448E-04   -0.81249E-04  6944   0.252E-02    0.145E-01
DAV:   5    -0.299721786791E+04    0.13456E-03   -0.81494E-04  6848   0.237E-02    0.539E-02
DAV:   6    -0.299721785531E+04    0.12596E-04   -0.15845E-04  6944   0.121E-02    0.256E-02
DAV:   7    -0.299721785349E+04    0.18225E-05   -0.31549E-05  6496   0.620E-03
  57 F= -.30359034E+04 E0= -.30359034E+04  d E =-.171184E-01  mag=     0.0000
       N       E                     dE             d eps       ncg     rms          rms(c)
DAV:   1    -0.299722240033E+04   -0.45450E-02   -0.64201E+00  5760   0.201E+00    0.835E-01
DAV:   2    -0.299723839299E+04   -0.15993E-01   -0.18666E-01  6912   0.323E-01    0.458E-01
DAV:   3    -0.299723743426E+04    0.95873E-03   -0.44377E-03  7040   0.623E-02    0.279E-01
DAV:   4    -0.299723730764E+04    0.12662E-03   -0.24418E-03  6944   0.462E-02    0.261E-01
DAV:   5    -0.299723682976E+04    0.47788E-03   -0.24452E-03  6912   0.438E-02    0.963E-02
DAV:   6    -0.299723679101E+04    0.38752E-04   -0.58003E-04  7008   0.223E-02    0.478E-02
DAV:   7    -0.299723677704E+04    0.13972E-04   -0.89650E-05  7008   0.107E-02    0.375E-02
DAV:   8    -0.299723677041E+04    0.66266E-05   -0.16346E-05  5696   0.462E-03
  58 F= -.30359155E+04 E0= -.30359155E+04  d E =-.120801E-01  mag=     0.0000
       N       E                     dE             d eps       ncg     rms          rms(c)
DAV:   1    -0.299723748672E+04   -0.70968E-03   -0.65343E-02  5888   0.203E-01    0.877E-02
DAV:   2    -0.299723765573E+04   -0.16901E-03   -0.19794E-03  7072   0.336E-02    0.493E-02
DAV:   3    -0.299723764565E+04    0.10078E-04   -0.60754E-05  6240   0.752E-03    0.304E-02
DAV:   4    -0.299723764374E+04    0.19042E-05   -0.26394E-05  5728   0.504E-03    0.268E-02
DAV:   5    -0.299723764042E+04    0.33234E-05   -0.28748E-05  5888   0.560E-03
  59 F= -.30359156E+04 E0= -.30359156E+04  d E =-.121994E-01  mag=     0.0000
       N       E                     dE             d eps       ncg     rms          rms(c)
DAV:   1    -0.299724120985E+04   -0.35661E-02   -0.48988E+00  5760   0.173E+00    0.704E-01
DAV:   2    -0.299725338770E+04   -0.12178E-01   -0.14095E-01  6912   0.276E-01    0.366E-01
DAV:   3    -0.299725274200E+04    0.64571E-03   -0.28454E-03  7104   0.492E-02    0.239E-01
DAV:   4    -0.299725262357E+04    0.11843E-03   -0.13599E-03  6944   0.356E-02    0.203E-01
DAV:   5    -0.299725237728E+04    0.24629E-03   -0.15015E-03  6912   0.339E-02    0.720E-02
DAV:   6    -0.299725235349E+04    0.23795E-04   -0.34361E-04  6944   0.170E-02    0.400E-02
DAV:   7    -0.299725234974E+04    0.37501E-05   -0.62725E-05  6944   0.861E-03
  60 F= -.30359269E+04 E0= -.30359269E+04  d E =-.112507E-01  mag=     0.0000
       N       E                     dE             d eps       ncg     rms          rms(c)
DAV:   1    -0.299725290865E+04   -0.55517E-03   -0.74265E-01  5824   0.675E-01    0.281E-01
DAV:   2    -0.299725477671E+04   -0.18681E-02   -0.21709E-02  6912   0.108E-01    0.138E-01
DAV:   3    -0.299725468738E+04    0.89326E-04   -0.40057E-04  7040   0.187E-02    0.893E-02
DAV:   4    -0.299725466879E+04    0.18589E-04   -0.18240E-04  6976   0.143E-02    0.727E-02
DAV:   5    -0.299725464384E+04    0.24951E-04   -0.16077E-04  6736   0.123E-02    0.243E-02
DAV:   6    -0.299725464271E+04    0.11273E-05   -0.36737E-05  6112   0.647E-03
  61 F= -.30359278E+04 E0= -.30359278E+04  d E =-.121172E-01  mag=     0.0000
       N       E                     dE             d eps       ncg     rms          rms(c)
DAV:   1    -0.299726031573E+04   -0.56719E-02   -0.40509E+00  5760   0.157E+00    0.617E-01
DAV:   2    -0.299727008906E+04   -0.97733E-02   -0.11336E-01  6912   0.247E-01    0.330E-01
DAV:   3    -0.299726958376E+04    0.50530E-03   -0.22243E-03  7136   0.439E-02    0.209E-01
DAV:   4    -0.299726944423E+04    0.13953E-03   -0.76944E-04  6912   0.288E-02    0.175E-01
DAV:   5    -0.299726931331E+04    0.13092E-03   -0.10716E-03  6912   0.304E-02    0.665E-02
DAV:   6    -0.299726929196E+04    0.21353E-04   -0.31456E-04  7008   0.157E-02    0.344E-02
DAV:   7    -0.299726928495E+04    0.70049E-05   -0.52818E-05  6816   0.799E-03
  62 F= -.30359388E+04 E0= -.30359388E+04  d E =-.110816E-01  mag=     0.0000
       N       E                     dE             d eps       ncg     rms          rms(c)
DAV:   1    -0.299726743403E+04    0.18579E-02   -0.41489E+00  5760   0.158E+00    0.627E-01
DAV:   2    -0.299727747574E+04   -0.10042E-01   -0.11644E-01  6912   0.250E-01    0.333E-01
DAV:   3    -0.299727696029E+04    0.51545E-03   -0.22316E-03  7168   0.443E-02    0.210E-01
DAV:   4    -0.299727679887E+04    0.16142E-03   -0.71073E-04  6912   0.288E-02    0.174E-01
DAV:   5    -0.299727666817E+04    0.13070E-03   -0.95603E-04  6944   0.307E-02    0.602E-02
DAV:   6    -0.299727665558E+04    0.12594E-04   -0.27945E-04  6976   0.158E-02    0.342E-02
DAV:   7    -0.299727664994E+04    0.56340E-05   -0.57485E-05  6784   0.804E-03
  63 F= -.30359425E+04 E0= -.30359425E+04  d E =-.147637E-01  mag=     0.0000
       N       E                     dE             d eps       ncg     rms          rms(c)
DAV:   1    -0.299728373376E+04   -0.70782E-02   -0.36012E+00  5760   0.147E+00    0.594E-01
DAV:   2    -0.299729252623E+04   -0.87925E-02   -0.10144E-01  6880   0.232E-01    0.343E-01
DAV:   3    -0.299729205747E+04    0.46876E-03   -0.20384E-03  7040   0.429E-02    0.200E-01
DAV:   4    -0.299729192979E+04    0.12767E-03   -0.64670E-04  6880   0.284E-02    0.183E-01
DAV:   5    -0.299729178607E+04    0.14372E-03   -0.83192E-04  6880   0.289E-02    0.522E-02
DAV:   6    -0.299729178901E+04   -0.29386E-05   -0.20960E-04  7040   0.136E-02    0.320E-02
DAV:   7    -0.299729178728E+04    0.17298E-05   -0.44549E-05  6176   0.654E-03
  64 F= -.30359538E+04 E0= -.30359538E+04  d E =-.112424E-01  mag=     0.0000
       N       E                     dE             d eps       ncg     rms          rms(c)
DAV:   1    -0.299729215942E+04   -0.37041E-03   -0.35162E+00  5760   0.145E+00    0.587E-01
DAV:   2    -0.299730073965E+04   -0.85802E-02   -0.99049E-02  6880   0.229E-01    0.339E-01
DAV:   3    -0.299730028049E+04    0.45917E-03   -0.19872E-03  7008   0.425E-02    0.198E-01
DAV:   4    -0.299730015174E+04    0.12875E-03   -0.63123E-04  6912   0.283E-02    0.181E-01
DAV:   5    -0.299730000213E+04    0.14961E-03   -0.80700E-04  6784   0.293E-02    0.511E-02
DAV:   6    -0.299730000422E+04   -0.20916E-05   -0.20827E-04  7040   0.138E-02    0.315E-02
DAV:   7    -0.299730000214E+04    0.20773E-05   -0.43746E-05  6240   0.655E-03
  65 F= -.30359580E+04 E0= -.30359580E+04  d E =-.155261E-01  mag=     0.0000
       N       E                     dE             d eps       ncg     rms          rms(c)
DAV:   1    -0.299730728633E+04   -0.72821E-02   -0.27380E+00  5760   0.128E+00    0.542E-01
DAV:   2    -0.299731410988E+04   -0.68236E-02   -0.79274E-02  6944   0.207E-01    0.280E-01
DAV:   3    -0.299731374071E+04    0.36917E-03   -0.15630E-03  7072   0.374E-02    0.175E-01
DAV:   4    -0.299731362127E+04    0.11945E-03   -0.51396E-04  6944   0.248E-02    0.144E-01
DAV:   5    -0.299731352969E+04    0.91575E-04   -0.55186E-04  6944   0.241E-02    0.437E-02
DAV:   6    -0.299731352714E+04    0.25471E-05   -0.13219E-04  7104   0.123E-02    0.261E-02
DAV:   7    -0.299731352721E+04   -0.65891E-07   -0.29537E-05  6144   0.581E-03
  66 F= -.30359685E+04 E0= -.30359685E+04  d E =-.104590E-01  mag=     0.0000
       N       E                     dE             d eps       ncg     rms          rms(c)
DAV:   1    -0.299731399720E+04   -0.47005E-03   -0.26148E+00  5760   0.126E+00    0.531E-01
DAV:   2    -0.299732050873E+04   -0.65115E-02   -0.75613E-02  6944   0.202E-01    0.274E-01
DAV:   3    -0.299732014870E+04    0.36003E-03   -0.15033E-03  7072   0.369E-02    0.171E-01
DAV:   4    -0.299732003187E+04    0.11683E-03   -0.50196E-04  6976   0.245E-02    0.141E-01
DAV:   5    -0.299731993599E+04    0.95883E-04   -0.57529E-04  6944   0.245E-02    0.460E-02
DAV:   6    -0.299731993225E+04    0.37366E-05   -0.16008E-04  7040   0.129E-02    0.276E-02
DAV:   7    -0.299731993006E+04    0.21941E-05   -0.39413E-05  6080   0.646E-03
  67 F= -.30359719E+04 E0= -.30359719E+04  d E =-.138563E-01  mag=     0.0000
       N       E                     dE             d eps       ncg     rms          rms(c)
DAV:   1    -0.299732611485E+04   -0.61826E-02   -0.22401E+00  5760   0.115E+00    0.485E-01
DAV:   2    -0.299733183554E+04   -0.57207E-02   -0.65535E-02  6880   0.183E-01    0.246E-01
DAV:   3    -0.299733157409E+04    0.26145E-03   -0.11727E-03  7008   0.303E-02    0.162E-01
DAV:   4    -0.299733148072E+04    0.93368E-04   -0.45443E-04  7040   0.216E-02    0.119E-01
DAV:   5    -0.299733143933E+04    0.41388E-04   -0.42275E-04  6912   0.193E-02    0.454E-02
DAV:   6    -0.299733143290E+04    0.64300E-05   -0.10888E-04  7008   0.104E-02    0.242E-02
DAV:   7    -0.299733143438E+04   -0.14731E-05   -0.28276E-05  5824   0.534E-03
  68 F= -.30359810E+04 E0= -.30359810E+04  d E =-.914767E-02  mag=     0.0000
       N       E                     dE             d eps       ncg     rms          rms(c)
DAV:   1    -0.299732346373E+04    0.79692E-02   -0.81992E+00  5760   0.220E+00    0.938E-01
DAV:   2    -0.299734438433E+04   -0.20921E-01   -0.23942E-01  6848   0.351E-01    0.477E-01
DAV:   3    -0.299734340537E+04    0.97896E-03   -0.43104E-03  7072   0.585E-02    0.316E-01
DAV:   4    -0.299734301703E+04    0.38834E-03   -0.15355E-03  6912   0.404E-02    0.230E-01
DAV:   5    -0.299734283919E+04    0.17784E-03   -0.14260E-03  6944   0.365E-02    0.820E-02
DAV:   6    -0.299734282312E+04    0.16069E-04   -0.32910E-04  6912   0.195E-02    0.449E-02
DAV:   7    -0.299734282401E+04   -0.89634E-06   -0.83230E-05  6912   0.973E-03
  69 F= -.30359878E+04 E0= -.30359878E+04  d E =-.158777E-01  mag=     0.0000
       N       E                     dE             d eps       ncg     rms          rms(c)
DAV:   1    -0.299734793432E+04   -0.51112E-02   -0.38723E+00  5760   0.152E+00    0.650E-01
DAV:   2    -0.299735807106E+04   -0.10137E-01   -0.11590E-01  6848   0.246E-01    0.316E-01
DAV:   3    -0.299735760019E+04    0.47087E-03   -0.20136E-03  7104   0.409E-02    0.211E-01
DAV:   4    -0.299735740417E+04    0.19603E-03   -0.95719E-04  6976   0.328E-02    0.141E-01
DAV:   5    -0.299735736257E+04    0.41596E-04   -0.72945E-04  6976   0.262E-02    0.535E-02
DAV:   6    -0.299735734951E+04    0.13062E-04   -0.16630E-04  6976   0.129E-02    0.322E-02
DAV:   7    -0.299735735071E+04   -0.11967E-05   -0.39861E-05  6432   0.640E-03
  70 F= -.30359987E+04 E0= -.30359987E+04  d E =-.109315E-01  mag=     0.0000
       N       E                     dE             d eps       ncg     rms          rms(c)
DAV:   1    -0.299735780956E+04   -0.46005E-03   -0.23482E+00  5760   0.119E+00    0.504E-01
DAV:   2    -0.299736394866E+04   -0.61391E-02   -0.70221E-02  6848   0.192E-01    0.246E-01
DAV:   3    -0.299736365779E+04    0.29087E-03   -0.12423E-03  7136   0.327E-02    0.165E-01
DAV:   4    -0.299736355002E+04    0.10777E-03   -0.59336E-04  6944   0.262E-02    0.114E-01
DAV:   5    -0.299736350472E+04    0.45296E-04   -0.53007E-04  6944   0.224E-02    0.453E-02
DAV:   6    -0.299736349405E+04    0.10671E-04   -0.13194E-04  6976   0.113E-02    0.261E-02
DAV:   7    -0.299736349288E+04    0.11704E-05   -0.23560E-05  5856   0.535E-03
  71 F= -.30360020E+04 E0= -.30360020E+04  d E =-.142498E-01  mag=     0.0000
       N       E                     dE             d eps       ncg     rms          rms(c)
DAV:   1    -0.299737191357E+04   -0.84195E-02   -0.26495E+00  5760   0.126E+00    0.540E-01
DAV:   2    -0.299737871519E+04   -0.68016E-02   -0.78829E-02  6976   0.204E-01    0.271E-01
DAV:   3    -0.299737833045E+04    0.38474E-03   -0.13740E-03  7136   0.350E-02    0.177E-01
DAV:   4    -0.299737820010E+04    0.13035E-03   -0.71683E-04  6976   0.293E-02    0.130E-01
DAV:   5    -0.299737812791E+04    0.72192E-04   -0.49942E-04  7072   0.231E-02    0.421E-02
DAV:   6    -0.299737812095E+04    0.69602E-05   -0.10296E-04  7008   0.108E-02    0.284E-02
DAV:   7    -0.299737812186E+04   -0.90862E-06   -0.22257E-05  5792   0.492E-03
  72 F= -.30360136E+04 E0= -.30360136E+04  d E =-.115968E-01  mag=     0.0000
       N       E                     dE             d eps       ncg     rms          rms(c)
DAV:   1    -0.299737959530E+04   -0.14743E-02   -0.20801E+00  5760   0.112E+00    0.481E-01
DAV:   2    -0.299738494198E+04   -0.53467E-02   -0.62012E-02  6944   0.181E-01    0.240E-01
DAV:   3    -0.299738463990E+04    0.30208E-03   -0.11108E-03  7168   0.316E-02    0.158E-01
DAV:   4    -0.299738456542E+04    0.74476E-04   -0.65065E-04  7072   0.267E-02    0.121E-01
DAV:   5    -0.299738447603E+04    0.89390E-04   -0.55711E-04  7008   0.225E-02    0.421E-02
DAV:   6    -0.299738446666E+04    0.93686E-05   -0.11942E-04  6944   0.108E-02    0.265E-02
DAV:   7    -0.299738446596E+04    0.70431E-06   -0.20217E-05  5728   0.504E-03
  73 F= -.30360171E+04 E0= -.30360171E+04  d E =-.151061E-01  mag=     0.0000
       N       E                     dE             d eps       ncg     rms          rms(c)
DAV:   1    -0.299739075767E+04   -0.62910E-02   -0.22924E+00  5760   0.117E+00    0.478E-01
DAV:   2    -0.299739653020E+04   -0.57725E-02   -0.66277E-02  6816   0.184E-01    0.238E-01
DAV:   3    -0.299739625940E+04    0.27080E-03   -0.10972E-03  7136   0.294E-02    0.159E-01
DAV:   4    -0.299739612861E+04    0.13079E-03   -0.79567E-04  6848   0.289E-02    0.830E-02
DAV:   5    -0.299739613148E+04   -0.28673E-05   -0.36867E-04  6976   0.172E-02    0.407E-02
DAV:   6    -0.299739611849E+04    0.12989E-04   -0.67308E-05  6592   0.863E-03    0.225E-02
DAV:   7    -0.299739611774E+04    0.74686E-06   -0.14788E-05  5536   0.442E-03
  74 F= -.30360271E+04 E0= -.30360271E+04  d E =-.993423E-02  mag=     0.0000
       N       E                     dE             d eps       ncg     rms          rms(c)
DAV:   1    -0.299739470477E+04    0.14137E-02   -0.42894E+00  5760   0.160E+00    0.655E-01
DAV:   2    -0.299740549629E+04   -0.10792E-01   -0.12388E-01  6848   0.252E-01    0.328E-01
DAV:   3    -0.299740498008E+04    0.51621E-03   -0.20808E-03  7136   0.407E-02    0.220E-01
DAV:   4    -0.299740474476E+04    0.23532E-03   -0.13932E-03  6880   0.387E-02    0.128E-01
DAV:   5    -0.299740471128E+04    0.33479E-04   -0.79484E-04  6976   0.254E-02    0.560E-02
DAV:   6    -0.299740468261E+04    0.28667E-04   -0.14740E-04  6976   0.127E-02    0.316E-02
DAV:   7    -0.299740467908E+04    0.35260E-05   -0.30678E-05  6112   0.649E-03
  75 F= -.30360332E+04 E0= -.30360332E+04  d E =-.160860E-01  mag=     0.0000
       N       E                     dE             d eps       ncg     rms          rms(c)
DAV:   1    -0.299741174476E+04   -0.70621E-02   -0.22627E+00  5760   0.118E+00    0.511E-01
DAV:   2    -0.299741736747E+04   -0.56227E-02   -0.66839E-02  6976   0.191E-01    0.251E-01
DAV:   3    -0.299741700633E+04    0.36114E-03   -0.12836E-03  7136   0.355E-02    0.163E-01
DAV:   4    -0.299741688399E+04    0.12234E-03   -0.58848E-04  7104   0.281E-02    0.124E-01
DAV:   5    -0.299741679246E+04    0.91534E-04   -0.43958E-04  7136   0.242E-02    0.424E-02
DAV:   6    -0.299741678375E+04    0.87096E-05   -0.12512E-04  7072   0.132E-02    0.272E-02
DAV:   7    -0.299741678383E+04   -0.81141E-07   -0.22902E-05  5792   0.522E-03
  76 F= -.30360442E+04 E0= -.30360442E+04  d E =-.109658E-01  mag=     0.0000
       N       E                     dE             d eps       ncg     rms          rms(c)
DAV:   1    -0.299741709291E+04   -0.30916E-03   -0.15060E+00  5760   0.959E-01    0.419E-01
DAV:   2    -0.299742082048E+04   -0.37276E-02   -0.44513E-02  6880   0.157E-01    0.205E-01
DAV:   3    -0.299742057399E+04    0.24649E-03   -0.93594E-04  7136   0.307E-02    0.134E-01
DAV:   4    -0.299742051744E+04    0.56554E-04   -0.50800E-04  7008   0.238E-02    0.112E-01
DAV:   5    -0.299742041140E+04    0.10603E-03   -0.48504E-04  6784   0.232E-02    0.389E-02
DAV:   6    -0.299742040299E+04    0.84127E-05   -0.13566E-04  7008   0.129E-02    0.244E-02
DAV:   7    -0.299742040212E+04    0.87300E-06   -0.24715E-05  6112   0.581E-03
  77 F= -.30360469E+04 E0= -.30360469E+04  d E =-.136392E-01  mag=     0.0000
       N       E                     dE             d eps       ncg     rms          rms(c)
DAV:   1    -0.299742511450E+04   -0.47115E-02   -0.25464E+00  5760   0.124E+00    0.514E-01
DAV:   2    -0.299743152320E+04   -0.64087E-02   -0.73874E-02  6848   0.196E-01    0.271E-01
DAV:   3    -0.299743120288E+04    0.32032E-03   -0.13519E-03  7104   0.337E-02    0.169E-01
DAV:   4    -0.299743111372E+04    0.89157E-04   -0.49030E-04  6944   0.241E-02    0.143E-01
DAV:   5    -0.299743102823E+04    0.85490E-04   -0.50480E-04  6912   0.221E-02    0.443E-02
DAV:   6    -0.299743102868E+04   -0.44802E-06   -0.10921E-04  7104   0.109E-02    0.262E-02
DAV:   7    -0.299743103150E+04   -0.28212E-05   -0.21301E-05  5728   0.512E-03
  78 F= -.30360560E+04 E0= -.30360560E+04  d E =-.910856E-02  mag=     0.0000
       N       E                     dE             d eps       ncg     rms          rms(c)
DAV:   1    -0.299742995557E+04    0.10731E-02   -0.27674E+00  5760   0.129E+00    0.537E-01
DAV:   2    -0.299743691987E+04   -0.69643E-02   -0.80311E-02  6880   0.204E-01    0.281E-01
DAV:   3    -0.299743657336E+04    0.34651E-03   -0.14568E-03  7072   0.350E-02    0.176E-01
DAV:   4    -0.299743647048E+04    0.10288E-03   -0.54962E-04  6880   0.256E-02    0.147E-01
DAV:   5    -0.299743637886E+04    0.91617E-04   -0.54676E-04  6944   0.234E-02    0.464E-02
DAV:   6    -0.299743637716E+04    0.17047E-05   -0.12972E-04  6976   0.120E-02    0.281E-02
DAV:   7    -0.299743637914E+04   -0.19797E-05   -0.29969E-05  6112   0.584E-03
  79 F= -.30360596E+04 E0= -.30360596E+04  d E =-.127680E-01  mag=     0.0000
       N       E                     dE             d eps       ncg     rms          rms(c)
DAV:   1    -0.299744144862E+04   -0.50715E-02   -0.34970E+00  5760   0.145E+00    0.617E-01
DAV:   2    -0.299745027060E+04   -0.88220E-02   -0.10315E-01  6848   0.234E-01    0.319E-01
DAV:   3    -0.299744976526E+04    0.50534E-03   -0.20322E-03  7040   0.435E-02    0.200E-01
DAV:   4    -0.299744960822E+04    0.15704E-03   -0.79963E-04  6976   0.306E-02    0.164E-01
DAV:   5    -0.299744947819E+04    0.13003E-03   -0.87091E-04  6912   0.315E-02    0.589E-02
DAV:   6    -0.299744946548E+04    0.12712E-04   -0.28940E-04  7008   0.170E-02    0.346E-02
DAV:   7    -0.299744945844E+04    0.70356E-05   -0.51969E-05  6816   0.795E-03
  80 F= -.30360716E+04 E0= -.30360716E+04  d E =-.119959E-01  mag=     0.0000
       N       E                     dE             d eps       ncg     rms          rms(c)
DAV:   1    -0.299744897389E+04    0.49159E-03   -0.17098E+00  5760   0.102E+00    0.433E-01
DAV:   2    -0.299745328857E+04   -0.43147E-02   -0.50590E-02  6880   0.164E-01    0.220E-01
DAV:   3    -0.299745304281E+04    0.24576E-03   -0.97700E-04  7136   0.309E-02    0.137E-01
DAV:   4    -0.299745295189E+04    0.90928E-04   -0.34664E-04  7008   0.222E-02    0.110E-01
DAV:   5    -0.299745288959E+04    0.62295E-04   -0.32396E-04  6816   0.226E-02    0.342E-02
DAV:   6    -0.299745288784E+04    0.17470E-05   -0.11208E-04  7072   0.124E-02    0.228E-02
DAV:   7    -0.299745288725E+04    0.59558E-06   -0.19604E-05  5536   0.528E-03
  81 F= -.30360743E+04 E0= -.30360743E+04  d E =-.146596E-01  mag=     0.0000
       N       E                     dE             d eps       ncg     rms          rms(c)
DAV:   1    -0.299745460691E+04   -0.17191E-02   -0.42945E+00  5760   0.160E+00    0.691E-01
DAV:   2    -0.299746549206E+04   -0.10885E-01   -0.12648E-01  6848   0.256E-01    0.360E-01
DAV:   3    -0.299746489421E+04    0.59785E-03   -0.25631E-03  7072   0.481E-02    0.227E-01
DAV:   4    -0.299746473680E+04    0.15741E-03   -0.11143E-03  6976   0.335E-02    0.187E-01
DAV:   5    -0.299746458025E+04    0.15655E-03   -0.12599E-03  6976   0.335E-02    0.748E-02
DAV:   6    -0.299746455441E+04    0.25832E-04   -0.37117E-04  7008   0.179E-02    0.381E-02
DAV:   7    -0.299746454666E+04    0.77540E-05   -0.58748E-05  7072   0.861E-03
  82 F= -.30360860E+04 E0= -.30360860E+04  d E =-.117262E-01  mag=     0.0000
       N       E                     dE             d eps       ncg     rms          rms(c)
DAV:   1    -0.299746392784E+04    0.62657E-03   -0.10742E+00  5760   0.798E-01    0.348E-01
DAV:   2    -0.299746666483E+04   -0.27370E-02   -0.31899E-02  6880   0.129E-01    0.176E-01
DAV:   3    -0.299746652286E+04    0.14197E-03   -0.61960E-04  7072   0.244E-02    0.110E-01
DAV:   4    -0.299746647790E+04    0.44956E-04   -0.24574E-04  7040   0.175E-02    0.892E-02
DAV:   5    -0.299746644374E+04    0.34164E-04   -0.23990E-04  6688   0.174E-02    0.310E-02
DAV:   6    -0.299746644199E+04    0.17554E-05   -0.79534E-05  7008   0.964E-03
  83 F= -.30360879E+04 E0= -.30360879E+04  d E =-.135703E-01  mag=     0.0000
       N       E                     dE             d eps       ncg     rms          rms(c)
DAV:   1    -0.299746923195E+04   -0.27882E-02   -0.40835E+00  5760   0.157E+00    0.660E-01
DAV:   2    -0.299747960535E+04   -0.10373E-01   -0.11999E-01  6880   0.253E-01    0.348E-01
DAV:   3    -0.299747905194E+04    0.55342E-03   -0.23679E-03  7008   0.454E-02    0.218E-01
DAV:   4    -0.299747891196E+04    0.13998E-03   -0.97039E-04  6944   0.324E-02    0.185E-01
DAV:   5    -0.299747874518E+04    0.16678E-03   -0.10377E-03  6944   0.315E-02    0.663E-02
[...]
DAV:   6    -0.299786508143E+04    0.28345E-05   -0.57752E-05  6368   0.749E-03
 220 F= -.30367172E+04 E0= -.30367172E+04  d E =-.278924E-02  mag=     0.0000
       N       E                     dE             d eps       ncg     rms          rms(c)
DAV:   1    -0.299786436138E+04    0.72289E-03   -0.18602E-01  5760   0.373E-01    0.128E-01
DAV:   2    -0.299786477632E+04   -0.41494E-03   -0.49411E-03  7040   0.572E-02    0.585E-02
DAV:   3    -0.299786475123E+04    0.25093E-04   -0.12448E-04  6912   0.109E-02    0.409E-02
DAV:   4    -0.299786474946E+04    0.17661E-05   -0.82871E-05  5984   0.789E-03    0.350E-02
DAV:   5    -0.299786473723E+04    0.12230E-04   -0.68729E-05  5984   0.753E-03    0.117E-02
DAV:   6    -0.299786473728E+04   -0.49651E-07   -0.12083E-05  5248   0.394E-03
 221 F= -.30367175E+04 E0= -.30367175E+04  d E =-.301518E-02  mag=     0.0000
       N       E                     dE             d eps       ncg     rms          rms(c)
DAV:   1    -0.299786446693E+04    0.27030E-03   -0.90276E-01  5760   0.819E-01    0.270E-01
DAV:   2    -0.299786648606E+04   -0.20191E-02   -0.23555E-02  6880   0.124E-01    0.130E-01
DAV:   3    -0.299786635816E+04    0.12790E-03   -0.44400E-04  7104   0.215E-02    0.848E-02
DAV:   4    -0.299786633888E+04    0.19276E-04   -0.25809E-04  6880   0.175E-02    0.696E-02
DAV:   5    -0.299786630267E+04    0.36212E-04   -0.20694E-04  6912   0.143E-02    0.231E-02
DAV:   6    -0.299786630126E+04    0.14096E-05   -0.47211E-05  6112   0.707E-03
 222 F= -.30367201E+04 E0= -.30367201E+04  d E =-.262812E-02  mag=     0.0000
       N       E                     dE             d eps       ncg     rms          rms(c)
DAV:   1    -0.299786569340E+04    0.60927E-03   -0.21392E-01  5760   0.399E-01    0.136E-01
DAV:   2    -0.299786617686E+04   -0.48346E-03   -0.56608E-03  6880   0.606E-02    0.626E-02
DAV:   3    -0.299786614958E+04    0.27281E-04   -0.13608E-04  6976   0.114E-02    0.441E-02
DAV:   4    -0.299786614797E+04    0.16153E-05   -0.93855E-05  5984   0.844E-03    0.373E-02
DAV:   5    -0.299786613493E+04    0.13041E-04   -0.76279E-05  5952   0.852E-03    0.117E-02
DAV:   6    -0.299786613551E+04   -0.58714E-06   -0.14277E-05  5248   0.435E-03
 223 F= -.30367204E+04 E0= -.30367204E+04  d E =-.298031E-02  mag=     0.0000
       N       E                     dE             d eps       ncg     rms          rms(c)
DAV:   1    -0.299786607049E+04    0.64437E-04   -0.84700E-01  5760   0.800E-01    0.268E-01
DAV:   2    -0.299786792636E+04   -0.18559E-02   -0.22076E-02  6912   0.122E-01    0.124E-01
DAV:   3    -0.299786778734E+04    0.13902E-03   -0.43471E-04  7104   0.218E-02    0.811E-02
DAV:   4    -0.299786775457E+04    0.32778E-04   -0.27638E-04  7008   0.187E-02    0.593E-02
DAV:   5    -0.299786772723E+04    0.27333E-04   -0.17509E-04  7040   0.133E-02    0.231E-02
DAV:   6    -0.299786772323E+04    0.40036E-05   -0.37196E-05  5920   0.688E-03
 224 F= -.30367231E+04 E0= -.30367231E+04  d E =-.269239E-02  mag=     0.0000
       N       E                     dE             d eps       ncg     rms          rms(c)
DAV:   1    -0.299786731628E+04    0.41095E-03   -0.99732E-02  5760   0.274E-01    0.964E-02
DAV:   2    -0.299786753961E+04   -0.22333E-03   -0.26605E-03  7072   0.423E-02    0.434E-02
DAV:   3    -0.299786752531E+04    0.14303E-04   -0.83221E-05  6528   0.916E-03    0.326E-02
DAV:   4    -0.299786752052E+04    0.47862E-05   -0.45115E-05  5664   0.592E-03    0.241E-02
DAV:   5    -0.299786751492E+04    0.56010E-05   -0.34026E-05  5760   0.648E-03
 225 F= -.30367233E+04 E0= -.30367233E+04  d E =-.286278E-02  mag=     0.0000
       N       E                     dE             d eps       ncg     rms          rms(c)
DAV:   1    -0.299786688181E+04    0.63872E-03   -0.85534E-01  5760   0.808E-01    0.259E-01
DAV:   2    -0.299786871791E+04   -0.18361E-02   -0.21777E-02  6880   0.122E-01    0.123E-01
DAV:   3    -0.299786858279E+04    0.13512E-03   -0.43098E-04  7168   0.217E-02    0.799E-02
DAV:   4    -0.299786854613E+04    0.36668E-04   -0.29069E-04  6880   0.191E-02    0.522E-02
DAV:   5    -0.299786853307E+04    0.13062E-04   -0.16489E-04  6880   0.120E-02    0.252E-02
DAV:   6    -0.299786852802E+04    0.50435E-05   -0.35904E-05  5728   0.623E-03
 226 F= -.30367255E+04 E0= -.30367255E+04  d E =-.220320E-02  mag=     0.0000
       N       E                     dE             d eps       ncg     rms          rms(c)
DAV:   1    -0.299786812409E+04    0.40898E-03   -0.73020E-02  5824   0.236E-01    0.803E-02
DAV:   2    -0.299786828556E+04   -0.16147E-03   -0.19129E-03  7040   0.360E-02    0.361E-02
DAV:   3    -0.299786827560E+04    0.99598E-05   -0.54889E-05  6368   0.768E-03    0.268E-02
DAV:   4    -0.299786827318E+04    0.24227E-05   -0.30687E-05  5472   0.502E-03    0.199E-02
DAV:   5    -0.299786827055E+04    0.26263E-05   -0.25418E-05  5344   0.529E-03
 227 F= -.30367256E+04 E0= -.30367256E+04  d E =-.229327E-02  mag=     0.0000
       N       E                     dE             d eps       ncg     rms          rms(c)
DAV:   1    -0.299786735894E+04    0.91424E-03   -0.88939E-01  5760   0.824E-01    0.263E-01
DAV:   2    -0.299786925815E+04   -0.18992E-02   -0.22505E-02  6944   0.123E-01    0.124E-01
DAV:   3    -0.299786912273E+04    0.13542E-03   -0.43212E-04  7168   0.219E-02    0.810E-02
DAV:   4    -0.299786908888E+04    0.33846E-04   -0.31253E-04  6816   0.202E-02    0.548E-02
DAV:   5    -0.299786907482E+04    0.14066E-04   -0.21586E-04  6976   0.133E-02    0.273E-02
DAV:   6    -0.299786906825E+04    0.65694E-05   -0.41050E-05  5760   0.661E-03
 228 F= -.30367277E+04 E0= -.30367277E+04  d E =-.207424E-02  mag=     0.0000
       N       E                     dE             d eps       ncg     rms          rms(c)
DAV:   1    -0.299786865112E+04    0.42370E-03   -0.70099E-02  5760   0.231E-01    0.785E-02
DAV:   2    -0.299786880527E+04   -0.15415E-03   -0.18233E-03  7104   0.351E-02    0.340E-02
DAV:   3    -0.299786879579E+04    0.94823E-05   -0.41539E-05  6144   0.728E-03    0.247E-02
DAV:   4    -0.299786879510E+04    0.68790E-06   -0.26187E-05  5408   0.534E-03    0.190E-02
DAV:   5    -0.299786879270E+04    0.23982E-05   -0.23429E-05  5312   0.569E-03
 229 F= -.30367277E+04 E0= -.30367277E+04  d E =-.215696E-02  mag=     0.0000
       N       E                     dE             d eps       ncg     rms          rms(c)
DAV:   1    -0.299786777684E+04    0.10183E-02   -0.86992E-01  5760   0.815E-01    0.260E-01
DAV:   2    -0.299786962688E+04   -0.18500E-02   -0.21904E-02  6912   0.121E-01    0.123E-01
DAV:   3    -0.299786949525E+04    0.13163E-03   -0.43443E-04  7040   0.214E-02    0.802E-02
DAV:   4    -0.299786947662E+04    0.18629E-04   -0.31427E-04  6944   0.184E-02    0.622E-02
DAV:   5    -0.299786944870E+04    0.27928E-04   -0.23918E-04  6912   0.134E-02    0.262E-02
DAV:   6    -0.299786944286E+04    0.58325E-05   -0.41867E-05  5888   0.656E-03
 230 F= -.30367298E+04 E0= -.30367298E+04  d E =-.207784E-02  mag=     0.0000
       N       E                     dE             d eps       ncg     rms          rms(c)
DAV:   1    -0.299786892007E+04    0.52862E-03   -0.88232E-02  5760   0.260E-01    0.881E-02
DAV:   2    -0.299786911295E+04   -0.19288E-03   -0.22794E-03  7040   0.391E-02    0.382E-02
DAV:   3    -0.299786910077E+04    0.12182E-04   -0.52182E-05  6432   0.767E-03    0.274E-02
DAV:   4    -0.299786910015E+04    0.61758E-06   -0.34068E-05  5568   0.559E-03    0.214E-02
DAV:   5    -0.299786909680E+04    0.33509E-05   -0.29924E-05  5504   0.560E-03
 231 F= -.30367299E+04 E0= -.30367299E+04  d E =-.218636E-02  mag=     0.0000
       N       E                     dE             d eps       ncg     rms          rms(c)
DAV:   1    -0.299786801371E+04    0.10864E-02   -0.81143E-01  5760   0.787E-01    0.251E-01
DAV:   2    -0.299786973961E+04   -0.17259E-02   -0.20501E-02  6880   0.118E-01    0.118E-01
DAV:   3    -0.299786961279E+04    0.12682E-03   -0.41686E-04  7104   0.213E-02    0.771E-02
DAV:   4    -0.299786959245E+04    0.20347E-04   -0.32235E-04  6912   0.191E-02    0.582E-02
DAV:   5    -0.299786956625E+04    0.26197E-04   -0.24339E-04  6944   0.134E-02    0.256E-02
DAV:   6    -0.299786956010E+04    0.61479E-05   -0.37853E-05  5696   0.661E-03
 232 F= -.30367318E+04 E0= -.30367318E+04  d E =-.190772E-02  mag=    -0.0000
       N       E                     dE             d eps       ncg     rms          rms(c)
DAV:   1    -0.299786932956E+04    0.23669E-03   -0.21204E-02  5888   0.127E-01    0.454E-02
DAV:   2    -0.299786937761E+04   -0.48045E-04   -0.56353E-04  7040   0.196E-02    0.191E-02
DAV:   3    -0.299786937508E+04    0.25270E-05   -0.13676E-05  5344   0.458E-03    0.143E-02
DAV:   4    -0.299786937475E+04    0.33178E-06   -0.55204E-06  4960   0.297E-03    0.950E-03
DAV:   5    -0.299786937552E+04   -0.76892E-06   -0.46140E-06  4800   0.351E-03
 233 F= -.30367319E+04 E0= -.30367319E+04  d E =-.195644E-02  mag=     0.0000
       N       E                     dE             d eps       ncg     rms          rms(c)
DAV:   1    -0.299786876259E+04    0.61216E-03   -0.70573E-01  5760   0.735E-01    0.240E-01
DAV:   2    -0.299787027710E+04   -0.15145E-02   -0.18073E-02  6944   0.111E-01    0.110E-01
DAV:   3    -0.299787015967E+04    0.11743E-03   -0.37419E-04  7040   0.205E-02    0.722E-02
DAV:   4    -0.299787014870E+04    0.10965E-04   -0.30280E-04  6944   0.180E-02    0.605E-02
DAV:   5    -0.299787011108E+04    0.37619E-04   -0.24323E-04  6944   0.135E-02    0.228E-02
DAV:   6    -0.299787010602E+04    0.50597E-05   -0.35739E-05  5824   0.636E-03
 234 F= -.30367337E+04 E0= -.30367337E+04  d E =-.181484E-02  mag=     0.0000
       N       E                     dE             d eps       ncg     rms          rms(c)
DAV:   1    -0.299786985737E+04    0.25371E-03   -0.30166E-02  5824   0.152E-01    0.542E-02
DAV:   2    -0.299786992433E+04   -0.66950E-04   -0.80064E-04  7008   0.233E-02    0.228E-02
DAV:   3    -0.299786991965E+04    0.46759E-05   -0.16581E-05  5408   0.509E-03    0.159E-02
DAV:   4    -0.299786991881E+04    0.83429E-06   -0.79133E-06  5024   0.371E-03    0.118E-02
DAV:   5    -0.299786991835E+04    0.46199E-06   -0.62966E-06  4896   0.397E-03
 235 F= -.30367337E+04 E0= -.30367337E+04  d E =-.185147E-02  mag=     0.0000
       N       E                     dE             d eps       ncg     rms          rms(c)
DAV:   1    -0.299786941458E+04    0.50424E-03   -0.64517E-01  5760   0.702E-01    0.212E-01
DAV:   2    -0.299787081261E+04   -0.13980E-02   -0.16359E-02  6912   0.104E-01    0.104E-01
DAV:   3    -0.299787072196E+04    0.90651E-04   -0.32254E-04  7104   0.182E-02    0.691E-02
DAV:   4    -0.299787071802E+04    0.39374E-05   -0.25171E-04  6912   0.156E-02    0.596E-02
DAV:   5    -0.299787068384E+04    0.34182E-04   -0.21830E-04  6848   0.125E-02    0.213E-02
DAV:   6    -0.299787068024E+04    0.35980E-05   -0.33456E-05  5728   0.614E-03
 236 F= -.30367354E+04 E0= -.30367354E+04  d E =-.169111E-02  mag=     0.0000
       N       E                     dE             d eps       ncg     rms          rms(c)
DAV:   1    -0.299786973183E+04    0.95201E-03   -0.25433E-01  5760   0.441E-01    0.136E-01
DAV:   2    -0.299787028635E+04   -0.55453E-03   -0.65103E-03  6944   0.657E-02    0.640E-02
DAV:   3    -0.299787025045E+04    0.35906E-04   -0.11710E-04  7136   0.114E-02    0.422E-02
DAV:   4    -0.299787024161E+04    0.88393E-05   -0.90681E-05  6816   0.112E-02    0.273E-02
DAV:   5    -0.299787023850E+04    0.31097E-05   -0.63087E-05  6208   0.707E-03
 237 F= -.30367356E+04 E0= -.30367356E+04  d E =-.183269E-02  mag=     0.0000
       N       E                     dE             d eps       ncg     rms          rms(c)
DAV:   1    -0.299786990404E+04    0.33757E-03   -0.46308E-01  5760   0.592E-01    0.180E-01
DAV:   2    -0.299787091393E+04   -0.10099E-02   -0.11799E-02  6816   0.880E-02    0.881E-02
DAV:   3    -0.299787085108E+04    0.62846E-04   -0.21746E-04  7104   0.149E-02    0.578E-02
DAV:   4    -0.299787084261E+04    0.84683E-05   -0.16449E-04  6944   0.135E-02    0.445E-02
DAV:   5    -0.299787082891E+04    0.13697E-04   -0.13083E-04  6816   0.956E-03    0.187E-02
DAV:   6    -0.299787082613E+04    0.27853E-05   -0.20551E-05  5120   0.470E-03
 238 F= -.30367370E+04 E0= -.30367370E+04  d E =-.141030E-02  mag=     0.0000
       N       E                     dE             d eps       ncg     rms          rms(c)
DAV:   1    -0.299787016422E+04    0.66469E-03   -0.21696E-01  5760   0.405E-01    0.125E-01
DAV:   2    -0.299787064092E+04   -0.47670E-03   -0.55533E-03  6880   0.603E-02    0.594E-02
DAV:   3    -0.299787061146E+04    0.29459E-04   -0.10144E-04  7072   0.104E-02    0.393E-02
DAV:   4    -0.299787060857E+04    0.28941E-05   -0.80630E-05  6624   0.946E-03    0.306E-02
DAV:   5    -0.299787060136E+04    0.72045E-05   -0.65497E-05  5856   0.699E-03
 239 F= -.30367373E+04 E0= -.30367373E+04  d E =-.174835E-02  mag=     0.0000
       N       E                     dE             d eps       ncg     rms          rms(c)
DAV:   1    -0.299787116496E+04   -0.55639E-03   -0.21943E-01  5760   0.414E-01    0.143E-01
DAV:   2    -0.299787163715E+04   -0.47219E-03   -0.58447E-03  6912   0.640E-02    0.641E-02
DAV:   3    -0.299787159120E+04    0.45953E-04   -0.13842E-04  7040   0.129E-02    0.404E-02
DAV:   4    -0.299787158337E+04    0.78310E-05   -0.10195E-04  6912   0.108E-02    0.316E-02
DAV:   5    -0.299787157460E+04    0.87712E-05   -0.71982E-05  6080   0.744E-03
 240 F= -.30367388E+04 E0= -.30367388E+04  d E =-.147940E-02  mag=     0.0000
       N       E                     dE             d eps       ncg     rms          rms(c)
DAV:   1    -0.299787141128E+04    0.17208E-03   -0.63956E-02  5824   0.223E-01    0.806E-02
DAV:   2    -0.299787154755E+04   -0.13627E-03   -0.17177E-03  7072   0.349E-02    0.350E-02
DAV:   3    -0.299787153325E+04    0.14300E-04   -0.42027E-05  6592   0.753E-03    0.222E-02
DAV:   4    -0.299787152923E+04    0.40179E-05   -0.20933E-05  5472   0.608E-03    0.163E-02
DAV:   5    -0.299787152730E+04    0.19358E-05   -0.12337E-05  5120   0.465E-03
 241 F= -.30367390E+04 E0= -.30367390E+04  d E =-.170551E-02  mag=     0.0000
       N       E                     dE             d eps       ncg     rms          rms(c)
DAV:   1    -0.299787187932E+04   -0.35009E-03   -0.21961E-01  5760   0.415E-01    0.124E-01
DAV:   2    -0.299787233766E+04   -0.45834E-03   -0.54261E-03  6912   0.610E-02    0.594E-02
DAV:   3    -0.299787230366E+04    0.33999E-04   -0.11082E-04  7008   0.112E-02    0.382E-02
DAV:   4    -0.299787229810E+04    0.55680E-05   -0.78331E-05  6848   0.945E-03    0.311E-02
DAV:   5    -0.299787229000E+04    0.80994E-05   -0.57488E-05  5952   0.696E-03
 242 F= -.30367403E+04 E0= -.30367403E+04  d E =-.124535E-02  mag=     0.0000
       N       E                     dE             d eps       ncg     rms          rms(c)
DAV:   1    -0.299787203802E+04    0.26008E-03   -0.13248E-01  5760   0.322E-01    0.987E-02
DAV:   2    -0.299787231174E+04   -0.27372E-03   -0.32892E-03  7040   0.477E-02    0.465E-02
DAV:   3    -0.299787229105E+04    0.20688E-04   -0.70163E-05  7008   0.924E-03    0.297E-02
DAV:   4    -0.299787228551E+04    0.55386E-05   -0.34296E-05  6048   0.748E-03    0.225E-02
DAV:   5    -0.299787228192E+04    0.35877E-05   -0.20005E-05  5696   0.585E-03
 243 F= -.30367406E+04 E0= -.30367406E+04  d E =-.161206E-02  mag=    -0.0000
       N       E                     dE             d eps       ncg     rms          rms(c)
DAV:   1    -0.299787228789E+04   -0.23760E-05   -0.30828E-01  5760   0.495E-01    0.154E-01
DAV:   2    -0.299787291949E+04   -0.63161E-03   -0.77072E-03  6976   0.739E-02    0.697E-02
DAV:   3    -0.299787286359E+04    0.55905E-04   -0.16887E-04  7136   0.141E-02    0.447E-02
DAV:   4    -0.299787285318E+04    0.10414E-04   -0.11604E-04  6880   0.119E-02    0.349E-02
DAV:   5    -0.299787284290E+04    0.10280E-04   -0.82951E-05  6336   0.838E-03    0.153E-02
DAV:   6    -0.299787284066E+04    0.22312E-05   -0.14848E-05  4928   0.410E-03
 244 F= -.30367419E+04 E0= -.30367419E+04  d E =-.123686E-02  mag=    -0.0000
       N       E                     dE             d eps       ncg     rms          rms(c)
DAV:   1    -0.299787238536E+04    0.45753E-03   -0.94322E-02  5760   0.274E-01    0.876E-02
DAV:   2    -0.299787258112E+04   -0.19575E-03   -0.23805E-03  7040   0.410E-02    0.378E-02
DAV:   3    -0.299787256373E+04    0.17391E-04   -0.51874E-05  6976   0.810E-03    0.248E-02
DAV:   4    -0.299787256193E+04    0.17987E-05   -0.41735E-05  5824   0.702E-03    0.211E-02
DAV:   5    -0.299787255680E+04    0.51232E-05   -0.32363E-05  5440   0.541E-03
 245 F= -.30367420E+04 E0= -.30367420E+04  d E =-.132815E-02  mag=    -0.0000
       N       E                     dE             d eps       ncg     rms          rms(c)
DAV:   1    -0.299787242084E+04    0.14109E-03   -0.17142E-01  5760   0.365E-01    0.102E-01
DAV:   2    -0.299787277698E+04   -0.35615E-03   -0.41723E-03  6944   0.531E-02    0.503E-02
DAV:   3    -0.299787275527E+04    0.21715E-04   -0.81745E-05  7040   0.906E-03    0.337E-02
DAV:   4    -0.299787275489E+04    0.38202E-06   -0.64865E-05  6336   0.785E-03    0.280E-02
DAV:   5    -0.299787274779E+04    0.71004E-05   -0.51249E-05  5760   0.601E-03
 246 F= -.30367427E+04 E0= -.30367427E+04  d E =-.777404E-03  mag=    -0.0000
       N       E                     dE             d eps       ncg     rms          rms(c)
DAV:   1    -0.299787203381E+04    0.72108E-03   -0.19492E-01  5760   0.389E-01    0.110E-01
DAV:   2    -0.299787243757E+04   -0.40376E-03   -0.47547E-03  6976   0.567E-02    0.538E-02
DAV:   3    -0.299787241299E+04    0.24572E-04   -0.94969E-05  6960   0.982E-03    0.360E-02
DAV:   4    -0.299787241137E+04    0.16202E-05   -0.67980E-05  6560   0.829E-03    0.293E-02
DAV:   5    -0.299787240456E+04    0.68122E-05   -0.54072E-05  5760   0.634E-03
 247 F= -.30367430E+04 E0= -.30367430E+04  d E =-.105885E-02  mag=    -0.0000
       N       E                     dE             d eps       ncg     rms          rms(c)
DAV:   1    -0.299787271965E+04   -0.30828E-03   -0.11646E-01  5760   0.305E-01    0.113E-01
DAV:   2    -0.299787296669E+04   -0.24704E-03   -0.31640E-03  6944   0.479E-02    0.473E-02
DAV:   3    -0.299787293731E+04    0.29380E-04   -0.82574E-05  7072   0.107E-02    0.294E-02
DAV:   4    -0.299787293099E+04    0.63258E-05   -0.47114E-05  6784   0.830E-03    0.237E-02
DAV:   5    -0.299787292525E+04    0.57381E-05   -0.28849E-05  5728   0.603E-03
 248 F= -.30367440E+04 E0= -.30367440E+04  d E =-.956027E-03  mag=    -0.0000
       N       E                     dE             d eps       ncg     rms          rms(c)
DAV:   1    -0.299787280917E+04    0.12182E-03   -0.21599E-02  5888   0.131E-01    0.511E-02
DAV:   2    -0.299787285419E+04   -0.45028E-04   -0.59021E-04  7072   0.209E-02    0.216E-02
DAV:   3    -0.299787284836E+04    0.58323E-05   -0.19135E-05  5376   0.554E-03    0.144E-02
DAV:   4    -0.299787284708E+04    0.12817E-05   -0.13026E-05  4864   0.408E-03    0.127E-02
DAV:   5    -0.299787284477E+04    0.23079E-05   -0.84276E-06  5024   0.409E-03
 249 F= -.30367441E+04 E0= -.30367441E+04  d E =-.106293E-02  mag=     0.0000
       N       E                     dE             d eps       ncg     rms          rms(c)
DAV:   1    -0.299787306758E+04   -0.22050E-03   -0.65393E-02  5760   0.230E-01    0.740E-02
DAV:   2    -0.299787320394E+04   -0.13636E-03   -0.16786E-03  6880   0.349E-02    0.362E-02
DAV:   3    -0.299787319115E+04    0.12784E-04   -0.46604E-05  6400   0.721E-03    0.232E-02
DAV:   4    -0.299787318908E+04    0.20736E-05   -0.29130E-05  5504   0.532E-03    0.206E-02
DAV:   5    -0.299787318483E+04    0.42441E-05   -0.23492E-05  5120   0.481E-03
 250 F= -.30367447E+04 E0= -.30367447E+04  d E =-.627726E-03  mag=     0.0000
