       N       E                     dE             d eps       ncg     rms          rms(c)
DAV:   1     0.194470030471E+05    0.19447E+05   -0.82169E+05  6336   0.104E+03
DAV:   2     0.119868884369E+03   -0.19327E+05   -0.18521E+05  8448   0.271E+02
DAV:   3    -0.314610488897E+04   -0.32660E+04   -0.32454E+04  7488   0.119E+02
DAV:   4    -0.323411077425E+04   -0.88006E+02   -0.87671E+02  7872   0.223E+01
DAV:   5    -0.323581510264E+04   -0.17043E+01   -0.17014E+01  7968   0.290E+00    0.202E+02
DAV:   6    -0.160785169759E+04    0.16280E+04   -0.32035E+03  7296   0.426E+01    0.920E+01
DAV:   7    -0.174526420721E+04   -0.13741E+03   -0.45466E+02  7872   0.144E+01    0.662E+01
DAV:   8    -0.174811574775E+04   -0.28515E+01   -0.94477E+01  7680   0.624E+00    0.461E+01
DAV:   9    -0.186812941363E+04   -0.12001E+03   -0.48241E+01  7872   0.541E+00    0.378E+01
DAV:  10    -0.203912016920E+04   -0.17099E+03   -0.55021E+01  7872   0.535E+00    0.331E+01
DAV:  11    -0.223256191264E+04   -0.19344E+03   -0.76207E+01  7776   0.577E+00    0.284E+01
DAV:  12    -0.245261449764E+04   -0.22005E+03   -0.99780E+01  7488   0.674E+00    0.245E+01
DAV:  13    -0.275220717787E+04   -0.29959E+03   -0.21138E+02  7488   0.950E+00    0.181E+01
DAV:  14    -0.294104721904E+04   -0.18884E+03   -0.16169E+02  7200   0.725E+00    0.129E+01
DAV:  15    -0.299027303608E+04   -0.49226E+02   -0.28565E+01  7680   0.320E+00    0.104E+01
DAV:  16    -0.301263662074E+04   -0.22364E+02   -0.84044E+00  7392   0.189E+00    0.894E+00
DAV:  17    -0.302674773959E+04   -0.14111E+02   -0.42903E+00  7488   0.134E+00    0.732E+00
DAV:  18    -0.303701140111E+04   -0.10264E+02   -0.26224E+00  7296   0.109E+00    0.606E+00
DAV:  19    -0.304336405664E+04   -0.63527E+01   -0.18251E+00  7584   0.884E-01    0.512E+00
DAV:  20    -0.304800212335E+04   -0.46381E+01   -0.15157E+00  7200   0.758E-01    0.393E+00
DAV:  21    -0.305209868614E+04   -0.40966E+01   -0.13681E+00  7392   0.661E-01    0.291E+00
DAV:  22    -0.305455078416E+04   -0.24521E+01   -0.80457E-01  7104   0.501E-01    0.204E+00
DAV:  23    -0.305509329089E+04   -0.54251E+00   -0.25340E-01  7296   0.312E-01    0.124E+00
DAV:  24    -0.305651368450E+04   -0.14204E+01   -0.82216E-02  7296   0.244E-01    0.774E-01
DAV:  25    -0.305830023671E+04   -0.17866E+01   -0.51703E-02  7296   0.197E-01    0.531E-01
DAV:  26    -0.305944479988E+04   -0.11446E+01   -0.27717E-02  7392   0.137E-01    0.388E-01
DAV:  27    -0.306029917284E+04   -0.85437E+00   -0.17877E-02  7392   0.106E-01    0.223E-01
DAV:  28    -0.306072885820E+04   -0.42969E+00   -0.72215E-03  7680   0.726E-02    0.136E-01
DAV:  29    -0.306093673450E+04   -0.20788E+00   -0.32569E-03  7584   0.503E-02    0.871E-02
DAV:  30    -0.306100665069E+04   -0.69916E-01   -0.11224E-03  7680   0.291E-02    0.576E-02
DAV:  31    -0.306102616168E+04   -0.19511E-01   -0.32984E-04  7488   0.150E-02    0.382E-02
DAV:  32    -0.306103666723E+04   -0.10506E-01   -0.14355E-04  7296   0.888E-03    0.217E-02
DAV:  33    -0.306104294589E+04   -0.62787E-02   -0.76047E-05  7008   0.737E-03    0.156E-02
DAV:  34    -0.306104579358E+04   -0.28477E-02   -0.25059E-05  7008   0.483E-03    0.120E-02
DAV:  35    -0.306104919081E+04   -0.33972E-02   -0.21713E-05  6624   0.383E-03    0.869E-03
DAV:  36    -0.306105150533E+04   -0.23145E-02   -0.16054E-05  6432   0.326E-03    0.644E-03
DAV:  37    -0.306105276029E+04   -0.12550E-02   -0.45063E-06  5664   0.209E-03    0.473E-03
DAV:  38    -0.306105355774E+04   -0.79745E-03   -0.21987E-06  5568   0.155E-03    0.353E-03
DAV:  39    -0.306105390142E+04   -0.34368E-03    0.51351E-07  5760   0.114E-03    0.297E-03
DAV:  40    -0.306105410130E+04   -0.19987E-03    0.13828E-06  5472   0.884E-04    0.269E-03
DAV:  41    -0.306105418011E+04   -0.78816E-04    0.19588E-06  5472   0.653E-04    0.247E-03
DAV:  42    -0.306105420112E+04   -0.21012E-04    0.24569E-06  5280   0.369E-04    0.240E-03
DAV:  43    -0.306105422202E+04   -0.20891E-04    0.24790E-06  5280   0.322E-04    0.236E-03
DAV:  44    -0.306105423082E+04   -0.88010E-05    0.26149E-06  5280   0.205E-04
   1 F= -.31022972E+04 E0= -.31022972E+04  d E =-.310230E+04  mag=    -0.0000
       N       E                     dE             d eps       ncg     rms          rms(c)
DAV:   1    -0.306105427026E+04   -0.48246E-04   -0.73221E-02  6240   0.980E-02    0.754E-02
DAV:   2    -0.306105426330E+04    0.69578E-05   -0.54194E-04  6528   0.114E-02    0.579E-02
DAV:   3    -0.306105424292E+04    0.20386E-04   -0.27318E-04  7104   0.732E-03    0.331E-02
DAV:   4    -0.306105423178E+04    0.11135E-04   -0.13109E-04  6912   0.472E-03    0.227E-02
DAV:   5    -0.306105422788E+04    0.39022E-05   -0.47793E-05  6720   0.298E-03
   2 F= -.31022970E+04 E0= -.31022970E+04  d E =0.191296E-03  mag=    -0.0000
       N       E                     dE             d eps       ncg     rms          rms(c)
DAV:   1    -0.306105369577E+04    0.53601E-03   -0.14346E-01  6144   0.139E-01    0.105E-01
DAV:   2    -0.306105368736E+04    0.84169E-05   -0.74501E-04  6528   0.133E-02    0.713E-02
DAV:   3    -0.306105366931E+04    0.18048E-04   -0.36282E-04  7104   0.823E-03    0.448E-02
DAV:   4    -0.306105365511E+04    0.14197E-04   -0.30696E-04  6816   0.703E-03    0.345E-02
DAV:   5    -0.306105364304E+04    0.12070E-04   -0.12252E-04  6624   0.435E-03    0.178E-02
DAV:   6    -0.306105363955E+04    0.34919E-05   -0.15737E-05  6432   0.198E-03
   3 F= -.31022969E+04 E0= -.31022969E+04  d E =0.775892E-04  mag=    -0.0000
       N       E                     dE             d eps       ncg     rms          rms(c)
DAV:   1    -0.306105424727E+04   -0.60423E-03   -0.14579E-01  6144   0.139E-01    0.106E-01
DAV:   2    -0.306105421391E+04    0.33363E-04   -0.72242E-04  6528   0.127E-02    0.547E-02
DAV:   3    -0.306105420093E+04    0.12978E-04   -0.31771E-04  6720   0.788E-03    0.470E-02
DAV:   4    -0.306105417270E+04    0.28233E-04   -0.21322E-04  6816   0.620E-03    0.231E-02
DAV:   5    -0.306105416621E+04    0.64920E-05   -0.47676E-05  6720   0.303E-03
   4 F= -.31022969E+04 E0= -.31022969E+04  d E =0.951794E-05  mag=    -0.0000
       N       E                     dE             d eps       ncg     rms          rms(c)
DAV:   1    -0.306105389866E+04    0.27404E-03   -0.14502E-01  6336   0.141E-01    0.107E-01
DAV:   2    -0.306105389733E+04    0.13248E-05   -0.85194E-04  6720   0.137E-02    0.629E-02
DAV:   3    -0.306105388492E+04    0.12412E-04   -0.50657E-04  6912   0.985E-03    0.532E-02
DAV:   4    -0.306105384806E+04    0.36858E-04   -0.24601E-04  6912   0.636E-03    0.232E-02
DAV:   5    -0.306105384397E+04    0.40954E-05   -0.65178E-05  6912   0.338E-03
   5 F= -.31022970E+04 E0= -.31022970E+04  d E =-.849286E-04  mag=    -0.0000
       N       E                     dE             d eps       ncg     rms          rms(c)
DAV:   1    -0.306105373705E+04    0.11101E-03   -0.14574E-01  6336   0.138E-01    0.110E-01
DAV:   2    -0.306105372771E+04    0.93452E-05   -0.75970E-04  6528   0.134E-02    0.702E-02
DAV:   3    -0.306105371017E+04    0.17537E-04   -0.38688E-04  7008   0.855E-03    0.432E-02
DAV:   4    -0.306105369164E+04    0.18534E-04   -0.30926E-04  7104   0.715E-03    0.357E-02
DAV:   5    -0.306105367792E+04    0.13719E-04   -0.10233E-04  6912   0.405E-03    0.145E-02
DAV:   6    -0.306105367544E+04    0.24834E-05   -0.12076E-05  6528   0.186E-03
   6 F= -.31022969E+04 E0= -.31022969E+04  d E =0.698540E-04  mag=    -0.0000
       N       E                     dE             d eps       ncg     rms          rms(c)
DAV:   1    -0.306105421491E+04   -0.53699E-03   -0.14553E-01  6336   0.139E-01    0.104E-01
DAV:   2    -0.306105419372E+04    0.21189E-04   -0.84515E-04  6528   0.136E-02    0.637E-02
DAV:   3    -0.306105418622E+04    0.74985E-05   -0.62753E-04  6528   0.101E-02    0.508E-02
DAV:   4    -0.306105414600E+04    0.40223E-04   -0.39470E-04  6528   0.747E-03    0.272E-02
DAV:   5    -0.306105413753E+04    0.84675E-05   -0.78143E-05  6720   0.357E-03
   7 F= -.31022969E+04 E0= -.31022969E+04  d E =0.420486E-04  mag=    -0.0000
       N       E                     dE             d eps       ncg     rms          rms(c)
DAV:   1    -0.306105415528E+04   -0.92738E-05   -0.14472E-01  6336   0.136E-01    0.112E-01
DAV:   2    -0.306105417404E+04   -0.18765E-04   -0.15768E-03  6720   0.182E-02    0.847E-02
DAV:   3    -0.306105413099E+04    0.43050E-04   -0.11154E-03  6720   0.132E-02    0.534E-02
DAV:   4    -0.306105408655E+04    0.44441E-04   -0.41952E-04  6720   0.766E-03    0.280E-02
DAV:   5    -0.306105408150E+04    0.50519E-05   -0.98304E-05  6720   0.383E-03
   8 F= -.31022971E+04 E0= -.31022971E+04  d E =-.177810E-03  mag=    -0.0000
       N       E                     dE             d eps       ncg     rms          rms(c)
DAV:   1    -0.306105417939E+04   -0.92837E-04   -0.14482E-01  6144   0.128E-01    0.101E-01
DAV:   2    -0.306105418840E+04   -0.90122E-05   -0.17817E-03  6528   0.198E-02    0.921E-02
DAV:   3    -0.306105410642E+04    0.81983E-04   -0.92859E-04  6336   0.124E-02    0.441E-02
DAV:   4    -0.306105408258E+04    0.23836E-04   -0.26312E-04  6336   0.620E-03    0.263E-02
DAV:   5    -0.306105407692E+04    0.56649E-05   -0.11139E-04  6912   0.404E-03    0.214E-02
DAV:   6    -0.306105407137E+04    0.55479E-05   -0.26313E-05  6336   0.239E-03
   9 F= -.31022970E+04 E0= -.31022970E+04  d E =0.111632E-03  mag=    -0.0000
       N       E                     dE             d eps       ncg     rms          rms(c)
DAV:   1    -0.306105419100E+04   -0.11408E-03   -0.14676E-01  6144   0.127E-01    0.938E-02
DAV:   2    -0.306105416680E+04    0.24204E-04   -0.88982E-04  6528   0.143E-02    0.617E-02
DAV:   3    -0.306105415143E+04    0.15365E-04   -0.52833E-04  6912   0.991E-03    0.441E-02
DAV:   4    -0.306105411806E+04    0.33365E-04   -0.26342E-04  7104   0.662E-03    0.236E-02
DAV:   5    -0.306105411231E+04    0.57531E-05   -0.62655E-05  6720   0.311E-03
  10 F= -.31022969E+04 E0= -.31022969E+04  d E =0.491513E-04  mag=    -0.0000
       N       E                     dE             d eps       ncg     rms          rms(c)
DAV:   1    -0.306105447007E+04   -0.35201E-03   -0.14194E-01  6144   0.135E-01    0.101E-01
DAV:   2    -0.306105446961E+04    0.45978E-06   -0.83259E-04  6528   0.129E-02    0.564E-02
DAV:   3    -0.306105446603E+04    0.35807E-05   -0.52443E-04  6720   0.861E-03    0.510E-02
DAV:   4    -0.306105443283E+04    0.33201E-04   -0.30145E-04  6720   0.619E-03    0.227E-02
DAV:   5    -0.306105442870E+04    0.41270E-05   -0.75687E-05  6912   0.336E-03
  11 F= -.31022970E+04 E0= -.31022970E+04  d E =-.105729E-03  mag=    -0.0000
       N       E                     dE             d eps       ncg     rms          rms(c)
DAV:   1    -0.306105401114E+04    0.42169E-03   -0.14357E-01  6144   0.134E-01    0.944E-02
DAV:   2    -0.306105400618E+04    0.49563E-05   -0.67443E-04  6528   0.128E-02    0.643E-02
DAV:   3    -0.306105398590E+04    0.20279E-04   -0.19526E-04  7104   0.664E-03    0.331E-02
DAV:   4    -0.306105397470E+04    0.11198E-04   -0.13201E-04  7296   0.525E-03    0.290E-02
DAV:   5    -0.306105396717E+04    0.75311E-05   -0.52681E-05  6720   0.319E-03
  12 F= -.31022970E+04 E0= -.31022970E+04  d E =0.634188E-04  mag=    -0.0000
       N       E                     dE             d eps       ncg     rms          rms(c)
DAV:   1    -0.306105423487E+04   -0.26017E-03   -0.14753E-01  6144   0.134E-01    0.107E-01
DAV:   2    -0.306105421717E+04    0.17697E-04   -0.66443E-04  6528   0.119E-02    0.636E-02
DAV:   3    -0.306105420269E+04    0.14485E-04   -0.29127E-04  6912   0.767E-03    0.458E-02
DAV:   4    -0.306105418204E+04    0.20650E-04   -0.25059E-04  7104   0.665E-03    0.296E-02
DAV:   5    -0.306105417276E+04    0.92811E-05   -0.90434E-05  6816   0.383E-03
  13 F= -.31022970E+04 E0= -.31022970E+04  d E =-.130024E-04  mag=    -0.0000
       N       E                     dE             d eps       ncg     rms          rms(c)
DAV:   1    -0.306105374219E+04    0.43984E-03   -0.14170E-01  6144   0.139E-01    0.111E-01
DAV:   2    -0.306105374525E+04   -0.30597E-05   -0.71928E-04  6528   0.128E-02    0.673E-02
DAV:   3    -0.306105373048E+04    0.14767E-04   -0.20661E-04  7296   0.687E-03    0.403E-02
DAV:   4    -0.306105372407E+04    0.64176E-05   -0.23748E-04  7104   0.654E-03    0.362E-02
DAV:   5    -0.306105371360E+04    0.10465E-04   -0.15745E-04  6720   0.467E-03    0.184E-02
DAV:   6    -0.306105370853E+04    0.50697E-05   -0.27487E-05  5952   0.229E-03
  14 F= -.31022970E+04 E0= -.31022970E+04  d E =-.270922E-04  mag=    -0.0000
       N       E                     dE             d eps       ncg     rms          rms(c)
DAV:   1    -0.306105420238E+04   -0.48878E-03   -0.14164E-01  6048   0.134E-01    0.112E-01
DAV:   2    -0.306105420319E+04   -0.81281E-06   -0.68978E-04  6720   0.124E-02    0.685E-02
DAV:   3    -0.306105420181E+04    0.13870E-05   -0.43191E-04  6720   0.859E-03    0.520E-02
DAV:   4    -0.306105417720E+04    0.24606E-04   -0.38715E-04  6720   0.786E-03    0.323E-02
DAV:   5    -0.306105416526E+04    0.11940E-04   -0.11022E-04  6528   0.404E-03    0.149E-02
DAV:   6    -0.306105416249E+04    0.27649E-05   -0.14660E-05  6144   0.172E-03
  15 F= -.31022970E+04 E0= -.31022970E+04  d E =-.370846E-06  mag=    -0.0000
       N       E                     dE             d eps       ncg     rms          rms(c)
DAV:   1    -0.306105418270E+04   -0.17437E-04   -0.14216E-01  5952   0.134E-01    0.109E-01
DAV:   2    -0.306105418199E+04    0.71042E-06   -0.70962E-04  6720   0.134E-02    0.706E-02
DAV:   3    -0.306105417060E+04    0.11380E-04   -0.33404E-04  7200   0.867E-03    0.514E-02
DAV:   4    -0.306105414948E+04    0.21129E-04   -0.22251E-04  7296   0.660E-03    0.269E-02
DAV:   5    -0.306105414427E+04    0.52024E-05   -0.76375E-05  7104   0.381E-03
  16 F= -.31022969E+04 E0= -.31022969E+04  d E =0.987429E-04  mag=    -0.0000
       N       E                     dE             d eps       ncg     rms          rms(c)
DAV:   1    -0.306105346982E+04    0.67965E-03   -0.14308E-01  5952   0.148E-01    0.120E-01
DAV:   2    -0.306105342427E+04    0.45554E-04   -0.82510E-04  6720   0.145E-02    0.710E-02
DAV:   3    -0.306105339632E+04    0.27953E-04   -0.10654E-04  6240   0.562E-03    0.421E-02
DAV:   4    -0.306105339040E+04    0.59211E-05   -0.14926E-04  6720   0.629E-03    0.330E-02
DAV:   5    -0.306105337706E+04    0.13339E-04   -0.10031E-04  6528   0.477E-03    0.142E-02
DAV:   6    -0.306105337580E+04    0.12619E-05   -0.11725E-05  6144   0.175E-03
  17 F= -.31022968E+04 E0= -.31022968E+04  d E =0.112125E-03  mag=    -0.0000
       N       E                     dE             d eps       ncg     rms          rms(c)
DAV:   1    -0.306105378225E+04   -0.40520E-03   -0.13881E-01  5760   0.146E-01    0.123E-01
DAV:   2    -0.306105373912E+04    0.43132E-04   -0.70343E-04  6720   0.130E-02    0.750E-02
DAV:   3    -0.306105371323E+04    0.25891E-04   -0.83066E-05  6432   0.471E-03    0.437E-02
DAV:   4    -0.306105371899E+04   -0.57623E-05   -0.20057E-04  6720   0.647E-03    0.424E-02
DAV:   5    -0.306105369602E+04    0.22973E-04   -0.14085E-04  6912   0.505E-03    0.142E-02
DAV:   6    -0.306105369471E+04    0.13129E-05   -0.92833E-06  6144   0.148E-03
  18 F= -.31022969E+04 E0= -.31022969E+04  d E =-.962033E-04  mag=    -0.0000
       N       E                     dE             d eps       ncg     rms          rms(c)
DAV:   1    -0.306105419014E+04   -0.49412E-03   -0.13893E-01  6144   0.147E-01    0.119E-01
DAV:   2    -0.306105415680E+04    0.33342E-04   -0.58233E-04  6720   0.119E-02    0.688E-02
DAV:   3    -0.306105413445E+04    0.22342E-04   -0.11913E-04  6528   0.503E-03    0.422E-02
DAV:   4    -0.306105414436E+04   -0.99089E-05   -0.28840E-04  6912   0.697E-03    0.420E-02
DAV:   5    -0.306105411588E+04    0.28488E-04   -0.14475E-04  6720   0.490E-03    0.116E-02
DAV:   6    -0.306105411513E+04    0.74960E-06   -0.44158E-06  6144   0.112E-03
  19 F= -.31022968E+04 E0= -.31022968E+04  d E =0.817230E-04  mag=    -0.0000
       N       E                     dE             d eps       ncg     rms          rms(c)
DAV:   1    -0.306105428185E+04   -0.16598E-03   -0.14017E-01  5760   0.152E-01    0.123E-01
DAV:   2    -0.306105423404E+04    0.47816E-04   -0.81663E-04  6720   0.145E-02    0.733E-02
DAV:   3    -0.306105420333E+04    0.30710E-04   -0.66038E-05  6912   0.437E-03    0.418E-02
DAV:   4    -0.306105420209E+04    0.12411E-05   -0.14044E-04  6720   0.597E-03    0.333E-02
DAV:   5    -0.306105418597E+04    0.16115E-04   -0.96962E-05  6720   0.459E-03    0.130E-02
DAV:   6    -0.306105418543E+04    0.54098E-06   -0.60223E-06  5952   0.140E-03
  20 F= -.31022968E+04 E0= -.31022968E+04  d E =-.555526E-05  mag=    -0.0000
       N       E                     dE             d eps       ncg     rms          rms(c)
DAV:   1    -0.306105370742E+04    0.47855E-03   -0.14143E-01  5760   0.148E-01    0.126E-01
DAV:   2    -0.306105362274E+04    0.84686E-04   -0.85076E-04  6528   0.144E-02    0.802E-02
DAV:   3    -0.306105358858E+04    0.34159E-04   -0.13194E-04  6720   0.537E-03    0.462E-02
DAV:   4    -0.306105360293E+04   -0.14352E-04   -0.42583E-04  6912   0.852E-03    0.490E-02
DAV:   5    -0.306105356162E+04    0.41314E-04   -0.26480E-04  6912   0.620E-03    0.144E-02
DAV:   6    -0.306105356108E+04    0.53766E-06   -0.84018E-06  5952   0.144E-03
  21 F= -.31022968E+04 E0= -.31022968E+04  d E =-.284491E-04  mag=    -0.0000
       N       E                     dE             d eps       ncg     rms          rms(c)
DAV:   1    -0.306105416239E+04   -0.60077E-03   -0.13934E-01  5760   0.146E-01    0.119E-01
DAV:   2    -0.306105413007E+04    0.32321E-04   -0.59439E-04  6528   0.116E-02    0.661E-02
DAV:   3    -0.306105410802E+04    0.22056E-04   -0.13420E-04  6720   0.485E-03    0.410E-02
DAV:   4    -0.306105412099E+04   -0.12973E-04   -0.37565E-04  6912   0.696E-03    0.431E-02
DAV:   5    -0.306105409046E+04    0.30524E-04   -0.20568E-04  6528   0.525E-03    0.117E-02
DAV:   6    -0.306105408958E+04    0.88057E-06   -0.58609E-06  5952   0.125E-03
  22 F= -.31022969E+04 E0= -.31022969E+04  d E =-.319116E-04  mag=    -0.0000
       N       E                     dE             d eps       ncg     rms          rms(c)
DAV:   1    -0.306105369106E+04    0.39940E-03   -0.13939E-01  5760   0.151E-01    0.124E-01
DAV:   2    -0.306105365711E+04    0.33952E-04   -0.74585E-04  6528   0.135E-02    0.705E-02
DAV:   3    -0.306105362965E+04    0.27466E-04   -0.74677E-05  6720   0.414E-03    0.417E-02
DAV:   4    -0.306105363732E+04   -0.76724E-05   -0.20368E-04  6720   0.610E-03    0.391E-02
DAV:   5    -0.306105361395E+04    0.23367E-04   -0.13297E-04  6912   0.472E-03    0.128E-02
DAV:   6    -0.306105361354E+04    0.41444E-06   -0.34395E-06  5568   0.117E-03
  23 F= -.31022969E+04 E0= -.31022969E+04  d E =-.279174E-04  mag=    -0.0000
       N       E                     dE             d eps       ncg     rms          rms(c)
DAV:   1    -0.306105438519E+04   -0.77123E-03   -0.14010E-01  5760   0.146E-01    0.121E-01
DAV:   2    -0.306105432356E+04    0.61624E-04   -0.75353E-04  6528   0.138E-02    0.749E-02
DAV:   3    -0.306105429634E+04    0.27218E-04   -0.13834E-04  6912   0.554E-03    0.462E-02
DAV:   4    -0.306105429978E+04   -0.34335E-05   -0.32813E-04  6912   0.746E-03    0.415E-02
DAV:   5    -0.306105427400E+04    0.25779E-04   -0.20740E-04  6720   0.549E-03    0.155E-02
DAV:   6    -0.306105427235E+04    0.16451E-05   -0.15836E-05  6144   0.179E-03
  24 F= -.31022967E+04 E0= -.31022967E+04  d E =0.158712E-03  mag=    -0.0000
       N       E                     dE             d eps       ncg     rms          rms(c)
DAV:   1    -0.306105428874E+04   -0.14739E-04   -0.14256E-01  5760   0.147E-01    0.125E-01
DAV:   2    -0.306105420430E+04    0.84436E-04   -0.82313E-04  6528   0.140E-02    0.806E-02
DAV:   3    -0.306105416796E+04    0.36340E-04   -0.10815E-04  6912   0.488E-03    0.455E-02
DAV:   4    -0.306105417556E+04   -0.76033E-05   -0.31098E-04  6720   0.763E-03    0.440E-02
DAV:   5    -0.306105414325E+04    0.32317E-04   -0.19022E-04  6720   0.552E-03    0.152E-02
DAV:   6    -0.306105414282E+04    0.42556E-06   -0.78268E-06  6144   0.135E-03
  25 F= -.31022969E+04 E0= -.31022969E+04  d E =-.156073E-03  mag=    -0.0000
       N       E                     dE             d eps       ncg     rms          rms(c)
DAV:   1    -0.306105439801E+04   -0.25476E-03   -0.13933E-01  5760   0.148E-01    0.113E-01
DAV:   2    -0.306105438245E+04    0.15557E-04   -0.68214E-04  6528   0.122E-02    0.660E-02
DAV:   3    -0.306105435734E+04    0.25114E-04   -0.58113E-05  6720   0.321E-03    0.346E-02
DAV:   4    -0.306105435598E+04    0.13635E-05   -0.83010E-05  6528   0.430E-03
  26 F= -.31022970E+04 E0= -.31022970E+04  d E =-.115099E-03  mag=    -0.0000
       N       E                     dE             d eps       ncg     rms          rms(c)
DAV:   1    -0.306105443889E+04   -0.81555E-04   -0.13981E-01  5760   0.141E-01    0.119E-01
DAV:   2    -0.306105441014E+04    0.28757E-04   -0.95449E-04  6336   0.134E-02    0.733E-02
DAV:   3    -0.306105440128E+04    0.88558E-05   -0.54380E-04  6528   0.861E-03    0.559E-02
DAV:   4    -0.306105437750E+04    0.23783E-04   -0.55480E-04  6912   0.847E-03    0.405E-02
DAV:   5    -0.306105435409E+04    0.23407E-04   -0.15337E-04  6912   0.447E-03    0.134E-02
DAV:   6    -0.306105435261E+04    0.14863E-05   -0.11428E-05  5760   0.169E-03
  27 F= -.31022969E+04 E0= -.31022969E+04  d E =0.105941E-03  mag=    -0.0000
       N       E                     dE             d eps       ncg     rms          rms(c)
DAV:   1    -0.306105429402E+04    0.60077E-04   -0.14207E-01  5760   0.144E-01    0.122E-01
DAV:   2    -0.306105420723E+04    0.86791E-04   -0.12872E-03  6720   0.152E-02    0.782E-02
DAV:   3    -0.306105417681E+04    0.30416E-04   -0.39308E-04  6528   0.737E-03    0.506E-02
DAV:   4    -0.306105417915E+04   -0.23411E-05   -0.56052E-04  6528   0.907E-03    0.484E-02
DAV:   5    -0.306105413935E+04    0.39796E-04   -0.24989E-04  6720   0.586E-03    0.154E-02
DAV:   6    -0.306105413807E+04    0.12839E-05   -0.96230E-06  6144   0.164E-03
  28 F= -.31022969E+04 E0= -.31022969E+04  d E =0.381784E-04  mag=    -0.0000
       N       E                     dE             d eps       ncg     rms          rms(c)
DAV:   1    -0.306105426612E+04   -0.12676E-03   -0.96208E-02  5760   0.120E-01    0.943E-02
DAV:   2    -0.306105425708E+04    0.90367E-05   -0.11053E-03  6528   0.165E-02    0.787E-02
DAV:   3    -0.306105423554E+04    0.21535E-04   -0.18717E-04  6912   0.530E-03    0.432E-02
DAV:   4    -0.306105426026E+04   -0.24719E-04   -0.41875E-04  6720   0.710E-03    0.562E-02
DAV:   5    -0.306105421611E+04    0.44151E-04   -0.24268E-04  6720   0.559E-03    0.111E-02
DAV:   6    -0.306105421595E+04    0.15827E-06   -0.72873E-06  6144   0.153E-03
  29 F= -.31022971E+04 E0= -.31022971E+04  d E =-.235187E-03  mag=    -0.0000
       N       E                     dE             d eps       ncg     rms          rms(c)
DAV:   1    -0.306105393715E+04    0.27896E-03   -0.48128E-02  5376   0.737E-02    0.535E-02
DAV:   2    -0.306105398852E+04   -0.51368E-04   -0.67641E-04  6528   0.144E-02    0.701E-02
DAV:   3    -0.306105397698E+04    0.11539E-04   -0.30082E-05  7104   0.224E-03    0.535E-02
DAV:   4    -0.306105399353E+04   -0.16549E-04   -0.56637E-05  6720   0.283E-03    0.401E-02
DAV:   5    -0.306105397650E+04    0.17028E-04   -0.13455E-04  6720   0.415E-03    0.141E-02
DAV:   6    -0.306105397356E+04    0.29443E-05   -0.11413E-05  5952   0.158E-03
  30 F= -.31022971E+04 E0= -.31022971E+04  d E =0.346002E-04  mag=    -0.0000
       N       E                     dE             d eps       ncg     rms          rms(c)
DAV:   1    -0.306105442836E+04   -0.45185E-03   -0.49506E-02  5568   0.768E-02    0.918E-02
DAV:   2    -0.306105448243E+04   -0.54070E-04   -0.89425E-04  6528   0.169E-02    0.900E-02
DAV:   3    -0.306105446348E+04    0.18948E-04   -0.13281E-04  6528   0.517E-03    0.548E-02
DAV:   4    -0.306105448864E+04   -0.25161E-04   -0.20425E-04  6720   0.595E-03    0.444E-02
DAV:   5    -0.306105446371E+04    0.24927E-04   -0.20511E-04  6720   0.568E-03    0.166E-02
DAV:   6    -0.306105445879E+04    0.49178E-05   -0.27291E-05  5760   0.208E-03
  31 F= -.31022970E+04 E0= -.31022970E+04  d E =0.116784E-03  mag=    -0.0000
       N       E                     dE             d eps       ncg     rms          rms(c)
DAV:   1    -0.306105405811E+04    0.40560E-03   -0.50510E-02  5568   0.802E-02    0.102E-01
DAV:   2    -0.306105413631E+04   -0.78208E-04   -0.11565E-03  6528   0.200E-02    0.116E-01
DAV:   3    -0.306105410254E+04    0.33774E-04   -0.15181E-04  6720   0.553E-03    0.726E-02
DAV:   4    -0.306105416507E+04   -0.62532E-04   -0.28377E-04  7104   0.690E-03    0.723E-02
DAV:   5    -0.306105410737E+04    0.57699E-04   -0.30710E-04  7104   0.693E-03    0.185E-02
DAV:   6    -0.306105410286E+04    0.45125E-05   -0.27023E-05  6336   0.219E-03
  32 F= -.31022971E+04 E0= -.31022971E+04  d E =-.150787E-03  mag=    -0.0000
       N       E                     dE             d eps       ncg     rms          rms(c)
DAV:   1    -0.306105359806E+04    0.50931E-03   -0.50349E-02  5760   0.725E-02    0.667E-02
DAV:   2    -0.306105364058E+04   -0.42519E-04   -0.63145E-04  6528   0.146E-02    0.736E-02
DAV:   3    -0.306105362805E+04    0.12535E-04   -0.54634E-05  6528   0.328E-03    0.493E-02
DAV:   4    -0.306105365132E+04   -0.23275E-04   -0.10870E-04  6528   0.440E-03    0.415E-02
DAV:   5    -0.306105362990E+04    0.21424E-04   -0.12530E-04  6720   0.453E-03    0.124E-02
DAV:   6    -0.306105362771E+04    0.21880E-05   -0.99244E-06  5952   0.146E-03
  33 F= -.31022971E+04 E0= -.31022971E+04  d E =0.369429E-04  mag=    -0.0000
       N       E                     dE             d eps       ncg     rms          rms(c)
DAV:   1    -0.306105438639E+04   -0.75649E-03   -0.52480E-02  5568   0.782E-02    0.103E-01
DAV:   2    -0.306105444109E+04   -0.54696E-04   -0.94653E-04  6528   0.176E-02    0.993E-02
DAV:   3    -0.306105441806E+04    0.23031E-04   -0.18311E-04  6720   0.605E-03    0.546E-02
DAV:   4    -0.306105446353E+04   -0.45470E-04   -0.35301E-04  6720   0.801E-03    0.651E-02
DAV:   5    -0.306105441400E+04    0.49531E-04   -0.25226E-04  6912   0.646E-03    0.193E-02
DAV:   6    -0.306105440915E+04    0.48492E-05   -0.23494E-05  6144   0.209E-03
  34 F= -.31022971E+04 E0= -.31022971E+04  d E =-.290990E-04  mag=    -0.0000
       N       E                     dE             d eps       ncg     rms          rms(c)
DAV:   1    -0.306105416129E+04    0.25271E-03   -0.49611E-02  5952   0.767E-02    0.660E-02
DAV:   2    -0.306105422051E+04   -0.59225E-04   -0.74618E-04  6528   0.154E-02    0.649E-02
DAV:   3    -0.306105421194E+04    0.85717E-05   -0.74625E-05  6912   0.387E-03
  35 F= -.31022972E+04 E0= -.31022972E+04  d E =-.778620E-04  mag=    -0.0000
       N       E                     dE             d eps       ncg     rms          rms(c)
DAV:   1    -0.306105401229E+04    0.20822E-03   -0.48913E-02  5952   0.765E-02    0.631E-02
DAV:   2    -0.306105413422E+04   -0.12192E-03   -0.17738E-03  6912   0.209E-02    0.105E-01
DAV:   3    -0.306105402027E+04    0.11394E-03   -0.38253E-04  7008   0.790E-03    0.451E-02
DAV:   4    -0.306105402655E+04   -0.62761E-05   -0.25302E-05  6720   0.217E-03
  36 F= -.31022971E+04 E0= -.31022971E+04  d E =0.476030E-04  mag=    -0.0000
       N       E                     dE             d eps       ncg     rms          rms(c)
DAV:   1    -0.306105379233E+04    0.22794E-03   -0.50031E-02  6144   0.792E-02    0.911E-02
DAV:   2    -0.306105385962E+04   -0.67285E-04   -0.97184E-04  6912   0.183E-02    0.933E-02
DAV:   3    -0.306105383265E+04    0.26967E-04   -0.17564E-04  6624   0.596E-03    0.544E-02
DAV:   4    -0.306105386721E+04   -0.34562E-04   -0.20605E-04  7104   0.620E-03    0.534E-02
DAV:   5    -0.306105383488E+04    0.32335E-04   -0.16343E-04  7104   0.548E-03    0.135E-02
DAV:   6    -0.306105383208E+04    0.28008E-05   -0.11568E-05  5760   0.174E-03
  37 F= -.31022969E+04 E0= -.31022969E+04  d E =0.174867E-03  mag=    -0.0000
       N       E                     dE             d eps       ncg     rms          rms(c)
DAV:   1    -0.306105428924E+04   -0.45436E-03   -0.49787E-02  6144   0.825E-02    0.942E-02
DAV:   2    -0.306105435598E+04   -0.66741E-04   -0.93466E-04  6912   0.188E-02    0.969E-02
DAV:   3    -0.306105433605E+04    0.19931E-04   -0.12727E-04  6528   0.506E-03    0.582E-02
DAV:   4    -0.306105438383E+04   -0.47779E-04   -0.30645E-04  7104   0.696E-03    0.650E-02
DAV:   5    -0.306105433628E+04    0.47551E-04   -0.28456E-04  7008   0.633E-03    0.194E-02
DAV:   6    -0.306105433084E+04    0.54369E-05   -0.24517E-05  6528   0.219E-03
  38 F= -.31022971E+04 E0= -.31022971E+04  d E =-.163423E-03  mag=    -0.0000
       N       E                     dE             d eps       ncg     rms          rms(c)
DAV:   1    -0.306105395176E+04    0.38453E-03   -0.49490E-02  5952   0.779E-02    0.630E-02
DAV:   2    -0.306105399396E+04   -0.42200E-04   -0.65135E-04  6720   0.161E-02    0.850E-02
DAV:   3    -0.306105398817E+04    0.57833E-05   -0.13424E-05  6528   0.199E-03
  39 F= -.31022971E+04 E0= -.31022971E+04  d E =0.230178E-05  mag=    -0.0000
       N       E                     dE             d eps       ncg     rms          rms(c)
DAV:   1    -0.306105387356E+04    0.12040E-03   -0.51101E-02  6144   0.788E-02    0.835E-02
DAV:   2    -0.306105394259E+04   -0.69033E-04   -0.97619E-04  6528   0.181E-02    0.862E-02
DAV:   3    -0.306105391707E+04    0.25522E-04   -0.22043E-04  6528   0.622E-03    0.531E-02
DAV:   4    -0.306105394010E+04   -0.23034E-04   -0.22358E-04  7104   0.534E-03    0.471E-02
DAV:   5    -0.306105392062E+04    0.19478E-04   -0.21398E-04  7008   0.527E-03    0.234E-02
DAV:   6    -0.306105391547E+04    0.51505E-05   -0.22510E-05  6528   0.236E-03
  40 F= -.31022970E+04 E0= -.31022970E+04  d E =0.125151E-03  mag=    -0.0000
       N       E                     dE             d eps       ncg     rms          rms(c)
DAV:   1    -0.306105390514E+04    0.15481E-04   -0.50431E-02  6144   0.827E-02    0.840E-02
DAV:   2    -0.306105396971E+04   -0.64571E-04   -0.89132E-04  6912   0.189E-02    0.919E-02
DAV:   3    -0.306105395313E+04    0.16579E-04   -0.87417E-05  6720   0.434E-03    0.587E-02
DAV:   4    -0.306105399719E+04   -0.44053E-04   -0.27116E-04  6912   0.644E-03    0.629E-02
DAV:   5    -0.306105395185E+04    0.45333E-04   -0.29549E-04  6624   0.625E-03    0.185E-02
DAV:   6    -0.306105394776E+04    0.40967E-05   -0.18192E-05  6336   0.207E-03
  41 F= -.31022971E+04 E0= -.31022971E+04  d E =-.114489E-03  mag=    -0.0000
       N       E                     dE             d eps       ncg     rms          rms(c)
DAV:   1    -0.306105405938E+04   -0.10752E-03   -0.49281E-02  6144   0.801E-02    0.496E-02
DAV:   2    -0.306105409770E+04   -0.38326E-04   -0.50001E-04  6912   0.144E-02    0.610E-02
DAV:   3    -0.306105409133E+04    0.63770E-05   -0.13409E-05  6336   0.196E-03
  42 F= -.31022971E+04 E0= -.31022971E+04  d E =-.221969E-04  mag=    -0.0000
       N       E                     dE             d eps       ncg     rms          rms(c)
DAV:   1    -0.306105390242E+04    0.19528E-03   -0.51108E-02  6144   0.819E-02    0.885E-02
DAV:   2    -0.306105398907E+04   -0.86650E-04   -0.12343E-03  6912   0.204E-02    0.110E-01
DAV:   3    -0.306105393756E+04    0.51514E-04   -0.19214E-04  6432   0.616E-03    0.678E-02
DAV:   4    -0.306105397703E+04   -0.39473E-04   -0.15522E-04  6912   0.498E-03    0.598E-02
DAV:   5    -0.306105394300E+04    0.34033E-04   -0.21443E-04  6816   0.573E-03    0.219E-02
DAV:   6    -0.306105393814E+04    0.48559E-05   -0.22771E-05  6720   0.224E-03
  43 F= -.31022969E+04 E0= -.31022969E+04  d E =0.180901E-03  mag=    -0.0000
       N       E                     dE             d eps       ncg     rms          rms(c)
DAV:   1    -0.306105397669E+04   -0.33688E-04   -0.49883E-02  5952   0.822E-02    0.927E-02
DAV:   2    -0.306105404225E+04   -0.65565E-04   -0.93287E-04  6528   0.192E-02    0.104E-01
DAV:   3    -0.306105402484E+04    0.17408E-04   -0.63847E-05  6720   0.397E-03    0.699E-02
DAV:   4    -0.306105406050E+04   -0.35655E-04   -0.15898E-04  6912   0.532E-03    0.594E-02
DAV:   5    -0.306105402277E+04    0.37728E-04   -0.20185E-04  6912   0.558E-03    0.147E-02
DAV:   6    -0.306105402013E+04    0.26378E-05   -0.15105E-05  5760   0.177E-03
  44 F= -.31022971E+04 E0= -.31022971E+04  d E =-.152901E-03  mag=    -0.0000
       N       E                     dE             d eps       ncg     rms          rms(c)
DAV:   1    -0.306105401774E+04    0.50293E-05   -0.49196E-02  5760   0.776E-02    0.624E-02
DAV:   2    -0.306105407377E+04   -0.56028E-04   -0.71933E-04  6720   0.160E-02    0.845E-02
DAV:   3    -0.306105406384E+04    0.99300E-05   -0.15687E-05  6720   0.198E-03
  45 F= -.31022971E+04 E0= -.31022971E+04  d E =0.769335E-05  mag=    -0.0000
       N       E                     dE             d eps       ncg     rms          rms(c)
DAV:   1    -0.306105440765E+04   -0.33388E-03   -0.49864E-02  5760   0.778E-02    0.873E-02
DAV:   2    -0.306105449287E+04   -0.85215E-04   -0.12004E-03  6528   0.188E-02    0.975E-02
DAV:   3    -0.306105444196E+04    0.50911E-04   -0.23918E-04  6624   0.681E-03    0.532E-02
DAV:   4    -0.306105446251E+04   -0.20551E-04   -0.13682E-04  6720   0.483E-03    0.466E-02
DAV:   5    -0.306105444165E+04    0.20854E-04   -0.13224E-04  6720   0.472E-03    0.156E-02
DAV:   6    -0.306105443761E+04    0.40450E-05   -0.16479E-05  6144   0.189E-03
  46 F= -.31022969E+04 E0= -.31022969E+04  d E =0.150562E-03  mag=    -0.0000
       N       E                     dE             d eps       ncg     rms          rms(c)
DAV:   1    -0.306105395151E+04    0.49014E-03   -0.49498E-02  5952   0.802E-02    0.933E-02
DAV:   2    -0.306105402302E+04   -0.71503E-04   -0.97602E-04  6528   0.177E-02    0.837E-02
DAV:   3    -0.306105400956E+04    0.13459E-04   -0.25483E-04  6624   0.621E-03    0.444E-02
DAV:   4    -0.306105404267E+04   -0.33109E-04   -0.40602E-04  6720   0.736E-03    0.579E-02
DAV:   5    -0.306105400751E+04    0.35155E-04   -0.23110E-04  6720   0.542E-03    0.158E-02
DAV:   6    -0.306105400432E+04    0.31878E-05   -0.16097E-05  5664   0.184E-03
  47 F= -.31022972E+04 E0= -.31022972E+04  d E =-.215868E-03  mag=    -0.0000
       N       E                     dE             d eps       ncg     rms          rms(c)
DAV:   1    -0.306105433877E+04   -0.33126E-03   -0.48186E-02  5952   0.765E-02    0.513E-02
DAV:   2    -0.306105437544E+04   -0.36668E-04   -0.52725E-04  6528   0.140E-02    0.637E-02
DAV:   3    -0.306105436833E+04    0.71019E-05   -0.18750E-05  6528   0.208E-03
  48 F= -.31022971E+04 E0= -.31022971E+04  d E =0.364116E-04  mag=    -0.0000
       N       E                     dE             d eps       ncg     rms          rms(c)
DAV:   1    -0.306105389565E+04    0.47979E-03   -0.49998E-02  6144   0.773E-02    0.890E-02
DAV:   2    -0.306105399145E+04   -0.95803E-04   -0.14824E-03  7104   0.189E-02    0.956E-02
DAV:   3    -0.306105392408E+04    0.67368E-04   -0.59339E-04  6912   0.870E-03    0.454E-02
DAV:   4    -0.306105393842E+04   -0.14342E-04   -0.23473E-04  6912   0.542E-03    0.427E-02
DAV:   5    -0.306105392694E+04    0.11484E-04   -0.14983E-04  6720   0.441E-03    0.210E-02
DAV:   6    -0.306105391989E+04    0.70450E-05   -0.29673E-05  6336   0.243E-03
  49 F= -.31022970E+04 E0= -.31022970E+04  d E =0.121696E-03  mag=    -0.0000
       N       E                     dE             d eps       ncg     rms          rms(c)
DAV:   1    -0.306105428574E+04   -0.35880E-03   -0.50402E-02  6144   0.826E-02    0.825E-02
DAV:   2    -0.306105434338E+04   -0.57649E-04   -0.80859E-04  6912   0.179E-02    0.881E-02
DAV:   3    -0.306105433041E+04    0.12976E-04   -0.74258E-05  6528   0.390E-03    0.564E-02
DAV:   4    -0.306105437329E+04   -0.42885E-04   -0.27449E-04  6912   0.627E-03    0.623E-02
DAV:   5    -0.306105433007E+04    0.43222E-04   -0.29327E-04  6816   0.600E-03    0.174E-02
DAV:   6    -0.306105432608E+04    0.39946E-05   -0.15450E-05  5952   0.197E-03
  50 F= -.31022971E+04 E0= -.31022971E+04  d E =-.142160E-03  mag=    -0.0000
       N       E                     dE             d eps       ncg     rms          rms(c)
DAV:   1    -0.306105432322E+04    0.68530E-05   -0.49767E-02  5952   0.777E-02    0.560E-02
DAV:   2    -0.306105435504E+04   -0.31826E-04   -0.56735E-04  6720   0.145E-02    0.630E-02
DAV:   3    -0.306105434528E+04    0.97644E-05   -0.42030E-05  6912   0.283E-03
  51 F= -.31022971E+04 E0= -.31022971E+04  d E =0.483623E-04  mag=    -0.0000
       N       E                     dE             d eps       ncg     rms          rms(c)
DAV:   1    -0.306105401503E+04    0.34001E-03   -0.51103E-02  5952   0.810E-02    0.951E-02
DAV:   2    -0.306105415057E+04   -0.13554E-03   -0.20634E-03  7104   0.220E-02    0.114E-01
DAV:   3    -0.306105403223E+04    0.11834E-03   -0.78290E-04  6720   0.101E-02    0.541E-02
DAV:   4    -0.306105404959E+04   -0.17368E-04   -0.21226E-04  6624   0.535E-03    0.455E-02
DAV:   5    -0.306105403677E+04    0.12825E-04   -0.15919E-04  6720   0.481E-03    0.231E-02
DAV:   6    -0.306105402931E+04    0.74600E-05   -0.36767E-05  6528   0.262E-03
  52 F= -.31022971E+04 E0= -.31022971E+04  d E =0.160068E-04  mag=    -0.0000
       N       E                     dE             d eps       ncg     rms          rms(c)
DAV:   1    -0.306105445481E+04   -0.41804E-03   -0.50420E-02  5952   0.795E-02    0.811E-02
DAV:   2    -0.306105451544E+04   -0.60632E-04   -0.83959E-04  6912   0.166E-02    0.770E-02
DAV:   3    -0.306105450535E+04    0.10089E-04   -0.89294E-05  6720   0.426E-03    0.445E-02
DAV:   4    -0.306105453839E+04   -0.33041E-04   -0.27126E-04  6720   0.635E-03    0.549E-02
DAV:   5    -0.306105450184E+04    0.36555E-04   -0.22243E-04  6912   0.558E-03    0.156E-02
DAV:   6    -0.306105449886E+04    0.29731E-05   -0.14198E-05  6144   0.170E-03
  53 F= -.31022971E+04 E0= -.31022971E+04  d E =-.391374E-04  mag=    -0.0000
       N       E                     dE             d eps       ncg     rms          rms(c)
DAV:   1    -0.306105404068E+04    0.46115E-03   -0.49795E-02  5760   0.726E-02    0.561E-02
DAV:   2    -0.306105407616E+04   -0.35477E-04   -0.57798E-04  6528   0.138E-02    0.586E-02
DAV:   3    -0.306105406433E+04    0.11826E-04   -0.80369E-05  6720   0.382E-03    0.325E-02
DAV:   4    -0.306105407858E+04   -0.14249E-04   -0.11740E-04  6720   0.400E-03    0.359E-02
DAV:   5    -0.306105406450E+04    0.14083E-04   -0.96277E-05  6528   0.361E-03    0.131E-02
DAV:   6    -0.306105406275E+04    0.17473E-05   -0.62933E-06  5760   0.146E-03
  54 F= -.31022971E+04 E0= -.31022971E+04  d E =0.566207E-04  mag=    -0.0000
       N       E                     dE             d eps       ncg     rms          rms(c)
DAV:   1    -0.306105431582E+04   -0.25132E-03   -0.49519E-02  5760   0.690E-02    0.458E-02
DAV:   2    -0.306105434386E+04   -0.28047E-04   -0.40414E-04  6528   0.111E-02    0.365E-02
DAV:   3    -0.306105434208E+04    0.17796E-05   -0.62134E-05  6912   0.318E-03
  55 F= -.31022971E+04 E0= -.31022971E+04  d E =-.211768E-04  mag=    -0.0000
       N       E                     dE             d eps       ncg     rms          rms(c)
DAV:   1    -0.306105440752E+04   -0.63662E-04   -0.51981E-02  5760   0.761E-02    0.917E-02
DAV:   2    -0.306105447595E+04   -0.68426E-04   -0.10320E-03  6336   0.174E-02    0.892E-02
DAV:   3    -0.306105445504E+04    0.20913E-04   -0.13985E-04  6912   0.563E-03    0.499E-02
DAV:   4    -0.306105447916E+04   -0.24126E-04   -0.19910E-04  7296   0.572E-03    0.535E-02
DAV:   5    -0.306105445782E+04    0.21346E-04   -0.22300E-04  7104   0.543E-03    0.264E-02
DAV:   6    -0.306105445059E+04    0.72260E-05   -0.33788E-05  6720   0.242E-03
  56 F= -.31022970E+04 E0= -.31022970E+04  d E =0.442151E-04  mag=    -0.0000
       N       E                     dE             d eps       ncg     rms          rms(c)
DAV:   1    -0.306105424290E+04    0.21492E-03   -0.52269E-02  5568   0.741E-02    0.752E-02
DAV:   2    -0.306105428172E+04   -0.38816E-04   -0.74807E-04  6720   0.167E-02    0.933E-02
DAV:   3    -0.306105426831E+04    0.13407E-04   -0.30792E-05  6336   0.282E-03    0.702E-02
DAV:   4    -0.306105427734E+04   -0.90329E-05   -0.42868E-05  6528   0.275E-03
  57 F= -.31022971E+04 E0= -.31022971E+04  d E =-.646636E-04  mag=    -0.0000
       N       E                     dE             d eps       ncg     rms          rms(c)
DAV:   1    -0.306105435034E+04   -0.82027E-04   -0.50695E-02  5376   0.710E-02    0.504E-02
DAV:   2    -0.306105439407E+04   -0.43728E-04   -0.68587E-04  6528   0.149E-02    0.676E-02
DAV:   3    -0.306105437790E+04    0.16162E-04   -0.43833E-05  6336   0.314E-03    0.447E-02
DAV:   4    -0.306105438829E+04   -0.10385E-04   -0.62987E-05  6528   0.305E-03    0.344E-02
DAV:   5    -0.306105437651E+04    0.11782E-04   -0.11594E-04  6528   0.392E-03    0.168E-02
DAV:   6    -0.306105437346E+04    0.30422E-05   -0.11920E-05  5568   0.158E-03
  58 F= -.31022971E+04 E0= -.31022971E+04  d E =-.484082E-04  mag=    -0.0000
       N       E                     dE             d eps       ncg     rms          rms(c)
DAV:   1    -0.306105368858E+04    0.68793E-03   -0.51000E-02  5760   0.766E-02    0.673E-02
DAV:   2    -0.306105374337E+04   -0.54791E-04   -0.74469E-04  6528   0.157E-02    0.691E-02
DAV:   3    -0.306105373228E+04    0.11086E-04   -0.66804E-05  6912   0.386E-03    0.392E-02
DAV:   4    -0.306105375345E+04   -0.21172E-04   -0.12336E-04  7104   0.463E-03    0.472E-02
DAV:   5    -0.306105373478E+04    0.18670E-04   -0.12002E-04  6720   0.431E-03    0.161E-02
DAV:   6    -0.306105373275E+04    0.20297E-05   -0.13537E-05  5568   0.178E-03
  59 F= -.31022971E+04 E0= -.31022971E+04  d E =0.591960E-04  mag=    -0.0000
       N       E                     dE             d eps       ncg     rms          rms(c)
DAV:   1    -0.306105419886E+04   -0.46408E-03   -0.51940E-02  5760   0.743E-02    0.751E-02
DAV:   2    -0.306105423823E+04   -0.39365E-04   -0.71939E-04  6528   0.159E-02    0.859E-02
DAV:   3    -0.306105422501E+04    0.13215E-04   -0.35705E-05  6720   0.329E-03    0.571E-02
DAV:   4    -0.306105423929E+04   -0.14273E-04   -0.66201E-05  6528   0.390E-03    0.490E-02
DAV:   5    -0.306105422171E+04    0.17572E-04   -0.10547E-04  6720   0.456E-03    0.154E-02
DAV:   6    -0.306105421900E+04    0.27193E-05   -0.11532E-05  5760   0.152E-03
  60 F= -.31022971E+04 E0= -.31022971E+04  d E =-.288326E-04  mag=    -0.0000
       N       E                     dE             d eps       ncg     rms          rms(c)
DAV:   1    -0.306105431402E+04   -0.92304E-04   -0.49845E-02  5760   0.732E-02    0.429E-02
DAV:   2    -0.306105434083E+04   -0.26806E-04   -0.43372E-04  6528   0.124E-02    0.492E-02
DAV:   3    -0.306105433243E+04    0.83946E-05   -0.25424E-05  6912   0.248E-03
  61 F= -.31022970E+04 E0= -.31022970E+04  d E =0.840284E-04  mag=    -0.0000
       N       E                     dE             d eps       ncg     rms          rms(c)
DAV:   1    -0.306105371982E+04    0.62100E-03   -0.51838E-02  5760   0.779E-02    0.839E-02
DAV:   2    -0.306105380737E+04   -0.87550E-04   -0.13304E-03  6720   0.196E-02    0.103E-01
DAV:   3    -0.306105376385E+04    0.43527E-04   -0.17423E-04  6912   0.625E-03    0.599E-02
DAV:   4    -0.306105379430E+04   -0.30453E-04   -0.13740E-04  6720   0.493E-03    0.582E-02
DAV:   5    -0.306105376776E+04    0.26537E-04   -0.17375E-04  6912   0.531E-03    0.245E-02
DAV:   6    -0.306105376338E+04    0.43836E-05   -0.21246E-05  6912   0.213E-03
  62 F= -.31022970E+04 E0= -.31022970E+04  d E =0.185542E-05  mag=     0.0000
       N       E                     dE             d eps       ncg     rms          rms(c)
DAV:   1    -0.306105438994E+04   -0.62218E-03   -0.51050E-02  5568   0.736E-02    0.641E-02
DAV:   2    -0.306105442807E+04   -0.38134E-04   -0.64248E-04  6528   0.146E-02    0.703E-02
DAV:   3    -0.306105441695E+04    0.11128E-04   -0.38212E-05  6720   0.331E-03    0.430E-02
DAV:   4    -0.306105442974E+04   -0.12794E-04   -0.68265E-05  6528   0.376E-03    0.418E-02
DAV:   5    -0.306105441480E+04    0.14943E-04   -0.81136E-05  6720   0.393E-03    0.133E-02
DAV:   6    -0.306105441288E+04    0.19160E-05   -0.57231E-06  6144   0.127E-03
  63 F= -.31022971E+04 E0= -.31022971E+04  d E =-.800238E-04  mag=     0.0000
       N       E                     dE             d eps       ncg     rms          rms(c)
DAV:   1    -0.306105433138E+04    0.83416E-04   -0.50561E-02  5376   0.733E-02    0.496E-02
DAV:   2    -0.306105435938E+04   -0.27997E-04   -0.53239E-04  6528   0.143E-02    0.733E-02
DAV:   3    -0.306105435191E+04    0.74664E-05   -0.12652E-05  6336   0.197E-03
  64 F= -.31022971E+04 E0= -.31022971E+04  d E =0.446798E-04  mag=     0.0000
       N       E                     dE             d eps       ncg     rms          rms(c)
DAV:   1    -0.306105381674E+04    0.54264E-03   -0.53160E-02  5760   0.765E-02    0.882E-02
DAV:   2    -0.306105388215E+04   -0.65409E-04   -0.14891E-03  6720   0.218E-02    0.117E-01
DAV:   3    -0.306105382815E+04    0.53999E-04   -0.14119E-04  6144   0.659E-03    0.641E-02
DAV:   4    -0.306105384293E+04   -0.14781E-04   -0.61012E-05  6720   0.373E-03    0.558E-02
DAV:   5    -0.306105383457E+04    0.83632E-05   -0.17355E-04  7104   0.526E-03    0.293E-02
DAV:   6    -0.306105382535E+04    0.92232E-05   -0.48120E-05  6912   0.282E-03
  65 F= -.31022970E+04 E0= -.31022970E+04  d E =0.492925E-04  mag=     0.0000
       N       E                     dE             d eps       ncg     rms          rms(c)
DAV:   1    -0.306105404878E+04   -0.21421E-03   -0.51430E-02  6144   0.605E-02    0.402E-02
DAV:   2    -0.306105406952E+04   -0.20744E-04   -0.59092E-04  6912   0.128E-02    0.630E-02
DAV:   3    -0.306105405591E+04    0.13611E-04   -0.26033E-05  6528   0.294E-03    0.407E-02
DAV:   4    -0.306105405082E+04    0.50861E-05   -0.12989E-05  6528   0.195E-03
  66 F= -.31022972E+04 E0= -.31022972E+04  d E =-.157345E-03  mag=     0.0000
       N       E                     dE             d eps       ncg     rms          rms(c)
DAV:   1    -0.306105434761E+04   -0.29170E-03   -0.50209E-02  6144   0.607E-02    0.315E-02
DAV:   2    -0.306105437271E+04   -0.25094E-04   -0.42902E-04  6912   0.104E-02    0.307E-02
DAV:   3    -0.306105436582E+04    0.68819E-05   -0.34893E-05  6912   0.320E-03
  67 F= -.31022971E+04 E0= -.31022971E+04  d E =0.797515E-04  mag=     0.0000
       N       E                     dE             d eps       ncg     rms          rms(c)
DAV:   1    -0.306105396700E+04    0.40570E-03   -0.51342E-02  5760   0.754E-02    0.643E-02
DAV:   2    -0.306105403234E+04   -0.65340E-04   -0.11701E-03  6912   0.196E-02    0.113E-01
DAV:   3    -0.306105399702E+04    0.35322E-04   -0.57563E-05  6528   0.417E-03    0.788E-02
DAV:   4    -0.306105399477E+04    0.22496E-05   -0.40272E-05  6528   0.292E-03
  68 F= -.31022971E+04 E0= -.31022971E+04  d E =-.579948E-04  mag=     0.0000
       N       E                     dE             d eps       ncg     rms          rms(c)
DAV:   1    -0.306105371552E+04    0.28150E-03   -0.52667E-02  5760   0.765E-02    0.723E-02
DAV:   2    -0.306105376896E+04   -0.53433E-04   -0.12872E-03  6528   0.220E-02    0.122E-01
DAV:   3    -0.306105372040E+04    0.48555E-04   -0.88040E-05  6336   0.502E-03    0.803E-02
DAV:   4    -0.306105372640E+04   -0.59995E-05   -0.53712E-05  6528   0.309E-03
  69 F= -.31022971E+04 E0= -.31022971E+04  d E =0.800953E-04  mag=     0.0000
       N       E                     dE             d eps       ncg     rms          rms(c)
DAV:   1    -0.306105429359E+04   -0.57319E-03   -0.53015E-02  5760   0.769E-02    0.103E-01
DAV:   2    -0.306105437605E+04   -0.82462E-04   -0.16019E-03  6528   0.226E-02    0.127E-01
DAV:   3    -0.306105430866E+04    0.67394E-04   -0.23134E-04  6720   0.725E-03    0.703E-02
DAV:   4    -0.306105434663E+04   -0.37972E-04   -0.23070E-04  6720   0.571E-03    0.708E-02
DAV:   5    -0.306105431558E+04    0.31050E-04   -0.38408E-04  6720   0.679E-03    0.405E-02
DAV:   6    -0.306105429938E+04    0.16197E-04   -0.66509E-05  6912   0.362E-03    0.756E-03
DAV:   7    -0.306105429935E+04    0.38417E-07    0.14139E-06  5568   0.588E-04
  70 F= -.31022970E+04 E0= -.31022970E+04  d E =0.538495E-04  mag=     0.0000
       N       E                     dE             d eps       ncg     rms          rms(c)
DAV:   1    -0.306105422742E+04    0.71962E-04   -0.52648E-02  5952   0.734E-02    0.705E-02
DAV:   2    -0.306105426576E+04   -0.38334E-04   -0.10902E-03  6336   0.186E-02    0.105E-01
DAV:   3    -0.306105423351E+04    0.32242E-04   -0.62895E-05  6624   0.435E-03    0.690E-02
DAV:   4    -0.306105423561E+04   -0.20986E-05   -0.30434E-05  6336   0.259E-03
  71 F= -.31022971E+04 E0= -.31022971E+04  d E =-.625813E-04  mag=     0.0000
       N       E                     dE             d eps       ncg     rms          rms(c)
DAV:   1    -0.306105405923E+04    0.17428E-03   -0.56125E-02  6144   0.673E-02    0.972E-02
DAV:   2    -0.306105411375E+04   -0.54521E-04   -0.24936E-03  6528   0.259E-02    0.164E-01
DAV:   3    -0.306105400814E+04    0.10561E-03   -0.18709E-04  6720   0.715E-03    0.102E-01
DAV:   4    -0.306105400438E+04    0.37618E-05   -0.76163E-05  6528   0.380E-03
  72 F= -.31022972E+04 E0= -.31022972E+04  d E =-.920770E-04  mag=    -0.0000
       N       E                     dE             d eps       ncg     rms          rms(c)
DAV:   1    -0.306105433788E+04   -0.32974E-03   -0.50633E-02  6144   0.571E-02    0.478E-02
DAV:   2    -0.306105440414E+04   -0.66259E-04   -0.97534E-04  6528   0.137E-02    0.527E-02
DAV:   3    -0.306105436588E+04    0.38263E-04   -0.30154E-04  6528   0.703E-03    0.219E-02
DAV:   4    -0.306105436225E+04    0.36304E-05   -0.22517E-05  6144   0.189E-03
  73 F= -.31022971E+04 E0= -.31022971E+04  d E =0.275642E-04  mag=    -0.0000
       N       E                     dE             d eps       ncg     rms          rms(c)
DAV:   1    -0.306105417667E+04    0.18921E-03   -0.51670E-02  5952   0.729E-02    0.570E-02
DAV:   2    -0.306105421087E+04   -0.34204E-04   -0.72063E-04  6528   0.147E-02    0.464E-02
DAV:   3    -0.306105420505E+04    0.58230E-05   -0.89219E-05  6720   0.416E-03
  74 F= -.31022971E+04 E0= -.31022971E+04  d E =0.654039E-04  mag=     0.0000
       N       E                     dE             d eps       ncg     rms          rms(c)
DAV:   1    -0.306105367671E+04    0.53416E-03   -0.50800E-02  5568   0.755E-02    0.720E-02
DAV:   2    -0.306105376921E+04   -0.92494E-04   -0.13344E-03  6336   0.185E-02    0.879E-02
DAV:   3    -0.306105370576E+04    0.63454E-04   -0.34100E-04  6912   0.750E-03    0.372E-02
DAV:   4    -0.306105371850E+04   -0.12741E-04   -0.10229E-04  6528   0.394E-03    0.402E-02
DAV:   5    -0.306105370776E+04    0.10738E-04   -0.93436E-05  6528   0.356E-03    0.169E-02
DAV:   6    -0.306105370394E+04    0.38178E-05   -0.20097E-05  5952   0.192E-03
  75 F= -.31022971E+04 E0= -.31022971E+04  d E =0.114300E-04  mag=    -0.0000
       N       E                     dE             d eps       ncg     rms          rms(c)
DAV:   1    -0.306105431164E+04   -0.60388E-03   -0.52713E-02  5952   0.758E-02    0.959E-02
DAV:   2    -0.306105435247E+04   -0.40825E-04   -0.92026E-04  6528   0.180E-02    0.107E-01
DAV:   3    -0.306105433107E+04    0.21400E-04   -0.66188E-05  6720   0.433E-03    0.672E-02
DAV:   4    -0.306105435774E+04   -0.26675E-04   -0.13283E-04  6912   0.522E-03    0.615E-02
DAV:   5    -0.306105432812E+04    0.29621E-04   -0.18785E-04  7296   0.571E-03    0.215E-02
DAV:   6    -0.306105432313E+04    0.49921E-05   -0.17786E-05  6144   0.192E-03
  76 F= -.31022971E+04 E0= -.31022971E+04  d E =-.146080E-04  mag=    -0.0000
       N       E                     dE             d eps       ncg     rms          rms(c)
DAV:   1    -0.306105404021E+04    0.28791E-03   -0.50640E-02  5568   0.697E-02    0.458E-02
DAV:   2    -0.306105407887E+04   -0.38664E-04   -0.51672E-04  6528   0.128E-02    0.480E-02
DAV:   3    -0.306105407454E+04    0.43372E-05   -0.17666E-05  6720   0.236E-03
  77 F= -.31022972E+04 E0= -.31022972E+04  d E =-.128506E-03  mag=    -0.0000
       N       E                     dE             d eps       ncg     rms          rms(c)
DAV:   1    -0.306105433552E+04   -0.25664E-03   -0.53664E-02  5760   0.643E-02    0.783E-02
DAV:   2    -0.306105438345E+04   -0.47934E-04   -0.15072E-03  6528   0.196E-02    0.122E-01
DAV:   3    -0.306105432594E+04    0.57512E-04   -0.10837E-04  6528   0.537E-03    0.766E-02
DAV:   4    -0.306105432517E+04    0.76724E-06   -0.48318E-05  6336   0.298E-03
  78 F= -.31022969E+04 E0= -.31022969E+04  d E =0.286262E-03  mag=    -0.0000
       N       E                     dE             d eps       ncg     rms          rms(c)
DAV:   1    -0.306105438571E+04   -0.59776E-04   -0.56388E-02  5952   0.701E-02    0.956E-02
DAV:   2    -0.306105447380E+04   -0.88086E-04   -0.28311E-03  6720   0.264E-02    0.170E-01
DAV:   3    -0.306105434215E+04    0.13165E-03   -0.25422E-04  6528   0.769E-03    0.104E-01
DAV:   4    -0.306105436543E+04   -0.23280E-04   -0.18486E-04  6720   0.500E-03    0.719E-02
DAV:   5    -0.306105432585E+04    0.39577E-04   -0.38786E-04  7104   0.695E-03    0.358E-02
DAV:   6    -0.306105431534E+04    0.10510E-04   -0.42697E-05  6720   0.283E-03    0.123E-02
DAV:   7    -0.306105431521E+04    0.12713E-06   -0.41360E-07  5376   0.900E-04
  79 F= -.31022972E+04 E0= -.31022972E+04  d E =-.254207E-03  mag=     0.0000
       N       E                     dE             d eps       ncg     rms          rms(c)
DAV:   1    -0.306105413089E+04    0.18445E-03   -0.50701E-02  5760   0.731E-02    0.649E-02
DAV:   2    -0.306105418233E+04   -0.51440E-04   -0.96104E-04  6720   0.185E-02    0.109E-01
DAV:   3    -0.306105415853E+04    0.23800E-04   -0.35152E-05  6720   0.327E-03    0.818E-02
DAV:   4    -0.306105414624E+04    0.12289E-04   -0.26567E-05  6528   0.215E-03    0.388E-02
DAV:   5    -0.306105414241E+04    0.38321E-05   -0.22408E-05  6336   0.209E-03
  80 F= -.31022971E+04 E0= -.31022971E+04  d E =0.110302E-03  mag=     0.0000
       N       E                     dE             d eps       ncg     rms          rms(c)
DAV:   1    -0.306105449204E+04   -0.34580E-03   -0.50241E-02  5760   0.757E-02    0.613E-02
DAV:   2    -0.306105452321E+04   -0.31167E-04   -0.84824E-04  6528   0.181E-02    0.948E-02
DAV:   3    -0.306105450064E+04    0.22569E-04   -0.41121E-05  6528   0.341E-03    0.683E-02
DAV:   4    -0.306105449723E+04    0.34101E-05   -0.19987E-05  6336   0.207E-03
  81 F= -.31022971E+04 E0= -.31022971E+04  d E =-.766177E-04  mag=     0.0000
       N       E                     dE             d eps       ncg     rms          rms(c)
DAV:   1    -0.306105445852E+04    0.42113E-04   -0.50448E-02  5760   0.736E-02    0.518E-02
DAV:   2    -0.306105450615E+04   -0.47628E-04   -0.79944E-04  6528   0.162E-02    0.764E-02
DAV:   3    -0.306105448471E+04    0.21437E-04   -0.46181E-05  6336   0.354E-03    0.496E-02
DAV:   4    -0.306105448873E+04   -0.40198E-05   -0.30938E-05  6720   0.228E-03
  82 F= -.31022971E+04 E0= -.31022971E+04  d E =0.437672E-04  mag=     0.0000
       N       E                     dE             d eps       ncg     rms          rms(c)
DAV:   1    -0.306105432864E+04    0.15608E-03   -0.50360E-02  5952   0.722E-02    0.617E-02
DAV:   2    -0.306105438669E+04   -0.58049E-04   -0.90239E-04  6720   0.161E-02    0.676E-02
DAV:   3    -0.306105436341E+04    0.23278E-04   -0.10403E-04  6528   0.516E-03    0.325E-02
DAV:   4    -0.306105436839E+04   -0.49772E-05   -0.44649E-05  6720   0.305E-03
  83 F= -.31022972E+04 E0= -.31022972E+04  d E =-.131149E-03  mag=     0.0000
       N       E                     dE             d eps       ncg     rms          rms(c)
DAV:   1    -0.306105443416E+04   -0.70748E-04   -0.50875E-02  5952   0.590E-02    0.394E-02
DAV:   2    -0.306105447327E+04   -0.39107E-04   -0.59315E-04  6720   0.115E-02    0.454E-02
DAV:   3    -0.306105445891E+04    0.14354E-04   -0.86784E-05  6528   0.383E-03    0.243E-02
DAV:   4    -0.306105446064E+04   -0.17243E-05   -0.34950E-05  6336   0.224E-03
  84 F= -.31022971E+04 E0= -.31022971E+04  d E =0.122119E-03  mag=     0.0000
       N       E                     dE             d eps       ncg     rms          rms(c)
DAV:   1    -0.306105426305E+04    0.19586E-03   -0.56775E-02  5952   0.700E-02    0.107E-01
DAV:   2    -0.306105432204E+04   -0.58986E-04   -0.32555E-03  7296   0.269E-02    0.175E-01
DAV:   3    -0.306105417946E+04    0.14258E-03   -0.30626E-04  6720   0.792E-03    0.103E-01
DAV:   4    -0.306105419531E+04   -0.15856E-04   -0.14686E-04  6528   0.457E-03    0.821E-02
DAV:   5    -0.306105416190E+04    0.33417E-04   -0.25263E-04  6912   0.673E-03    0.308E-02
DAV:   6    -0.306105415312E+04    0.87759E-05   -0.67693E-05  6720   0.324E-03
  85 F= -.31022971E+04 E0= -.31022971E+04  d E =0.575149E-04  mag=     0.0000
       N       E                     dE             d eps       ncg     rms          rms(c)
DAV:   1    -0.306105436651E+04   -0.20461E-03   -0.51965E-02  5952   0.646E-02    0.663E-02
DAV:   2    -0.306105440888E+04   -0.42369E-04   -0.13745E-03  6720   0.171E-02    0.954E-02
DAV:   3    -0.306105436356E+04    0.45317E-04   -0.13114E-04  6528   0.542E-03    0.493E-02
DAV:   4    -0.306105436646E+04   -0.29011E-05   -0.36383E-05  6144   0.263E-03
  86 F= -.31022972E+04 E0= -.31022972E+04  d E =-.184960E-03  mag=     0.0000
       N       E                     dE             d eps       ncg     rms          rms(c)
DAV:   1    -0.306105440359E+04   -0.40026E-04   -0.52582E-02  5568   0.583E-02    0.599E-02
DAV:   2    -0.306105444059E+04   -0.37002E-04   -0.10657E-03  6528   0.139E-02    0.763E-02
DAV:   3    -0.306105441633E+04    0.24261E-04   -0.97438E-05  6336   0.411E-03    0.441E-02
DAV:   4    -0.306105442918E+04   -0.12850E-04   -0.93319E-05  6528   0.385E-03    0.460E-02
DAV:   5    -0.306105441319E+04    0.15995E-04   -0.12351E-04  6720   0.408E-03    0.191E-02
DAV:   6    -0.306105440960E+04    0.35870E-05   -0.17328E-05  5952   0.176E-03
  87 F= -.31022971E+04 E0= -.31022971E+04  d E =0.112149E-03  mag=     0.0000
       N       E                     dE             d eps       ncg     rms          rms(c)
DAV:   1    -0.306105430103E+04    0.11215E-03   -0.51790E-02  5568   0.554E-02    0.297E-02
DAV:   2    -0.306105432434E+04   -0.23310E-04   -0.35375E-04  6528   0.893E-03    0.323E-02
DAV:   3    -0.306105432146E+04    0.28836E-05   -0.94053E-06  6144   0.167E-03
  88 F= -.31022970E+04 E0= -.31022970E+04  d E =0.109201E-03  mag=     0.0000
