 Entering Gaussian System, Link 0=/swlocal/g16/c01/avx//g16/g16
 Input=Mo_CO6.gjf
 Output=Mo_CO6.log
 Initial command:
 /swlocal/g16/c01/avx//g16/l1.exe "/scratch/sghorai/g16/PBS_917544/Gau-25405.inp" -scrdir="/scratch/sghorai/g16/PBS_917544/"
 Entering Link 1 = /swlocal/g16/c01/avx//g16/l1.exe PID=     25407.
  
 Copyright (c) 1988-2019, Gaussian, Inc.  All Rights Reserved.
  
 This is part of the Gaussian(R) 16 program.  It is based on
 the Gaussian(R) 09 system (copyright 2009, Gaussian, Inc.),
 the Gaussian(R) 03 system (copyright 2003, Gaussian, Inc.),
 the Gaussian(R) 98 system (copyright 1998, Gaussian, Inc.),
 the Gaussian(R) 94 system (copyright 1995, Gaussian, Inc.),
 the Gaussian 92(TM) system (copyright 1992, Gaussian, Inc.),
 the Gaussian 90(TM) system (copyright 1990, Gaussian, Inc.),
 the Gaussian 88(TM) system (copyright 1988, Gaussian, Inc.),
 the Gaussian 86(TM) system (copyright 1986, Carnegie Mellon
 University), and the Gaussian 82(TM) system (copyright 1983,
 Carnegie Mellon University). Gaussian is a federally registered
 trademark of Gaussian, Inc.
  
 This software contains proprietary and confidential information,
 including trade secrets, belonging to Gaussian, Inc.
  
 This software is provided under written license and may be
 used, copied, transmitted, or stored only in accord with that
 written license.
  
 The following legend is applicable only to US Government
 contracts under FAR:
  
                    RESTRICTED RIGHTS LEGEND
  
 Use, reproduction and disclosure by the US Government is
 subject to restrictions as set forth in subparagraphs (a)
 and (c) of the Commercial Computer Software - Restricted
 Rights clause in FAR 52.227-19.
  
 Gaussian, Inc.
 340 Quinnipiac St., Bldg. 40, Wallingford CT 06492
  
  
 ---------------------------------------------------------------
 Warning -- This program may not be used in any manner that
 competes with the business of Gaussian, Inc. or will provide
 assistance to any competitor of Gaussian, Inc.  The licensee
 of this program is prohibited from giving any competitor of
 Gaussian, Inc. access to this program.  By using this program,
 the user acknowledges that Gaussian, Inc. is engaged in the
 business of creating and licensing software in the field of
 computational chemistry and represents and warrants to the
 licensee that it is not a competitor of Gaussian, Inc. and that
 it will not use this program in any manner prohibited above.
 ---------------------------------------------------------------
  

 Cite this work as:
 Gaussian 16, Revision C.01,
 M. J. Frisch, G. W. Trucks, H. B. Schlegel, G. E. Scuseria, 
 M. A. Robb, J. R. Cheeseman, G. Scalmani, V. Barone, 
 G. A. Petersson, H. Nakatsuji, X. Li, M. Caricato, A. V. Marenich, 
 J. Bloino, B. G. Janesko, R. Gomperts, B. Mennucci, H. P. Hratchian, 
 J. V. Ortiz, A. F. Izmaylov, J. L. Sonnenberg, D. Williams-Young, 
 F. Ding, F. Lipparini, F. Egidi, J. Goings, B. Peng, A. Petrone, 
 T. Henderson, D. Ranasinghe, V. G. Zakrzewski, J. Gao, N. Rega, 
 G. Zheng, W. Liang, M. Hada, M. Ehara, K. Toyota, R. Fukuda, 
 J. Hasegawa, M. Ishida, T. Nakajima, Y. Honda, O. Kitao, H. Nakai, 
 T. Vreven, K. Throssell, J. A. Montgomery, Jr., J. E. Peralta, 
 F. Ogliaro, M. J. Bearpark, J. J. Heyd, E. N. Brothers, K. N. Kudin, 
 V. N. Staroverov, T. A. Keith, R. Kobayashi, J. Normand, 
 K. Raghavachari, A. P. Rendell, J. C. Burant, S. S. Iyengar, 
 J. Tomasi, M. Cossi, J. M. Millam, M. Klene, C. Adamo, R. Cammi, 
 J. W. Ochterski, R. L. Martin, K. Morokuma, O. Farkas, 
 J. B. Foresman, and D. J. Fox, Gaussian, Inc., Wallingford CT, 2019.
 
 ******************************************
 Gaussian 16:  ES64L-G16RevC.01  3-Jul-2019
                 3-Sep-2021 
 ******************************************
 %nprocshared=8
 Will use up to    8 processors via shared memory.
 %mem=1GB
 %chk=Mo_CO6.chk
 --------------------------------
 # opt freq b3lyp/gen pseudo=read
 --------------------------------
 1/18=20,19=15,26=3,38=1/1,3;
 2/9=110,12=2,17=6,18=5,40=1/2;
 3/5=7,11=2,16=1,17=8,25=1,30=1,71=1,74=-5/1,2,3;
 4//1;
 5/5=2,38=5/2;
 6/7=2,8=2,9=2,10=2,28=1/1;
 7//1,2,3,16;
 1/18=20,19=15,26=3/3(2);
 2/9=110/2;
 99//99;
 2/9=110/2;
 3/5=7,6=1,11=2,16=1,17=8,25=1,30=1,71=1,74=-5,82=7/1,2,3;
 4/5=5,16=3,69=1/1;
 5/5=2,38=5/2;
 7//1,2,3,16;
 1/18=20,19=15,26=3/3(-5);
 2/9=110/2;
 6/7=2,8=2,9=2,10=2,19=2,28=1/1;
 99/9=1/99;
 -------------------
 Title Card Required
 -------------------
 Symbolic Z-matrix:
 Charge =  0 Multiplicity = 1
 Mo                    0.        0.        0. 
 C                     0.        0.        1.729 
 C                     0.       -1.729     0. 
 C                     1.729     0.        0. 
 C                    -1.729     0.        0. 
 C                     0.        1.729     0. 
 C                     0.        0.       -1.729 
 O                     2.8444    0.        0. 
 O                     0.       -2.8444    0. 
 O                     0.        0.       -2.8444 
 O                    -2.8444    0.        0. 
 O                     0.        2.8444    0. 
 O                     0.        0.        2.8444 
 

 GradGradGradGradGradGradGradGradGradGradGradGradGradGradGradGradGradGrad
 Berny optimization.
 Initialization pass.
                           ----------------------------
                           !    Initial Parameters    !
                           ! (Angstroms and Degrees)  !
 --------------------------                            --------------------------
 ! Name  Definition              Value          Derivative Info.                !
 --------------------------------------------------------------------------------
 ! R1    R(1,2)                  1.729          estimate D2E/DX2                !
 ! R2    R(1,3)                  1.729          estimate D2E/DX2                !
 ! R3    R(1,4)                  1.729          estimate D2E/DX2                !
 ! R4    R(1,5)                  1.729          estimate D2E/DX2                !
 ! R5    R(1,6)                  1.729          estimate D2E/DX2                !
 ! R6    R(1,7)                  1.729          estimate D2E/DX2                !
 ! R7    R(2,13)                 1.1154         estimate D2E/DX2                !
 ! R8    R(3,9)                  1.1154         estimate D2E/DX2                !
 ! R9    R(4,8)                  1.1154         estimate D2E/DX2                !
 ! R10   R(5,11)                 1.1154         estimate D2E/DX2                !
 ! R11   R(6,12)                 1.1154         estimate D2E/DX2                !
 ! R12   R(7,10)                 1.1154         estimate D2E/DX2                !
 ! A1    A(2,1,3)               90.0            estimate D2E/DX2                !
 ! A2    A(2,1,4)               90.0            estimate D2E/DX2                !
 ! A3    A(2,1,5)               90.0            estimate D2E/DX2                !
 ! A4    A(2,1,6)               90.0            estimate D2E/DX2                !
 ! A5    A(3,1,4)               90.0            estimate D2E/DX2                !
 ! A6    A(3,1,5)               90.0            estimate D2E/DX2                !
 ! A7    A(3,1,7)               90.0            estimate D2E/DX2                !
 ! A8    A(4,1,6)               90.0            estimate D2E/DX2                !
 ! A9    A(4,1,7)               90.0            estimate D2E/DX2                !
 ! A10   A(5,1,6)               90.0            estimate D2E/DX2                !
 ! A11   A(5,1,7)               90.0            estimate D2E/DX2                !
 ! A12   A(6,1,7)               90.0            estimate D2E/DX2                !
 ! A13   L(2,1,7,3,-1)         180.0            estimate D2E/DX2                !
 ! A14   L(3,1,6,2,-1)         180.0            estimate D2E/DX2                !
 ! A15   L(4,1,5,2,-1)         180.0            estimate D2E/DX2                !
 ! A16   L(1,2,13,8,-1)        180.0            estimate D2E/DX2                !
 ! A17   L(1,3,9,8,-1)         180.0            estimate D2E/DX2                !
 ! A18   L(1,4,8,9,-1)         180.0            estimate D2E/DX2                !
 ! A19   L(1,5,11,9,-1)        180.0            estimate D2E/DX2                !
 ! A20   L(1,6,12,8,-1)        180.0            estimate D2E/DX2                !
 ! A21   L(1,7,10,8,-1)        180.0            estimate D2E/DX2                !
 ! A22   L(2,1,7,3,-2)         180.0            estimate D2E/DX2                !
 ! A23   L(3,1,6,2,-2)         180.0            estimate D2E/DX2                !
 ! A24   L(4,1,5,2,-2)         180.0            estimate D2E/DX2                !
 ! A25   L(1,2,13,8,-2)        180.0            estimate D2E/DX2                !
 ! A26   L(1,3,9,8,-2)         180.0            estimate D2E/DX2                !
 ! A27   L(1,4,8,9,-2)         180.0            estimate D2E/DX2                !
 ! A28   L(1,5,11,9,-2)        180.0            estimate D2E/DX2                !
 ! A29   L(1,6,12,8,-2)        180.0            estimate D2E/DX2                !
 ! A30   L(1,7,10,8,-2)        180.0            estimate D2E/DX2                !
 ! D1    D(2,1,4,3)             90.0            estimate D2E/DX2                !
 ! D2    D(2,1,5,3)            -90.0            estimate D2E/DX2                !
 ! D3    D(2,1,6,4)             90.0            estimate D2E/DX2                !
 ! D4    D(2,1,6,5)            -90.0            estimate D2E/DX2                !
 ! D5    D(3,1,7,4)            -90.0            estimate D2E/DX2                !
 ! D6    D(3,1,7,5)             90.0            estimate D2E/DX2                !
 ! D7    D(4,1,7,6)            -90.0            estimate D2E/DX2                !
 ! D8    D(5,1,7,6)             90.0            estimate D2E/DX2                !
 --------------------------------------------------------------------------------
 Trust Radius=3.00D-01 FncErr=1.00D-07 GrdErr=1.00D-06 EigMax=2.50D+02 EigMin=1.00D-04
 Number of steps in this run=     60 maximum allowed number of steps=    100.
 GradGradGradGradGradGradGradGradGradGradGradGradGradGradGradGradGradGrad

                          Input orientation:                          
 ---------------------------------------------------------------------
 Center     Atomic      Atomic             Coordinates (Angstroms)
 Number     Number       Type             X           Y           Z
 ---------------------------------------------------------------------
      1         42           0        0.000000    0.000000    0.000000
      2          6           0        0.000000    0.000000    1.729000
      3          6           0        0.000000   -1.729000    0.000000
      4          6           0        1.729000    0.000000    0.000000
      5          6           0       -1.729000    0.000000    0.000000
      6          6           0        0.000000    1.729000    0.000000
      7          6           0        0.000000    0.000000   -1.729000
      8          8           0        2.844400    0.000000    0.000000
      9          8           0        0.000000   -2.844400    0.000000
     10          8           0        0.000000    0.000000   -2.844400
     11          8           0       -2.844400    0.000000    0.000000
     12          8           0        0.000000    2.844400    0.000000
     13          8           0        0.000000    0.000000    2.844400
 ---------------------------------------------------------------------
                    Distance matrix (angstroms):
                    1          2          3          4          5
     1  Mo   0.000000
     2  C    1.729000   0.000000
     3  C    1.729000   2.445175   0.000000
     4  C    1.729000   2.445175   2.445175   0.000000
     5  C    1.729000   2.445175   2.445175   3.458000   0.000000
     6  C    1.729000   2.445175   3.458000   2.445175   2.445175
     7  C    1.729000   3.458000   2.445175   2.445175   2.445175
     8  O    2.844400   3.328672   3.328672   1.115400   4.573401
     9  O    2.844400   3.328672   1.115400   3.328672   3.328672
    10  O    2.844400   4.573401   3.328672   3.328672   3.328672
    11  O    2.844400   3.328672   3.328672   4.573401   1.115400
    12  O    2.844400   3.328672   4.573401   3.328672   3.328672
    13  O    2.844400   1.115400   3.328672   3.328672   3.328672
                    6          7          8          9         10
     6  C    0.000000
     7  C    2.445175   0.000000
     8  O    3.328672   3.328672   0.000000
     9  O    4.573401   3.328672   4.022590   0.000000
    10  O    3.328672   1.115400   4.022590   4.022590   0.000000
    11  O    3.328672   3.328672   5.688801   4.022590   4.022590
    12  O    1.115400   3.328672   4.022590   5.688801   4.022590
    13  O    3.328672   4.573401   4.022590   4.022590   5.688801
                   11         12         13
    11  O    0.000000
    12  O    4.022590   0.000000
    13  O    4.022590   4.022590   0.000000
 Stoichiometry    C6MoO6
 Framework group  OH[O(Mo),3C4(OC.CO)]
 Deg. of freedom     2
 Full point group                 OH      NOp  48
 Largest Abelian subgroup         D2H     NOp   8
 Largest concise Abelian subgroup D2H     NOp   8
                         Standard orientation:                         
 ---------------------------------------------------------------------
 Center     Atomic      Atomic             Coordinates (Angstroms)
 Number     Number       Type             X           Y           Z
 ---------------------------------------------------------------------
      1         42           0        0.000000    0.000000    0.000000
      2          6           0       -0.000000    0.000000    1.729000
      3          6           0       -0.000000    1.729000   -0.000000
      4          6           0       -1.729000    0.000000   -0.000000
      5          6           0        1.729000    0.000000    0.000000
      6          6           0       -0.000000   -1.729000    0.000000
      7          6           0       -0.000000   -0.000000   -1.729000
      8          8           0       -2.844400   -0.000000    0.000000
      9          8           0        0.000000    2.844400   -0.000000
     10          8           0        0.000000   -0.000000   -2.844400
     11          8           0        2.844400   -0.000000    0.000000
     12          8           0       -0.000000   -2.844400   -0.000000
     13          8           0       -0.000000   -0.000000    2.844400
 ---------------------------------------------------------------------
 Rotational constants (GHZ):           0.7644194           0.7644194           0.7644194
 General basis read from cards:  (5D, 7F)
 ======================================================================================================
                                       Pseudopotential Parameters
 ======================================================================================================
  Center     Atomic      Valence      Angular      Power
  Number     Number     Electrons     Momentum     of R      Exponent        Coefficient   SO-Coeffient
 ======================================================================================================
    1         42           14
                                      F and up 
                                                     0      537.9667807       -0.04694920    0.00000000
                                                     1      147.8982938      -20.20800840    0.00000000
                                                     2       45.7358898     -106.21163020    0.00000000
                                                     2       13.2911467      -41.81073680    0.00000000
                                                     2        4.7059961       -4.20541030    0.00000000
                                      S - F
                                                     0      110.2991760        2.80637170    0.00000000
                                                     1       23.2014645       44.51620120    0.00000000
                                                     2        5.3530131       82.77852270    0.00000000
                                      P - F
                                                     0       63.2901397        4.94208760    0.00000000
                                                     1       23.3315302       25.86049760    0.00000000
                                                     2       24.6759423      132.47087420    0.00000000
                                                     2        4.6493040       57.31497940    0.00000000
                                      D - F
                                                     0      104.4839977        3.00545910    0.00000000
                                                     1       66.2307245       26.36378510    0.00000000
                                                     2       39.1283176      183.38491990    0.00000000
                                                     2       13.1164437       98.44530680    0.00000000
                                                     2        3.6280263       22.49013770    0.00000000
    2          6
                                   No pseudopotential on this center.
    3          6
                                   No pseudopotential on this center.
    4          6
                                   No pseudopotential on this center.
    5          6
                                   No pseudopotential on this center.
    6          6
                                   No pseudopotential on this center.
    7          6
                                   No pseudopotential on this center.
    8          8
                                   No pseudopotential on this center.
    9          8
                                   No pseudopotential on this center.
   10          8
                                   No pseudopotential on this center.
   11          8
                                   No pseudopotential on this center.
   12          8
                                   No pseudopotential on this center.
   13          8
                                   No pseudopotential on this center.
 ======================================================================================================
 There are    57 symmetry adapted cartesian basis functions of AG  symmetry.
 There are    16 symmetry adapted cartesian basis functions of B1G symmetry.
 There are    16 symmetry adapted cartesian basis functions of B2G symmetry.
 There are    16 symmetry adapted cartesian basis functions of B3G symmetry.
 There are     6 symmetry adapted cartesian basis functions of AU  symmetry.
 There are    31 symmetry adapted cartesian basis functions of B1U symmetry.
 There are    31 symmetry adapted cartesian basis functions of B2U symmetry.
 There are    31 symmetry adapted cartesian basis functions of B3U symmetry.
 There are    49 symmetry adapted basis functions of AG  symmetry.
 There are    16 symmetry adapted basis functions of B1G symmetry.
 There are    16 symmetry adapted basis functions of B2G symmetry.
 There are    16 symmetry adapted basis functions of B3G symmetry.
 There are     6 symmetry adapted basis functions of AU  symmetry.
 There are    29 symmetry adapted basis functions of B1U symmetry.
 There are    29 symmetry adapted basis functions of B2U symmetry.
 There are    29 symmetry adapted basis functions of B3U symmetry.
   190 basis functions,   385 primitive gaussians,   204 cartesian basis functions
    49 alpha electrons       49 beta electrons
       nuclear repulsion energy       861.2837322586 Hartrees.
 NAtoms=   13 NActive=   13 NUniq=    3 SFac= 4.00D+00 NAtFMM=   60 NAOKFM=F Big=F
 Integral buffers will be    131072 words long.
 Raffenetti 2 integral format.
 Two-electron integral symmetry is turned on.
 One-electron integrals computed using PRISM.
  48 Symmetry operations used in ECPInt.
 ECPInt:  NShTT=    1596 NPrTT=   11404 LenC2=    1528 LenP2D=    7270.
 LDataN:  DoStor=T MaxTD1= 5 Len=  102
 NBasis=   190 RedAO= T EigKep=  1.27D-03  NBF=    49    16    16    16     6    29    29    29
 NBsUse=   190 1.00D-06 EigRej= -1.00D+00 NBFU=    49    16    16    16     6    29    29    29
 Defaulting to unpruned grid for atomic number  42.
 ExpMin= 2.47D-02 ExpMax= 5.48D+03 ExpMxC= 8.25D+02 IAcc=3 IRadAn=         5 AccDes= 0.00D+00
 Harris functional with IExCor=  402 and IRadAn=       5 diagonalized for initial guess.
 HarFok:  IExCor=  402 AccDes= 0.00D+00 IRadAn=         5 IDoV= 1 UseB2=F ITyADJ=14
 ICtDFT=  3500011 ScaDFX=  1.000000  1.000000  1.000000  1.000000
 Defaulting to unpruned grid for atomic number  42.
 FoFCou: FMM=F IPFlag=           0 FMFlag=      100000 FMFlg1=           0
         NFxFlg=           0 DoJE=T BraDBF=F KetDBF=T FulRan=T
         wScrn=  0.000000 ICntrl=       500 IOpCl=  0 I1Cent=   200000004 NGrid=           0
         NMat0=    1 NMatS0=      1 NMatT0=    0 NMatD0=    1 NMtDS0=    0 NMtDT0=    0
 Petite list used in FoFCou.
 Initial guess orbital symmetries:
       Occupied  (EG) (EG) (T1U) (T1U) (T1U) (A1G) (EG) (EG) (T1U)
                 (T1U) (T1U) (A1G) (A1G) (T1U) (T1U) (T1U) (A1G)
                 (T1U) (T1U) (T1U) (EG) (EG) (A1G) (EG) (EG) (T1U)
                 (T1U) (T1U) (EG) (EG) (T2G) (T2G) (T2G) (A1G)
                 (T1U) (T1U) (T1U) (T2U) (T2U) (T2U) (T1G) (T1G)
                 (T1G) (T1U) (T1U) (T1U) (T2G) (T2G) (T2G)
       Virtual   (T1U) (T1U) (T1U) (T2U) (T2U) (T2U) (T1G) (T1G)
                 (T1G) (T1U) (T1U) (T1U) (A1G) (T2G) (T2G) (T2G)
                 (EG) (EG) (T1U) (T1U) (T1U) (EG) (EG) (A1G) (T2G)
                 (T2G) (T2G) (T1U) (T1U) (T1U) (EG) (EG) (T2U)
                 (T2U) (T2U) (T2G) (T2G) (T2G) (T1U) (T1U) (T1U)
                 (T1G) (T1G) (T1G) (EG) (EG) (A1G) (A1G) (T1U)
                 (T1U) (T1U) (T1U) (T1U) (T1U) (EG) (EG) (A1G)
                 (T2U) (T2U) (T2U) (T2G) (T2G) (T2G) (T1U) (T1U)
                 (T1U) (T1U) (T1U) (T1U) (T1G) (T1G) (T1G) (A2U)
                 (EU) (EU) (T2U) (T2U) (T2U) (A2G) (T2G) (T2G)
                 (T2G) (T2U) (T2U) (T2U) (EG) (EG) (A1G) (T1G)
                 (T1G) (T1G) (EG) (EG) (T1U) (T1U) (T1U) (T2G)
                 (T2G) (T2G) (A2U) (EU) (EU) (A2G) (T1U) (T1U)
                 (T1U) (T2U) (T2U) (T2U) (EG) (EG) (T2G) (T2G)
                 (T2G) (EG) (EG) (T1U) (T1U) (T1U) (A1G) (T2U)
                 (T2U) (T2U) (T1G) (T1G) (T1G) (T1U) (T1U) (T1U)
                 (T2G) (T2G) (T2G) (EG) (EG) (EG) (EG) (T1U) (T1U)
                 (T1U) (A1G) (A1G)
 The electronic state of the initial guess is 1-A1G.
 Requested convergence on RMS density matrix=1.00D-08 within 128 cycles.
 Requested convergence on MAX density matrix=1.00D-06.
 Requested convergence on             energy=1.00D-06.
 No special actions if energy rises.
 Defaulting to unpruned grid for atomic number  42.
 Defaulting to unpruned grid for atomic number  42.
 Defaulting to unpruned grid for atomic number  42.
 Defaulting to unpruned grid for atomic number  42.
 Defaulting to unpruned grid for atomic number  42.
 Defaulting to unpruned grid for atomic number  42.
 Defaulting to unpruned grid for atomic number  42.
 Defaulting to unpruned grid for atomic number  42.
 SCF Done:  E(RB3LYP) =  -747.174191107     A.U. after    9 cycles
            NFock=  9  Conv=0.36D-08     -V/T= 2.0637

 **********************************************************************

            Population analysis using the SCF Density.

 **********************************************************************

 Orbital symmetries:
       Occupied  (EG) (EG) (T1U) (T1U) (T1U) (A1G) (EG) (EG) (T1U)
                 (T1U) (T1U) (A1G) (A1G) (T1U) (T1U) (T1U) (A1G)
                 (T1U) (T1U) (T1U) (EG) (EG) (A1G) (EG) (EG) (T1U)
                 (T1U) (T1U) (T2G) (T2G) (T2G) (EG) (EG) (A1G)
                 (T1U) (T1U) (T1U) (T2U) (T2U) (T2U) (T1G) (T1G)
                 (T1G) (T1U) (T1U) (T1U) (T2G) (T2G) (T2G)
       Virtual   (T1U) (T1U) (T1U) (T2U) (T2U) (T2U) (T1U) (T1U)
                 (T1U) (A1G) (T1G) (T1G) (T1G) (T2G) (T2G) (T2G)
                 (EG) (EG) (T1U) (T1U) (T1U) (EG) (EG) (A1G) (T2G)
                 (T2G) (T2G) (T1U) (T1U) (T1U) (EG) (EG) (T2U)
                 (T2U) (T2U) (T2G) (T2G) (T2G) (T1U) (T1U) (T1U)
                 (T1G) (T1G) (T1G) (A1G) (EG) (EG) (A1G) (T1U)
                 (T1U) (T1U) (T1U) (T1U) (T1U) (EG) (EG) (A1G)
                 (T2U) (T2U) (T2U) (T2G) (T2G) (T2G) (T1U) (T1U)
                 (T1U) (T1U) (T1U) (T1U) (T1G) (T1G) (T1G) (A2U)
                 (EU) (EU) (T2U) (T2U) (T2U) (A2G) (T2G) (T2G)
                 (T2G) (T2U) (T2U) (T2U) (EG) (EG) (A1G) (T1G)
                 (T1G) (T1G) (EG) (EG) (T1U) (T1U) (T1U) (T2G)
                 (T2G) (T2G) (A2U) (EU) (EU) (A2G) (T2U) (T2U)
                 (T2U) (T1U) (T1U) (T1U) (EG) (EG) (T2G) (T2G)
                 (T2G) (EG) (EG) (T1U) (T1U) (T1U) (A1G) (T2U)
                 (T2U) (T2U) (T1G) (T1G) (T1G) (T1U) (T1U) (T1U)
                 (T2G) (T2G) (T2G) (EG) (EG) (EG) (EG) (T1U) (T1U)
                 (T1U) (A1G) (A1G)
 The electronic state is 1-A1G.
 Alpha  occ. eigenvalues --  -19.23897 -19.23897 -19.23894 -19.23894 -19.23894
 Alpha  occ. eigenvalues --  -19.23888 -10.30785 -10.30785 -10.30778 -10.30778
 Alpha  occ. eigenvalues --  -10.30778 -10.30778  -2.46879  -1.53142  -1.53142
 Alpha  occ. eigenvalues --   -1.53142  -1.17078  -1.16813  -1.16813  -1.16813
 Alpha  occ. eigenvalues --   -1.16786  -1.16786  -0.63738  -0.62441  -0.62441
 Alpha  occ. eigenvalues --   -0.56766  -0.56766  -0.56766  -0.53118  -0.53118
 Alpha  occ. eigenvalues --   -0.53118  -0.52983  -0.52983  -0.51150  -0.49292
 Alpha  occ. eigenvalues --   -0.49292  -0.49292  -0.47951  -0.47951  -0.47951
 Alpha  occ. eigenvalues --   -0.46731  -0.46731  -0.46731  -0.37280  -0.37280
 Alpha  occ. eigenvalues --   -0.37280  -0.30811  -0.30811  -0.30811
 Alpha virt. eigenvalues --   -0.05631  -0.05631  -0.05631  -0.03582  -0.03582
 Alpha virt. eigenvalues --   -0.03582   0.02449   0.02449   0.02449   0.02929
 Alpha virt. eigenvalues --    0.04149   0.04149   0.04149   0.11078   0.11078
 Alpha virt. eigenvalues --    0.11078   0.15882   0.15882   0.26232   0.26232
 Alpha virt. eigenvalues --    0.26232   0.35497   0.35497   0.43408   0.46658
 Alpha virt. eigenvalues --    0.46658   0.46658   0.50819   0.50819   0.50819
 Alpha virt. eigenvalues --    0.51679   0.51679   0.57811   0.57811   0.57811
 Alpha virt. eigenvalues --    0.60150   0.60150   0.60150   0.72466   0.72466
 Alpha virt. eigenvalues --    0.72466   0.73700   0.73700   0.73700   0.76506
 Alpha virt. eigenvalues --    0.78636   0.78636   0.81568   0.84385   0.84385
 Alpha virt. eigenvalues --    0.84385   0.88536   0.88536   0.88536   0.92831
 Alpha virt. eigenvalues --    0.92831   0.94987   0.97243   0.97243   0.97243
 Alpha virt. eigenvalues --    1.01191   1.01191   1.01191   1.08183   1.08183
 Alpha virt. eigenvalues --    1.08183   1.11939   1.11939   1.11939   1.14515
 Alpha virt. eigenvalues --    1.14515   1.14515   1.42201   1.45310   1.45310
 Alpha virt. eigenvalues --    1.46679   1.46679   1.46679   1.47806   1.50927
 Alpha virt. eigenvalues --    1.50927   1.50927   1.55047   1.55047   1.55047
 Alpha virt. eigenvalues --    1.56665   1.56665   1.59528   1.62712   1.62712
 Alpha virt. eigenvalues --    1.62712   1.65649   1.65649   1.73322   1.73322
 Alpha virt. eigenvalues --    1.73322   1.74807   1.74807   1.74807   1.91153
 Alpha virt. eigenvalues --    1.93995   1.93995   1.96896   1.98101   1.98101
 Alpha virt. eigenvalues --    1.98101   1.98319   1.98319   1.98319   1.98737
 Alpha virt. eigenvalues --    1.98737   2.04861   2.04861   2.04861   2.24011
 Alpha virt. eigenvalues --    2.24011   2.46794   2.46794   2.46794   2.49134
 Alpha virt. eigenvalues --    2.56743   2.56743   2.56743   2.61621   2.61621
 Alpha virt. eigenvalues --    2.61621   2.64375   2.64375   2.64375   2.67319
 Alpha virt. eigenvalues --    2.67319   2.67319   2.83292   2.83292   3.09510
 Alpha virt. eigenvalues --    3.09510   3.09637   3.09637   3.09637   3.11117
 Alpha virt. eigenvalues --   31.26970
          Condensed to atoms (all electrons):
               1          2          3          4          5          6
     1  Mo  14.461999   0.060006   0.060006   0.060006   0.060006   0.060006
     2  C    0.060006   4.970257   0.013361   0.013361   0.013361   0.013361
     3  C    0.060006   0.013361   4.970257   0.013361   0.013361  -0.032438
     4  C    0.060006   0.013361   0.013361   4.970257  -0.032438   0.013361
     5  C    0.060006   0.013361   0.013361  -0.032438   4.970257   0.013361
     6  C    0.060006   0.013361  -0.032438   0.013361   0.013361   4.970257
     7  C    0.060006  -0.032438   0.013361   0.013361   0.013361   0.013361
     8  O    0.005168  -0.004254  -0.004254   0.588371   0.000274  -0.004254
     9  O    0.005168  -0.004254   0.588371  -0.004254  -0.004254   0.000274
    10  O    0.005168   0.000274  -0.004254  -0.004254  -0.004254  -0.004254
    11  O    0.005168  -0.004254  -0.004254   0.000274   0.588371  -0.004254
    12  O    0.005168  -0.004254   0.000274  -0.004254  -0.004254   0.588371
    13  O    0.005168   0.588371  -0.004254  -0.004254  -0.004254  -0.004254
               7          8          9         10         11         12
     1  Mo   0.060006   0.005168   0.005168   0.005168   0.005168   0.005168
     2  C   -0.032438  -0.004254  -0.004254   0.000274  -0.004254  -0.004254
     3  C    0.013361  -0.004254   0.588371  -0.004254  -0.004254   0.000274
     4  C    0.013361   0.588371  -0.004254  -0.004254   0.000274  -0.004254
     5  C    0.013361   0.000274  -0.004254  -0.004254   0.588371  -0.004254
     6  C    0.013361  -0.004254   0.000274  -0.004254  -0.004254   0.588371
     7  C    4.970257  -0.004254  -0.004254   0.588371  -0.004254  -0.004254
     8  O   -0.004254   7.657339   0.000197   0.000197  -0.000000   0.000197
     9  O   -0.004254   0.000197   7.657339   0.000197   0.000197  -0.000000
    10  O    0.588371   0.000197   0.000197   7.657339   0.000197   0.000197
    11  O   -0.004254  -0.000000   0.000197   0.000197   7.657339   0.000197
    12  O   -0.004254   0.000197  -0.000000   0.000197   0.000197   7.657339
    13  O    0.000274   0.000197   0.000197  -0.000000   0.000197   0.000197
              13
     1  Mo   0.005168
     2  C    0.588371
     3  C   -0.004254
     4  C   -0.004254
     5  C   -0.004254
     6  C   -0.004254
     7  C    0.000274
     8  O    0.000197
     9  O    0.000197
    10  O   -0.000000
    11  O    0.000197
    12  O    0.000197
    13  O    7.657339
 Mulliken charges:
               1
     1  Mo  -0.853039
     2  C    0.377100
     3  C    0.377100
     4  C    0.377100
     5  C    0.377100
     6  C    0.377100
     7  C    0.377100
     8  O   -0.234927
     9  O   -0.234927
    10  O   -0.234927
    11  O   -0.234927
    12  O   -0.234927
    13  O   -0.234927
 Sum of Mulliken charges =  -0.00000
 Mulliken charges with hydrogens summed into heavy atoms:
               1
     1  Mo  -0.853039
     2  C    0.377100
     3  C    0.377100
     4  C    0.377100
     5  C    0.377100
     6  C    0.377100
     7  C    0.377100
     8  O   -0.234927
     9  O   -0.234927
    10  O   -0.234927
    11  O   -0.234927
    12  O   -0.234927
    13  O   -0.234927
 Electronic spatial extent (au):  <R**2>=           1967.3869
 Charge=             -0.0000 electrons
 Dipole moment (field-independent basis, Debye):
    X=             -0.0000    Y=              0.0000    Z=             -0.0000  Tot=              0.0000
 Quadrupole moment (field-independent basis, Debye-Ang):
   XX=            -87.9869   YY=            -87.9869   ZZ=            -87.9869
   XY=             -0.0000   XZ=              0.0000   YZ=             -0.0000
 Traceless Quadrupole moment (field-independent basis, Debye-Ang):
   XX=              0.0000   YY=              0.0000   ZZ=             -0.0000
   XY=             -0.0000   XZ=              0.0000   YZ=             -0.0000
 Octapole moment (field-independent basis, Debye-Ang**2):
  XXX=              0.0000  YYY=              0.0000  ZZZ=             -0.0000  XYY=             -0.0000
  XXY=              0.0000  XXZ=             -0.0000  XZZ=             -0.0000  YZZ=             -0.0000
  YYZ=              0.0000  XYZ=              0.0000
 Hexadecapole moment (field-independent basis, Debye-Ang**3):
 XXXX=           -852.4573 YYYY=           -852.4573 ZZZZ=           -852.4573 XXXY=             -0.0000
 XXXZ=              0.0000 YYYX=             -0.0000 YYYZ=             -0.0000 ZZZX=              0.0000
 ZZZY=              0.0000 XXYY=           -245.4358 XXZZ=           -245.4358 YYZZ=           -245.4358
 XXYZ=              0.0000 YYXZ=              0.0000 ZZXY=             -0.0000
 N-N= 8.612837322586D+02 E-N=-3.456721473038D+03  KE= 7.024082247050D+02
 Symmetry AG   KE= 3.171389626384D+02
 Symmetry B1G  KE= 1.150553719718D+01
 Symmetry B2G  KE= 1.150553719718D+01
 Symmetry B3G  KE= 1.150553719718D+01
 Symmetry AU   KE=-1.339110872342D-21
 Symmetry B1U  KE= 1.169175501584D+02
 Symmetry B2U  KE= 1.169175501584D+02
 Symmetry B3U  KE= 1.169175501584D+02
  48 Symmetry operations used in ECPInt.
 ECPInt:  NShTT=    1596 NPrTT=   11404 LenC2=    1528 LenP2D=    7270.
 LDataN:  DoStor=T MaxTD1= 6 Len=  172
 Calling FoFJK, ICntrl=      2127 FMM=F ISym2X=1 I1Cent= 0 IOpClX= 0 NMat=1 NMatS=1 NMatT=0.
 Defaulting to unpruned grid for atomic number  42.
 Defaulting to unpruned grid for atomic number  42.
 Defaulting to unpruned grid for atomic number  42.
 Defaulting to unpruned grid for atomic number  42.
 Defaulting to unpruned grid for atomic number  42.
 Defaulting to unpruned grid for atomic number  42.
 Defaulting to unpruned grid for atomic number  42.
 Defaulting to unpruned grid for atomic number  42.
 ***** Axes restored to original set *****
 -------------------------------------------------------------------
 Center     Atomic                   Forces (Hartrees/Bohr)
 Number     Number              X              Y              Z
 -------------------------------------------------------------------
      1       42           0.000000000    0.000000000   -0.000000000
      2        6           0.000000000    0.000000000    0.179000479
      3        6          -0.000000000   -0.179000479    0.000000000
      4        6           0.179000479    0.000000000    0.000000000
      5        6          -0.179000479   -0.000000000    0.000000000
      6        6           0.000000000    0.179000479   -0.000000000
      7        6          -0.000000000   -0.000000000   -0.179000479
      8        8           0.104221627   -0.000000000   -0.000000000
      9        8           0.000000000   -0.104221627   -0.000000000
     10        8           0.000000000    0.000000000   -0.104221627
     11        8          -0.104221627    0.000000000   -0.000000000
     12        8          -0.000000000    0.104221627    0.000000000
     13        8          -0.000000000   -0.000000000    0.104221627
 -------------------------------------------------------------------
 Cartesian Forces:  Max     0.179000479 RMS     0.081243527

 GradGradGradGradGradGradGradGradGradGradGradGradGradGradGradGradGradGrad
 Berny optimization.
 FormGI is forming the generalized inverse of G from B-inverse, IUseBI=4.
 Internal  Forces:  Max     0.283222106 RMS     0.104542953
 Search for a local minimum.
 Step number   1 out of a maximum of   60
 All quantities printed in internal units (Hartrees-Bohrs-Radians)
 Mixed Optimization -- RFO/linear search
 Second derivative matrix not updated -- first step.
 ITU=  0
     Eigenvalues ---    0.05456   0.05456   0.05456   0.05456   0.05456
     Eigenvalues ---    0.05456   0.05456   0.05456   0.05456   0.05456
     Eigenvalues ---    0.05456   0.05456   0.09082   0.09736   0.09736
     Eigenvalues ---    0.10561   0.11262   0.13552   0.13552   0.19813
     Eigenvalues ---    0.20883   0.41362   0.41362   0.41362   0.41362
     Eigenvalues ---    0.41362   0.41362   1.62060   1.62060   1.62060
     Eigenvalues ---    1.62060   1.62060   1.62060
 RFO step:  Lambda=-5.36673869D-01 EMin= 5.45648761D-02
 Linear search not attempted -- first point.
 Maximum step size (   0.300) exceeded in Quadratic search.
    -- Step size scaled by   0.406
 Iteration  1 RMS(Cart)=  0.06420695 RMS(Int)=  0.00000000
 Iteration  2 RMS(Cart)=  0.00000000 RMS(Int)=  0.00000000
 ClnCor:  largest displacement from symmetrization is 3.09D-13 for atom    11.
 Variable       Old X    -DE/DX   Delta X   Delta X   Delta X     New X
                                 (Linear)    (Quad)   (Total)
    R1        3.26734   0.28322   0.00000   0.12090   0.12090   3.38823
    R2        3.26734   0.28322   0.00000   0.12090   0.12090   3.38823
    R3        3.26734   0.28322   0.00000   0.12090   0.12090   3.38823
    R4        3.26734   0.28322   0.00000   0.12090   0.12090   3.38823
    R5        3.26734   0.28322   0.00000   0.12090   0.12090   3.38823
    R6        3.26734   0.28322   0.00000   0.12090   0.12090   3.38823
    R7        2.10780   0.10422   0.00000   0.01960   0.01960   2.12740
    R8        2.10780   0.10422   0.00000   0.01960   0.01960   2.12740
    R9        2.10780   0.10422   0.00000   0.01960   0.01960   2.12740
   R10        2.10780   0.10422   0.00000   0.01960   0.01960   2.12740
   R11        2.10780   0.10422   0.00000   0.01960   0.01960   2.12740
   R12        2.10780   0.10422   0.00000   0.01960   0.01960   2.12740
    A1        1.57080  -0.00000   0.00000  -0.00000   0.00000   1.57080
    A2        1.57080   0.00000   0.00000   0.00000   0.00000   1.57080
    A3        1.57080  -0.00000   0.00000  -0.00000   0.00000   1.57080
    A4        1.57080   0.00000   0.00000   0.00000   0.00000   1.57080
    A5        1.57080   0.00000   0.00000   0.00000   0.00000   1.57080
    A6        1.57080  -0.00000   0.00000  -0.00000   0.00000   1.57080
    A7        1.57080  -0.00000   0.00000  -0.00000   0.00000   1.57080
    A8        1.57080   0.00000   0.00000   0.00000   0.00000   1.57080
    A9        1.57080   0.00000   0.00000   0.00000   0.00000   1.57080
   A10        1.57080  -0.00000   0.00000  -0.00000   0.00000   1.57080
   A11        1.57080  -0.00000   0.00000  -0.00000   0.00000   1.57080
   A12        1.57080   0.00000   0.00000   0.00000   0.00000   1.57080
   A13        3.14159  -0.00000   0.00000  -0.00000   0.00000   3.14159
   A14        3.14159   0.00000   0.00000   0.00000   0.00000   3.14159
   A15        3.14159   0.00000   0.00000   0.00000   0.00000   3.14159
   A16        3.14159   0.00000   0.00000   0.00000   0.00000   3.14159
   A17        3.14159   0.00000   0.00000   0.00000   0.00000   3.14159
   A18        3.14159  -0.00000   0.00000  -0.00000   0.00000   3.14159
   A19        3.14159  -0.00000   0.00000  -0.00000   0.00000   3.14159
   A20        3.14159   0.00000   0.00000   0.00000   0.00000   3.14159
   A21        3.14159   0.00000   0.00000   0.00000   0.00000   3.14159
   A22        3.14159  -0.00000   0.00000  -0.00000   0.00000   3.14159
   A23        3.14159   0.00000   0.00000   0.00000   0.00000   3.14159
   A24        3.14159   0.00000   0.00000   0.00000   0.00000   3.14159
   A25        3.14159   0.00000   0.00000   0.00000   0.00000   3.14159
   A26        3.14159   0.00000   0.00000   0.00000   0.00000   3.14159
   A27        3.14159  -0.00000   0.00000  -0.00000   0.00000   3.14159
   A28        3.14159   0.00000   0.00000   0.00000   0.00000   3.14159
   A29        3.14159   0.00000   0.00000   0.00000   0.00000   3.14159
   A30        3.14159  -0.00000   0.00000  -0.00000   0.00000   3.14159
    D1        1.57080  -0.00000   0.00000  -0.00000   0.00000   1.57080
    D2       -1.57080   0.00000   0.00000   0.00000   0.00000  -1.57080
    D3        1.57080   0.00000   0.00000   0.00000   0.00000   1.57080
    D4       -1.57080   0.00000   0.00000   0.00000   0.00000  -1.57080
    D5       -1.57080  -0.00000   0.00000  -0.00000   0.00000  -1.57080
    D6        1.57080  -0.00000   0.00000  -0.00000   0.00000   1.57080
    D7       -1.57080  -0.00000   0.00000  -0.00000   0.00000  -1.57080
    D8        1.57080  -0.00000   0.00000  -0.00000   0.00000   1.57080
         Item               Value     Threshold  Converged?
 Maximum Force            0.283222     0.000450     NO 
 RMS     Force            0.104543     0.000300     NO 
 Maximum Displacement     0.140494     0.001800     NO 
 RMS     Displacement     0.064207     0.001200     NO 
 Predicted change in Energy=-1.976945D-01
 GradGradGradGradGradGradGradGradGradGradGradGradGradGradGradGradGradGrad

                          Input orientation:                          
 ---------------------------------------------------------------------
 Center     Atomic      Atomic             Coordinates (Angstroms)
 Number     Number       Type             X           Y           Z
 ---------------------------------------------------------------------
      1         42           0       -0.000000    0.000000   -0.000000
      2          6           0       -0.000000   -0.000000    1.792976
      3          6           0       -0.000000   -1.792976   -0.000000
      4          6           0        1.792976   -0.000000   -0.000000
      5          6           0       -1.792976   -0.000000   -0.000000
      6          6           0       -0.000000    1.792976    0.000000
      7          6           0        0.000000    0.000000   -1.792976
      8          8           0        2.918747   -0.000000    0.000000
      9          8           0       -0.000000   -2.918747   -0.000000
     10          8           0       -0.000000    0.000000   -2.918747
     11          8           0       -2.918747   -0.000000    0.000000
     12          8           0        0.000000    2.918747    0.000000
     13          8           0       -0.000000   -0.000000    2.918747
 ---------------------------------------------------------------------
                    Distance matrix (angstroms):
                    1          2          3          4          5
     1  Mo   0.000000
     2  C    1.792976   0.000000
     3  C    1.792976   2.535651   0.000000
     4  C    1.792976   2.535651   2.535651   0.000000
     5  C    1.792976   2.535651   2.535651   3.585951   0.000000
     6  C    1.792976   2.535651   3.585951   2.535651   2.535651
     7  C    1.792976   3.585951   2.535651   2.535651   2.535651
     8  O    2.918747   3.425470   3.425470   1.125771   4.711722
     9  O    2.918747   3.425470   1.125771   3.425470   3.425470
    10  O    2.918747   4.711722   3.425470   3.425470   3.425470
    11  O    2.918747   3.425470   3.425470   4.711722   1.125771
    12  O    2.918747   3.425470   4.711722   3.425470   3.425470
    13  O    2.918747   1.125771   3.425470   3.425470   3.425470
                    6          7          8          9         10
     6  C    0.000000
     7  C    2.535651   0.000000
     8  O    3.425470   3.425470   0.000000
     9  O    4.711722   3.425470   4.127731   0.000000
    10  O    3.425470   1.125771   4.127731   4.127731   0.000000
    11  O    3.425470   3.425470   5.837493   4.127731   4.127731
    12  O    1.125771   3.425470   4.127731   5.837493   4.127731
    13  O    3.425470   4.711722   4.127731   4.127731   5.837493
                   11         12         13
    11  O    0.000000
    12  O    4.127731   0.000000
    13  O    4.127731   4.127731   0.000000
 Stoichiometry    C6MoO6
 Framework group  OH[O(Mo),3C4(OC.CO)]
 Deg. of freedom     2
 Full point group                 OH      NOp  48
 Largest Abelian subgroup         D2H     NOp   8
 Largest concise Abelian subgroup D2H     NOp   8
                         Standard orientation:                         
 ---------------------------------------------------------------------
 Center     Atomic      Atomic             Coordinates (Angstroms)
 Number     Number       Type             X           Y           Z
 ---------------------------------------------------------------------
      1         42           0        0.000000    0.000000    0.000000
      2          6           0        0.000000    0.000000    1.792976
      3          6           0       -0.000000    1.792976   -0.000000
      4          6           0       -1.792976   -0.000000   -0.000000
      5          6           0        1.792976   -0.000000    0.000000
      6          6           0        0.000000   -1.792976    0.000000
      7          6           0        0.000000   -0.000000   -1.792976
      8          8           0       -2.918747    0.000000   -0.000000
      9          8           0        0.000000    2.918747   -0.000000
     10          8           0        0.000000    0.000000   -2.918747
     11          8           0        2.918747    0.000000    0.000000
     12          8           0       -0.000000   -2.918747   -0.000000
     13          8           0       -0.000000    0.000000    2.918747
 ---------------------------------------------------------------------
 Rotational constants (GHZ):           0.7226343           0.7226343           0.7226343
 Basis read from rwf:  (5D, 7F)
 Pseudo-potential data read from rwf file.
 There are    57 symmetry adapted cartesian basis functions of AG  symmetry.
 There are    16 symmetry adapted cartesian basis functions of B1G symmetry.
 There are    16 symmetry adapted cartesian basis functions of B2G symmetry.
 There are    16 symmetry adapted cartesian basis functions of B3G symmetry.
 There are     6 symmetry adapted cartesian basis functions of AU  symmetry.
 There are    31 symmetry adapted cartesian basis functions of B1U symmetry.
 There are    31 symmetry adapted cartesian basis functions of B2U symmetry.
 There are    31 symmetry adapted cartesian basis functions of B3U symmetry.
 There are    49 symmetry adapted basis functions of AG  symmetry.
 There are    16 symmetry adapted basis functions of B1G symmetry.
 There are    16 symmetry adapted basis functions of B2G symmetry.
 There are    16 symmetry adapted basis functions of B3G symmetry.
 There are     6 symmetry adapted basis functions of AU  symmetry.
 There are    29 symmetry adapted basis functions of B1U symmetry.
 There are    29 symmetry adapted basis functions of B2U symmetry.
 There are    29 symmetry adapted basis functions of B3U symmetry.
   190 basis functions,   385 primitive gaussians,   204 cartesian basis functions
    49 alpha electrons       49 beta electrons
       nuclear repulsion energy       838.2290509975 Hartrees.
 NAtoms=   13 NActive=   13 NUniq=    3 SFac= 4.00D+00 NAtFMM=   60 NAOKFM=F Big=F
 Integral buffers will be    131072 words long.
 Raffenetti 2 integral format.
 Two-electron integral symmetry is turned on.
 One-electron integrals computed using PRISM.
  48 Symmetry operations used in ECPInt.
 ECPInt:  NShTT=    1596 NPrTT=   11404 LenC2=    1522 LenP2D=    7198.
 LDataN:  DoStor=T MaxTD1= 5 Len=  102
 NBasis=   190 RedAO= T EigKep=  1.47D-03  NBF=    49    16    16    16     6    29    29    29
 NBsUse=   190 1.00D-06 EigRej= -1.00D+00 NBFU=    49    16    16    16     6    29    29    29
 Defaulting to unpruned grid for atomic number  42.
 Initial guess from the checkpoint file:  "Mo_CO6.chk"
 B after Tr=    -0.000000    0.000000    0.000000
         Rot=    1.000000    0.000000   -0.000000    0.000000 Ang=   0.00 deg.
 Initial guess orbital symmetries:
       Occupied  (EG) (EG) (T1U) (T1U) (T1U) (A1G) (EG) (EG) (T1U)
                 (T1U) (T1U) (A1G) (A1G) (T1U) (T1U) (T1U) (A1G)
                 (T1U) (T1U) (T1U) (EG) (EG) (A1G) (EG) (EG) (T1U)
                 (T1U) (T1U) (T2G) (T2G) (T2G) (EG) (EG) (A1G)
                 (T1U) (T1U) (T1U) (T2U) (T2U) (T2U) (T1G) (T1G)
                 (T1G) (T1U) (T1U) (T1U) (T2G) (T2G) (T2G)
       Virtual   (T1U) (T1U) (T1U) (T2U) (T2U) (T2U) (T1U) (T1U)
                 (T1U) (A1G) (T1G) (T1G) (T1G) (T2G) (T2G) (T2G)
                 (EG) (EG) (T1U) (T1U) (T1U) (EG) (EG) (A1G) (T2G)
                 (T2G) (T2G) (T1U) (T1U) (T1U) (EG) (EG) (T2U)
                 (T2U) (T2U) (T2G) (T2G) (T2G) (T1U) (T1U) (T1U)
                 (T1G) (T1G) (T1G) (A1G) (EG) (EG) (A1G) (T1U)
                 (T1U) (T1U) (T1U) (T1U) (T1U) (EG) (EG) (A1G)
                 (T2U) (T2U) (T2U) (T2G) (T2G) (T2G) (T1U) (T1U)
                 (T1U) (T1U) (T1U) (T1U) (T1G) (T1G) (T1G) (A2U)
                 (EU) (EU) (T2U) (T2U) (T2U) (A2G) (T2G) (T2G)
                 (T2G) (T2U) (T2U) (T2U) (EG) (EG) (A1G) (T1G)
                 (T1G) (T1G) (EG) (EG) (T1U) (T1U) (T1U) (T2G)
                 (T2G) (T2G) (A2U) (EU) (EU) (A2G) (T2U) (T2U)
                 (T2U) (T1U) (T1U) (T1U) (EG) (EG) (T2G) (T2G)
                 (T2G) (EG) (EG) (T1U) (T1U) (T1U) (A1G) (T2U)
                 (T2U) (T2U) (T1G) (T1G) (T1G) (T1U) (T1U) (T1U)
                 (T2G) (T2G) (T2G) (EG) (EG) (EG) (EG) (T1U) (T1U)
                 (T1U) (A1G) (A1G)
 ExpMin= 2.47D-02 ExpMax= 5.48D+03 ExpMxC= 8.25D+02 IAcc=3 IRadAn=         5 AccDes= 0.00D+00
 Harris functional with IExCor=  402 and IRadAn=       5 diagonalized for initial guess.
 HarFok:  IExCor=  402 AccDes= 0.00D+00 IRadAn=         5 IDoV= 1 UseB2=F ITyADJ=14
 ICtDFT=  3500011 ScaDFX=  1.000000  1.000000  1.000000  1.000000
 Defaulting to unpruned grid for atomic number  42.
 FoFCou: FMM=F IPFlag=           0 FMFlag=      100000 FMFlg1=           0
         NFxFlg=           0 DoJE=T BraDBF=F KetDBF=T FulRan=T
         wScrn=  0.000000 ICntrl=       500 IOpCl=  0 I1Cent=   200000004 NGrid=           0
         NMat0=    1 NMatS0=      1 NMatT0=    0 NMatD0=    1 NMtDS0=    0 NMtDT0=    0
 Petite list used in FoFCou.
 Requested convergence on RMS density matrix=1.00D-08 within 128 cycles.
 Requested convergence on MAX density matrix=1.00D-06.
 Requested convergence on             energy=1.00D-06.
 No special actions if energy rises.
 Defaulting to unpruned grid for atomic number  42.
 Defaulting to unpruned grid for atomic number  42.
 Defaulting to unpruned grid for atomic number  42.
 Defaulting to unpruned grid for atomic number  42.
 Defaulting to unpruned grid for atomic number  42.
 Defaulting to unpruned grid for atomic number  42.
 Defaulting to unpruned grid for atomic number  42.
 Defaulting to unpruned grid for atomic number  42.
 SCF Done:  E(RB3LYP) =  -747.358440499     A.U. after   10 cycles
            NFock= 10  Conv=0.88D-09     -V/T= 2.0660
  48 Symmetry operations used in ECPInt.
 ECPInt:  NShTT=    1596 NPrTT=   11404 LenC2=    1522 LenP2D=    7198.
 LDataN:  DoStor=T MaxTD1= 6 Len=  172
 Calling FoFJK, ICntrl=      2127 FMM=F ISym2X=1 I1Cent= 0 IOpClX= 0 NMat=1 NMatS=1 NMatT=0.
 Defaulting to unpruned grid for atomic number  42.
 Defaulting to unpruned grid for atomic number  42.
 Defaulting to unpruned grid for atomic number  42.
 Defaulting to unpruned grid for atomic number  42.
 Defaulting to unpruned grid for atomic number  42.
 Defaulting to unpruned grid for atomic number  42.
 Defaulting to unpruned grid for atomic number  42.
 Defaulting to unpruned grid for atomic number  42.
 ***** Axes restored to original set *****
 -------------------------------------------------------------------
 Center     Atomic                   Forces (Hartrees/Bohr)
 Number     Number              X              Y              Z
 -------------------------------------------------------------------
      1       42           0.000000000   -0.000000000    0.000000000
      2        6           0.000000000    0.000000000    0.128104654
      3        6          -0.000000000   -0.128104654    0.000000000
      4        6           0.128104654   -0.000000000    0.000000000
      5        6          -0.128104654    0.000000000    0.000000000
      6        6           0.000000000    0.128104654   -0.000000000
      7        6          -0.000000000   -0.000000000   -0.128104654
      8        8           0.071310601    0.000000000   -0.000000000
      9        8           0.000000000   -0.071310601   -0.000000000
     10        8           0.000000000    0.000000000   -0.071310601
     11        8          -0.071310601    0.000000000   -0.000000000
     12        8          -0.000000000    0.071310601    0.000000000
     13        8          -0.000000000    0.000000000    0.071310601
 -------------------------------------------------------------------
 Cartesian Forces:  Max     0.128104654 RMS     0.057507196

 GradGradGradGradGradGradGradGradGradGradGradGradGradGradGradGradGradGrad
 Berny optimization.
 Using GEDIIS/GDIIS optimizer.
 FormGI is forming the generalized inverse of G from B-inverse, IUseBI=4.
 Internal  Forces:  Max     0.199415255 RMS     0.073363461
 Search for a local minimum.
 Step number   2 out of a maximum of   60
 All quantities printed in internal units (Hartrees-Bohrs-Radians)
 Mixed Optimization -- RFO/linear search
 Update second derivatives using D2CorX and points    1    2
 DE= -1.84D-01 DEPred=-1.98D-01 R= 9.32D-01
 TightC=F SS=  1.41D+00  RLast= 3.00D-01 DXNew= 5.0454D-01 9.0000D-01
 Trust test= 9.32D-01 RLast= 3.00D-01 DXMaxT set to 5.05D-01
 ITU=  1  0
 Use linear search instead of GDIIS.
 Linear search step of   0.600 exceeds DXMaxT=   0.505 but not scaled.
 Quartic linear search produced a step of  2.00000.
 Iteration  1 RMS(Cart)=  0.10800783 RMS(Int)=  0.01447746
 Iteration  2 RMS(Cart)=  0.02047423 RMS(Int)=  0.00000000
 Iteration  3 RMS(Cart)=  0.00000000 RMS(Int)=  0.00000000
 ClnCor:  largest displacement from symmetrization is 3.98D-15 for atom    10.
 Variable       Old X    -DE/DX   Delta X   Delta X   Delta X     New X
                                 (Linear)    (Quad)   (Total)
    R1        3.38823   0.19942   0.24179   0.00000   0.24179   3.63003
    R2        3.38823   0.19942   0.24179   0.00000   0.24179   3.63003
    R3        3.38823   0.19942   0.24179   0.00000   0.24179   3.63003
    R4        3.38823   0.19942   0.24179   0.00000   0.24179   3.63003
    R5        3.38823   0.19942   0.24179   0.00000   0.24179   3.63003
    R6        3.38823   0.19942   0.24179   0.00000   0.24179   3.63003
    R7        2.12740   0.07131   0.03919   0.00000   0.03919   2.16659
    R8        2.12740   0.07131   0.03919   0.00000   0.03919   2.16659
    R9        2.12740   0.07131   0.03919   0.00000   0.03919   2.16659
   R10        2.12740   0.07131   0.03919   0.00000   0.03919   2.16659
   R11        2.12740   0.07131   0.03919   0.00000   0.03919   2.16659
   R12        2.12740   0.07131   0.03919   0.00000   0.03919   2.16659
    A1        1.57080  -0.00000   0.00000   0.00000   0.00000   1.57080
    A2        1.57080  -0.00000   0.00000   0.00000   0.00000   1.57080
    A3        1.57080  -0.00000   0.00000   0.00000   0.00000   1.57080
    A4        1.57080  -0.00000   0.00000   0.00000   0.00000   1.57080
    A5        1.57080  -0.00000   0.00000   0.00000   0.00000   1.57080
    A6        1.57080   0.00000   0.00000   0.00000   0.00000   1.57080
    A7        1.57080   0.00000   0.00000   0.00000   0.00000   1.57080
    A8        1.57080  -0.00000   0.00000   0.00000   0.00000   1.57080
    A9        1.57080   0.00000   0.00000   0.00000   0.00000   1.57080
   A10        1.57080   0.00000   0.00000   0.00000   0.00000   1.57080
   A11        1.57080   0.00000   0.00000   0.00000   0.00000   1.57080
   A12        1.57080   0.00000   0.00000   0.00000   0.00000   1.57080
   A13        3.14159   0.00000   0.00000   0.00000   0.00000   3.14159
   A14        3.14159  -0.00000   0.00000   0.00000   0.00000   3.14159
   A15        3.14159  -0.00000   0.00000   0.00000   0.00000   3.14159
   A16        3.14159  -0.00000   0.00000   0.00000   0.00000   3.14159
   A17        3.14159  -0.00000   0.00000   0.00000   0.00000   3.14159
   A18        3.14159  -0.00000   0.00000   0.00000   0.00000   3.14159
   A19        3.14159  -0.00000   0.00000   0.00000   0.00000   3.14159
   A20        3.14159  -0.00000   0.00000   0.00000   0.00000   3.14159
   A21        3.14159  -0.00000   0.00000   0.00000   0.00000   3.14159
   A22        3.14159   0.00000   0.00000   0.00000   0.00000   3.14159
   A23        3.14159  -0.00000   0.00000   0.00000   0.00000   3.14159
   A24        3.14159   0.00000   0.00000   0.00000   0.00000   3.14159
   A25        3.14159   0.00000   0.00000   0.00000   0.00000   3.14159
   A26        3.14159  -0.00000   0.00000   0.00000   0.00000   3.14159
   A27        3.14159   0.00000   0.00000   0.00000   0.00000   3.14159
   A28        3.14159  -0.00000   0.00000   0.00000   0.00000   3.14159
   A29        3.14159   0.00000   0.00000   0.00000   0.00000   3.14159
   A30        3.14159   0.00000   0.00000   0.00000   0.00000   3.14159
    D1        1.57080  -0.00000   0.00000   0.00000   0.00000   1.57080
    D2       -1.57080   0.00000   0.00000   0.00000   0.00000  -1.57080
    D3        1.57080  -0.00000   0.00000   0.00000   0.00000   1.57080
    D4       -1.57080   0.00000   0.00000   0.00000   0.00000  -1.57080
    D5       -1.57080   0.00000   0.00000   0.00000   0.00000  -1.57080
    D6        1.57080   0.00000   0.00000   0.00000   0.00000   1.57080
    D7       -1.57080   0.00000   0.00000   0.00000   0.00000  -1.57080
    D8        1.57080   0.00000   0.00000   0.00000   0.00000   1.57080
         Item               Value     Threshold  Converged?
 Maximum Force            0.199415     0.000450     NO 
 RMS     Force            0.073363     0.000300     NO 
 Maximum Displacement     0.280988     0.001800     NO 
 RMS     Displacement     0.128414     0.001200     NO 
 Predicted change in Energy=-1.767501D-01
 GradGradGradGradGradGradGradGradGradGradGradGradGradGradGradGradGradGrad

                          Input orientation:                          
 ---------------------------------------------------------------------
 Center     Atomic      Atomic             Coordinates (Angstroms)
 Number     Number       Type             X           Y           Z
 ---------------------------------------------------------------------
      1         42           0       -0.000000    0.000000    0.000000
      2          6           0       -0.000000   -0.000000    1.920927
      3          6           0       -0.000000   -1.920927   -0.000000
      4          6           0        1.920927    0.000000    0.000000
      5          6           0       -1.920927    0.000000   -0.000000
      6          6           0       -0.000000    1.920927    0.000000
      7          6           0        0.000000    0.000000   -1.920927
      8          8           0        3.067439    0.000000    0.000000
      9          8           0       -0.000000   -3.067439   -0.000000
     10          8           0        0.000000    0.000000   -3.067439
     11          8           0       -3.067439    0.000000   -0.000000
     12          8           0        0.000000    3.067439    0.000000
     13          8           0       -0.000000   -0.000000    3.067439
 ---------------------------------------------------------------------
                    Distance matrix (angstroms):
                    1          2          3          4          5
     1  Mo   0.000000
     2  C    1.920927   0.000000
     3  C    1.920927   2.716601   0.000000
     4  C    1.920927   2.716601   2.716601   0.000000
     5  C    1.920927   2.716601   2.716601   3.841854   0.000000
     6  C    1.920927   2.716601   3.841854   2.716601   2.716601
     7  C    1.920927   3.841854   2.716601   2.716601   2.716601
     8  O    3.067439   3.619274   3.619274   1.146512   4.988366
     9  O    3.067439   3.619274   1.146512   3.619274   3.619274
    10  O    3.067439   4.988366   3.619274   3.619274   3.619274
    11  O    3.067439   3.619274   3.619274   4.988366   1.146512
    12  O    3.067439   3.619274   4.988366   3.619274   3.619274
    13  O    3.067439   1.146512   3.619274   3.619274   3.619274
                    6          7          8          9         10
     6  C    0.000000
     7  C    2.716601   0.000000
     8  O    3.619274   3.619274   0.000000
     9  O    4.988366   3.619274   4.338013   0.000000
    10  O    3.619274   1.146512   4.338013   4.338013   0.000000
    11  O    3.619274   3.619274   6.134877   4.338013   4.338013
    12  O    1.146512   3.619274   4.338013   6.134877   4.338013
    13  O    3.619274   4.988366   4.338013   4.338013   6.134877
                   11         12         13
    11  O    0.000000
    12  O    4.338013   0.000000
    13  O    4.338013   4.338013   0.000000
 Stoichiometry    C6MoO6
 Framework group  OH[O(Mo),3C4(OC.CO)]
 Deg. of freedom     2
 Full point group                 OH      NOp  48
 Largest Abelian subgroup         D2H     NOp   8
 Largest concise Abelian subgroup D2H     NOp   8
                         Standard orientation:                         
 ---------------------------------------------------------------------
 Center     Atomic      Atomic             Coordinates (Angstroms)
 Number     Number       Type             X           Y           Z
 ---------------------------------------------------------------------
      1         42           0        0.000000    0.000000    0.000000
      2          6           0       -0.000000    0.000000    1.920927
      3          6           0       -0.000000    1.920927   -0.000000
      4          6           0       -1.920927    0.000000   -0.000000
      5          6           0        1.920927    0.000000    0.000000
      6          6           0        0.000000   -1.920927    0.000000
      7          6           0       -0.000000   -0.000000   -1.920927
      8          8           0       -3.067439    0.000000   -0.000000
      9          8           0        0.000000    3.067439    0.000000
     10          8           0        0.000000   -0.000000   -3.067439
     11          8           0        3.067439    0.000000    0.000000
     12          8           0       -0.000000   -3.067439   -0.000000
     13          8           0       -0.000000   -0.000000    3.067439
 ---------------------------------------------------------------------
 Rotational constants (GHZ):           0.6486584           0.6486584           0.6486584
 Basis read from rwf:  (5D, 7F)
 Pseudo-potential data read from rwf file.
 There are    57 symmetry adapted cartesian basis functions of AG  symmetry.
 There are    16 symmetry adapted cartesian basis functions of B1G symmetry.
 There are    16 symmetry adapted cartesian basis functions of B2G symmetry.
 There are    16 symmetry adapted cartesian basis functions of B3G symmetry.
 There are     6 symmetry adapted cartesian basis functions of AU  symmetry.
 There are    31 symmetry adapted cartesian basis functions of B1U symmetry.
 There are    31 symmetry adapted cartesian basis functions of B2U symmetry.
 There are    31 symmetry adapted cartesian basis functions of B3U symmetry.
 There are    49 symmetry adapted basis functions of AG  symmetry.
 There are    16 symmetry adapted basis functions of B1G symmetry.
 There are    16 symmetry adapted basis functions of B2G symmetry.
 There are    16 symmetry adapted basis functions of B3G symmetry.
 There are     6 symmetry adapted basis functions of AU  symmetry.
 There are    29 symmetry adapted basis functions of B1U symmetry.
 There are    29 symmetry adapted basis functions of B2U symmetry.
 There are    29 symmetry adapted basis functions of B3U symmetry.
   190 basis functions,   385 primitive gaussians,   204 cartesian basis functions
    49 alpha electrons       49 beta electrons
       nuclear repulsion energy       795.9594142625 Hartrees.
 NAtoms=   13 NActive=   13 NUniq=    3 SFac= 4.00D+00 NAtFMM=   60 NAOKFM=F Big=F
 Integral buffers will be    131072 words long.
 Raffenetti 2 integral format.
 Two-electron integral symmetry is turned on.
 One-electron integrals computed using PRISM.
  48 Symmetry operations used in ECPInt.
 ECPInt:  NShTT=    1596 NPrTT=   11404 LenC2=    1486 LenP2D=    6958.
 LDataN:  DoStor=T MaxTD1= 5 Len=  102
 NBasis=   190 RedAO= T EigKep=  2.00D-03  NBF=    49    16    16    16     6    29    29    29
 NBsUse=   190 1.00D-06 EigRej= -1.00D+00 NBFU=    49    16    16    16     6    29    29    29
 Defaulting to unpruned grid for atomic number  42.
 Initial guess from the checkpoint file:  "Mo_CO6.chk"
 B after Tr=    -0.000000   -0.000000   -0.000000
         Rot=    1.000000   -0.000000    0.000000   -0.000000 Ang=   0.00 deg.
 Initial guess orbital symmetries:
       Occupied  (EG) (EG) (T1U) (T1U) (T1U) (A1G) (EG) (EG) (T1U)
                 (T1U) (T1U) (A1G) (A1G) (T1U) (T1U) (T1U) (A1G)
                 (T1U) (T1U) (T1U) (EG) (EG) (A1G) (EG) (EG) (T1U)
                 (T1U) (T1U) (EG) (EG) (T2G) (T2G) (T2G) (A1G)
                 (T1U) (T1U) (T1U) (T2U) (T2U) (T2U) (T1G) (T1G)
                 (T1G) (T1U) (T1U) (T1U) (T2G) (T2G) (T2G)
       Virtual   (T1U) (T1U) (T1U) (T2U) (T2U) (T2U) (T1U) (T1U)
                 (T1U) (A1G) (T1G) (T1G) (T1G) (T2G) (T2G) (T2G)
                 (EG) (EG) (T1U) (T1U) (T1U) (EG) (EG) (A1G) (T2G)
                 (T2G) (T2G) (T1U) (T1U) (T1U) (EG) (EG) (T2U)
                 (T2U) (T2U) (T2G) (T2G) (T2G) (T1U) (T1U) (T1U)
                 (A1G) (T1G) (T1G) (T1G) (EG) (EG) (A1G) (T1U)
                 (T1U) (T1U) (T1U) (T1U) (T1U) (EG) (EG) (A1G)
                 (T2U) (T2U) (T2U) (T2G) (T2G) (T2G) (T1U) (T1U)
                 (T1U) (T1U) (T1U) (T1U) (T1G) (T1G) (T1G) (A2U)
                 (EU) (EU) (A2G) (T2U) (T2U) (T2U) (T2G) (T2G)
                 (T2G) (T2U) (T2U) (T2U) (A1G) (EG) (EG) (T1G)
                 (T1G) (T1G) (EG) (EG) (T1U) (T1U) (T1U) (T2G)
                 (T2G) (T2G) (A2U) (EG) (EG) (EU) (EU) (A2G) (T1U)
                 (T1U) (T1U) (T2U) (T2U) (T2U) (T2G) (T2G) (T2G)
                 (EG) (EG) (T1U) (T1U) (T1U) (A1G) (T2U) (T2U)
                 (T2U) (T1G) (T1G) (T1G) (T1U) (T1U) (T1U) (T2G)
                 (T2G) (T2G) (EG) (EG) (EG) (EG) (T1U) (T1U) (T1U)
                 (A1G) (A1G)
 ExpMin= 2.47D-02 ExpMax= 5.48D+03 ExpMxC= 8.25D+02 IAcc=3 IRadAn=         5 AccDes= 0.00D+00
 Harris functional with IExCor=  402 and IRadAn=       5 diagonalized for initial guess.
 HarFok:  IExCor=  402 AccDes= 0.00D+00 IRadAn=         5 IDoV= 1 UseB2=F ITyADJ=14
 ICtDFT=  3500011 ScaDFX=  1.000000  1.000000  1.000000  1.000000
 Defaulting to unpruned grid for atomic number  42.
 FoFCou: FMM=F IPFlag=           0 FMFlag=      100000 FMFlg1=           0
         NFxFlg=           0 DoJE=T BraDBF=F KetDBF=T FulRan=T
         wScrn=  0.000000 ICntrl=       500 IOpCl=  0 I1Cent=   200000004 NGrid=           0
         NMat0=    1 NMatS0=      1 NMatT0=    0 NMatD0=    1 NMtDS0=    0 NMtDT0=    0
 Petite list used in FoFCou.
 Requested convergence on RMS density matrix=1.00D-08 within 128 cycles.
 Requested convergence on MAX density matrix=1.00D-06.
 Requested convergence on             energy=1.00D-06.
 No special actions if energy rises.
 Defaulting to unpruned grid for atomic number  42.
 Defaulting to unpruned grid for atomic number  42.
 Defaulting to unpruned grid for atomic number  42.
 Defaulting to unpruned grid for atomic number  42.
 Defaulting to unpruned grid for atomic number  42.
 Defaulting to unpruned grid for atomic number  42.
 Defaulting to unpruned grid for atomic number  42.
 Defaulting to unpruned grid for atomic number  42.
 SCF Done:  E(RB3LYP) =  -747.564009573     A.U. after   10 cycles
            NFock= 10  Conv=0.16D-08     -V/T= 2.0696
  48 Symmetry operations used in ECPInt.
 ECPInt:  NShTT=    1596 NPrTT=   11404 LenC2=    1486 LenP2D=    6958.
 LDataN:  DoStor=T MaxTD1= 6 Len=  172
 Calling FoFJK, ICntrl=      2127 FMM=F ISym2X=1 I1Cent= 0 IOpClX= 0 NMat=1 NMatS=1 NMatT=0.
 Defaulting to unpruned grid for atomic number  42.
 Defaulting to unpruned grid for atomic number  42.
 Defaulting to unpruned grid for atomic number  42.
 Defaulting to unpruned grid for atomic number  42.
 Defaulting to unpruned grid for atomic number  42.
 Defaulting to unpruned grid for atomic number  42.
 Defaulting to unpruned grid for atomic number  42.
 Defaulting to unpruned grid for atomic number  42.
 ***** Axes restored to original set *****
 -------------------------------------------------------------------
 Center     Atomic                   Forces (Hartrees/Bohr)
 Number     Number              X              Y              Z
 -------------------------------------------------------------------
      1       42           0.000000000    0.000000000   -0.000000000
      2        6           0.000000000    0.000000000    0.067558000
      3        6          -0.000000000   -0.067558000    0.000000000
      4        6           0.067558000    0.000000000    0.000000000
      5        6          -0.067558000    0.000000000    0.000000000
      6        6           0.000000000    0.067558000   -0.000000000
      7        6          -0.000000000   -0.000000000   -0.067558000
      8        8           0.012771928    0.000000000   -0.000000000
      9        8           0.000000000   -0.012771928   -0.000000000
     10        8           0.000000000    0.000000000   -0.012771928
     11        8          -0.012771928    0.000000000   -0.000000000
     12        8          -0.000000000    0.012771928    0.000000000
     13        8          -0.000000000    0.000000000    0.012771928
 -------------------------------------------------------------------
 Cartesian Forces:  Max     0.067558000 RMS     0.026967803

 GradGradGradGradGradGradGradGradGradGradGradGradGradGradGradGradGradGrad
 Berny optimization.
 Using GEDIIS/GDIIS optimizer.
 FormGI is forming the generalized inverse of G from B-inverse, IUseBI=4.
 Internal  Forces:  Max     0.080329928 RMS     0.028176628
 Search for a local minimum.
 Step number   3 out of a maximum of   60
 All quantities printed in internal units (Hartrees-Bohrs-Radians)
 Mixed Optimization -- RFO/linear search
 Update second derivatives using D2CorX and points    2    3
 ITU=  0  1  0
 Use linear search instead of GDIIS.
 Linear search step of   0.678 exceeds DXMaxT=   0.505 but not scaled.
 Quartic linear search produced a step of  1.13023.
 Iteration  1 RMS(Cart)=  0.10937022 RMS(Int)=  0.02538569
 Iteration  2 RMS(Cart)=  0.03590078 RMS(Int)=  0.00000000
 Iteration  3 RMS(Cart)=  0.00000000 RMS(Int)=  0.00000000
 ClnCor:  largest displacement from symmetrization is 1.01D-15 for atom    11.
 Variable       Old X    -DE/DX   Delta X   Delta X   Delta X     New X
                                 (Linear)    (Quad)   (Total)
    R1        3.63003   0.08033   0.27328   0.00000   0.27328   3.90331
    R2        3.63003   0.08033   0.27328   0.00000   0.27328   3.90331
    R3        3.63003   0.08033   0.27328   0.00000   0.27328   3.90331
    R4        3.63003   0.08033   0.27328   0.00000   0.27328   3.90331
    R5        3.63003   0.08033   0.27328   0.00000   0.27328   3.90331
    R6        3.63003   0.08033   0.27328   0.00000   0.27328   3.90331
    R7        2.16659   0.01277   0.04430   0.00000   0.04430   2.21089
    R8        2.16659   0.01277   0.04430   0.00000   0.04430   2.21089
    R9        2.16659   0.01277   0.04430   0.00000   0.04430   2.21089
   R10        2.16659   0.01277   0.04430   0.00000   0.04430   2.21089
   R11        2.16659   0.01277   0.04430   0.00000   0.04430   2.21089
   R12        2.16659   0.01277   0.04430   0.00000   0.04430   2.21089
    A1        1.57080   0.00000   0.00000   0.00000   0.00000   1.57080
    A2        1.57080   0.00000   0.00000   0.00000   0.00000   1.57080
    A3        1.57080   0.00000   0.00000   0.00000   0.00000   1.57080
    A4        1.57080   0.00000   0.00000   0.00000   0.00000   1.57080
    A5        1.57080   0.00000   0.00000   0.00000   0.00000   1.57080
    A6        1.57080   0.00000   0.00000   0.00000   0.00000   1.57080
    A7        1.57080  -0.00000   0.00000   0.00000   0.00000   1.57080
    A8        1.57080  -0.00000   0.00000   0.00000   0.00000   1.57080
    A9        1.57080  -0.00000   0.00000   0.00000   0.00000   1.57080
   A10        1.57080  -0.00000   0.00000   0.00000   0.00000   1.57080
   A11        1.57080  -0.00000   0.00000   0.00000   0.00000   1.57080
   A12        1.57080  -0.00000   0.00000   0.00000   0.00000   1.57080
   A13        3.14159   0.00000   0.00000   0.00000   0.00000   3.14159
   A14        3.14159   0.00000   0.00000   0.00000   0.00000   3.14159
   A15        3.14159   0.00000   0.00000   0.00000   0.00000   3.14159
   A16        3.14159   0.00000   0.00000   0.00000   0.00000   3.14159
   A17        3.14159  -0.00000   0.00000   0.00000   0.00000   3.14159
   A18        3.14159   0.00000   0.00000   0.00000   0.00000   3.14159
   A19        3.14159   0.00000   0.00000   0.00000   0.00000   3.14159
   A20        3.14159   0.00000   0.00000   0.00000   0.00000   3.14159
   A21        3.14159  -0.00000   0.00000   0.00000  -0.00000   3.14159
   A22        3.14159   0.00000   0.00000   0.00000   0.00000   3.14159
   A23        3.14159  -0.00000   0.00000   0.00000   0.00000   3.14159
   A24        3.14159  -0.00000   0.00000   0.00000   0.00000   3.14159
   A25        3.14159  -0.00000   0.00000   0.00000   0.00000   3.14159
   A26        3.14159   0.00000   0.00000   0.00000   0.00000   3.14159
   A27        3.14159  -0.00000   0.00000   0.00000   0.00000   3.14159
   A28        3.14159   0.00000   0.00000   0.00000   0.00000   3.14159
   A29        3.14159  -0.00000   0.00000   0.00000   0.00000   3.14159
   A30        3.14159   0.00000   0.00000   0.00000   0.00000   3.14159
    D1        1.57080   0.00000   0.00000   0.00000   0.00000   1.57080
    D2       -1.57080  -0.00000   0.00000   0.00000   0.00000  -1.57080
    D3        1.57080   0.00000   0.00000   0.00000   0.00000   1.57080
    D4       -1.57080  -0.00000   0.00000   0.00000   0.00000  -1.57080
    D5       -1.57080  -0.00000   0.00000   0.00000   0.00000  -1.57080
    D6        1.57080   0.00000   0.00000   0.00000   0.00000   1.57080
    D7       -1.57080   0.00000   0.00000   0.00000   0.00000  -1.57080
    D8        1.57080  -0.00000   0.00000   0.00000   0.00000   1.57080
         Item               Value     Threshold  Converged?
 Maximum Force            0.080330     0.000450     NO 
 RMS     Force            0.028177     0.000300     NO 
 Maximum Displacement     0.317581     0.001800     NO 
 RMS     Displacement     0.145138     0.001200     NO 
 Predicted change in Energy=-1.597182D-02
 GradGradGradGradGradGradGradGradGradGradGradGradGradGradGradGradGradGrad

                          Input orientation:                          
 ---------------------------------------------------------------------
 Center     Atomic      Atomic             Coordinates (Angstroms)
 Number     Number       Type             X           Y           Z
 ---------------------------------------------------------------------
      1         42           0       -0.000000    0.000000   -0.000000
      2          6           0       -0.000000   -0.000000    2.065542
      3          6           0       -0.000000   -2.065542   -0.000000
      4          6           0        2.065542    0.000000    0.000000
      5          6           0       -2.065542    0.000000   -0.000000
      6          6           0       -0.000000    2.065542    0.000000
      7          6           0        0.000000    0.000000   -2.065542
      8          8           0        3.235496    0.000000    0.000000
      9          8           0       -0.000000   -3.235496   -0.000000
     10          8           0        0.000000    0.000000   -3.235496
     11          8           0       -3.235496    0.000000   -0.000000
     12          8           0        0.000000    3.235496    0.000000
     13          8           0       -0.000000   -0.000000    3.235496
 ---------------------------------------------------------------------
                    Distance matrix (angstroms):
                    1          2          3          4          5
     1  Mo   0.000000
     2  C    2.065542   0.000000
     3  C    2.065542   2.921117   0.000000
     4  C    2.065542   2.921117   2.921117   0.000000
     5  C    2.065542   2.921117   2.921117   4.131083   0.000000
     6  C    2.065542   2.921117   4.131083   2.921117   2.921117
     7  C    2.065542   4.131083   2.921117   2.921117   2.921117
     8  O    3.235496   3.838606   3.838606   1.169954   5.301037
     9  O    3.235496   3.838606   1.169954   3.838606   3.838606
    10  O    3.235496   5.301037   3.838606   3.838606   3.838606
    11  O    3.235496   3.838606   3.838606   5.301037   1.169954
    12  O    3.235496   3.838606   5.301037   3.838606   3.838606
    13  O    3.235496   1.169954   3.838606   3.838606   3.838606
                    6          7          8          9         10
     6  C    0.000000
     7  C    2.921117   0.000000
     8  O    3.838606   3.838606   0.000000
     9  O    5.301037   3.838606   4.575682   0.000000
    10  O    3.838606   1.169954   4.575682   4.575682   0.000000
    11  O    3.838606   3.838606   6.470991   4.575682   4.575682
    12  O    1.169954   3.838606   4.575682   6.470991   4.575682
    13  O    3.838606   5.301037   4.575682   4.575682   6.470991
                   11         12         13
    11  O    0.000000
    12  O    4.575682   0.000000
    13  O    4.575682   4.575682   0.000000
 Stoichiometry    C6MoO6
 Framework group  OH[O(Mo),3C4(OC.CO)]
 Deg. of freedom     2
 Full point group                 OH      NOp  48
 Largest Abelian subgroup         D2H     NOp   8
 Largest concise Abelian subgroup D2H     NOp   8
                         Standard orientation:                         
 ---------------------------------------------------------------------
 Center     Atomic      Atomic             Coordinates (Angstroms)
 Number     Number       Type             X           Y           Z
 ---------------------------------------------------------------------
      1         42           0        0.000000    0.000000    0.000000
      2          6           0        0.000000   -0.000000    2.065542
      3          6           0       -0.000000    2.065542   -0.000000
      4          6           0       -2.065542   -0.000000   -0.000000
      5          6           0        2.065542   -0.000000    0.000000
      6          6           0        0.000000   -2.065542    0.000000
      7          6           0        0.000000   -0.000000   -2.065542
      8          8           0       -3.235496    0.000000    0.000000
      9          8           0        0.000000    3.235496    0.000000
     10          8           0        0.000000    0.000000   -3.235496
     11          8           0        3.235496    0.000000    0.000000
     12          8           0       -0.000000   -3.235496    0.000000
     13          8           0       -0.000000    0.000000    3.235496
 ---------------------------------------------------------------------
 Rotational constants (GHZ):           0.5778687           0.5778687           0.5778687
 Basis read from rwf:  (5D, 7F)
 Pseudo-potential data read from rwf file.
 There are    57 symmetry adapted cartesian basis functions of AG  symmetry.
 There are    16 symmetry adapted cartesian basis functions of B1G symmetry.
 There are    16 symmetry adapted cartesian basis functions of B2G symmetry.
 There are    16 symmetry adapted cartesian basis functions of B3G symmetry.
 There are     6 symmetry adapted cartesian basis functions of AU  symmetry.
 There are    31 symmetry adapted cartesian basis functions of B1U symmetry.
 There are    31 symmetry adapted cartesian basis functions of B2U symmetry.
 There are    31 symmetry adapted cartesian basis functions of B3U symmetry.
 There are    49 symmetry adapted basis functions of AG  symmetry.
 There are    16 symmetry adapted basis functions of B1G symmetry.
 There are    16 symmetry adapted basis functions of B2G symmetry.
[...]
      7        6           0.000000000    0.000000000    0.000030054
      8        8           0.000035706   -0.000000000    0.000000000
      9        8          -0.000000000   -0.000035706    0.000000000
     10        8          -0.000000000   -0.000000000   -0.000035706
     11        8          -0.000035706    0.000000000    0.000000000
     12        8           0.000000000    0.000035706   -0.000000000
     13        8           0.000000000   -0.000000000    0.000035706
 -------------------------------------------------------------------
 Cartesian Forces:  Max     0.000035706 RMS     0.000018306
 FormGI is forming the generalized inverse of G from B-inverse, IUseBI=4.

 GradGradGradGradGradGradGradGradGradGradGradGradGradGradGradGradGradGrad
 Berny optimization.
 Internal  Forces:  Max     0.000035706 RMS     0.000012523
 Search for a local minimum.
 Step number   1 out of a maximum of    2
 All quantities printed in internal units (Hartrees-Bohrs-Radians)
 Second derivative matrix not updated -- analytic derivatives used.
 ITU=  0
     Eigenvalues ---    0.02457   0.02779   0.02892   0.03478   0.03860
     Eigenvalues ---    0.03922   0.04143   0.04648   0.04929   0.05427
     Eigenvalues ---    0.06605   0.07679   0.08476   0.09276   0.09292
     Eigenvalues ---    0.09306   0.09863   0.10051   0.10834   0.12051
     Eigenvalues ---    0.13075   0.13642   0.14505   0.15648   0.15648
     Eigenvalues ---    0.15715   0.17732   1.15323   1.15323   1.15680
     Eigenvalues ---    1.15680   1.15680   1.21059
 Angle between quadratic step and forces=  35.50 degrees.
 Linear search not attempted -- first point.
 Iteration  1 RMS(Cart)=  0.00002225 RMS(Int)=  0.00000000
 Iteration  2 RMS(Cart)=  0.00000000 RMS(Int)=  0.00000000
 ClnCor:  largest displacement from symmetrization is 2.04D-12 for atom     8.
 Variable       Old X    -DE/DX   Delta X   Delta X   Delta X     New X
                                 (Linear)    (Quad)   (Total)
    R1        3.92945   0.00001   0.00000   0.00003   0.00003   3.92948
    R2        3.92945   0.00001   0.00000   0.00003   0.00003   3.92948
    R3        3.92945   0.00001   0.00000   0.00003   0.00003   3.92948
    R4        3.92945   0.00001   0.00000   0.00003   0.00003   3.92948
    R5        3.92945   0.00001   0.00000   0.00003   0.00003   3.92948
    R6        3.92945   0.00001   0.00000   0.00003   0.00003   3.92948
    R7        2.17177   0.00004   0.00000   0.00003   0.00003   2.17180
    R8        2.17177   0.00004   0.00000   0.00003   0.00003   2.17180
    R9        2.17177   0.00004   0.00000   0.00003   0.00003   2.17180
   R10        2.17177   0.00004   0.00000   0.00003   0.00003   2.17180
   R11        2.17177   0.00004   0.00000   0.00003   0.00003   2.17180
   R12        2.17177   0.00004   0.00000   0.00003   0.00003   2.17180
    A1        1.57080  -0.00000   0.00000  -0.00000   0.00000   1.57080
    A2        1.57080  -0.00000   0.00000  -0.00000   0.00000   1.57080
    A3        1.57080   0.00000   0.00000   0.00000   0.00000   1.57080
    A4        1.57080  -0.00000   0.00000   0.00000   0.00000   1.57080
    A5        1.57080  -0.00000   0.00000   0.00000   0.00000   1.57080
    A6        1.57080   0.00000   0.00000   0.00000   0.00000   1.57080
    A7        1.57080   0.00000   0.00000   0.00000   0.00000   1.57080
    A8        1.57080  -0.00000   0.00000  -0.00000   0.00000   1.57080
    A9        1.57080  -0.00000   0.00000   0.00000   0.00000   1.57080
   A10        1.57080   0.00000   0.00000   0.00000   0.00000   1.57080
   A11        1.57080   0.00000   0.00000  -0.00000   0.00000   1.57080
   A12        1.57080   0.00000   0.00000  -0.00000   0.00000   1.57080
   A13        3.14159   0.00000   0.00000   0.00000   0.00000   3.14159
   A14        3.14159  -0.00000   0.00000  -0.00000   0.00000   3.14159
   A15        3.14159  -0.00000   0.00000  -0.00000   0.00000   3.14159
   A16        3.14159  -0.00000   0.00000  -0.00000   0.00000   3.14159
   A17        3.14159   0.00000   0.00000   0.00000   0.00000   3.14159
   A18        3.14159   0.00000   0.00000   0.00000   0.00000   3.14159
   A19        3.14159   0.00000   0.00000   0.00000   0.00000   3.14159
   A20        3.14159  -0.00000   0.00000  -0.00000   0.00000   3.14159
   A21        3.14159   0.00000   0.00000   0.00000   0.00000   3.14159
   A22        3.14159   0.00000   0.00000   0.00000   0.00000   3.14159
   A23        3.14159  -0.00000   0.00000  -0.00000   0.00000   3.14159
   A24        3.14159  -0.00000   0.00000  -0.00000   0.00000   3.14159
   A25        3.14159  -0.00000   0.00000  -0.00000   0.00000   3.14159
   A26        3.14159  -0.00000   0.00000  -0.00000   0.00000   3.14159
   A27        3.14159   0.00000   0.00000   0.00000   0.00000   3.14159
   A28        3.14159  -0.00000   0.00000  -0.00000   0.00000   3.14159
   A29        3.14159   0.00000   0.00000  -0.00000   0.00000   3.14159
   A30        3.14159  -0.00000   0.00000  -0.00000   0.00000   3.14159
    D1        1.57080  -0.00000   0.00000  -0.00000   0.00000   1.57080
    D2       -1.57080   0.00000   0.00000   0.00000   0.00000  -1.57080
    D3        1.57080  -0.00000   0.00000  -0.00000   0.00000   1.57080
    D4       -1.57080  -0.00000   0.00000  -0.00000   0.00000  -1.57080
    D5       -1.57080   0.00000   0.00000  -0.00000   0.00000  -1.57080
    D6        1.57080   0.00000   0.00000   0.00000   0.00000   1.57080
    D7       -1.57080   0.00000   0.00000   0.00000   0.00000  -1.57080
    D8        1.57080   0.00000   0.00000   0.00000   0.00000   1.57080
         Item               Value     Threshold  Converged?
 Maximum Force            0.000036     0.000450     YES
 RMS     Force            0.000013     0.000300     YES
 Maximum Displacement     0.000058     0.001800     YES
 RMS     Displacement     0.000022     0.001200     YES
 Predicted change in Energy=-3.593265D-09
 Optimization completed.
    -- Stationary point found.
                           ----------------------------
                           !   Optimized Parameters   !
                           ! (Angstroms and Degrees)  !
 --------------------------                            --------------------------
 ! Name  Definition              Value          Derivative Info.                !
 --------------------------------------------------------------------------------
 ! R1    R(1,2)                  2.0794         -DE/DX =    0.0                 !
 ! R2    R(1,3)                  2.0794         -DE/DX =    0.0                 !
 ! R3    R(1,4)                  2.0794         -DE/DX =    0.0                 !
 ! R4    R(1,5)                  2.0794         -DE/DX =    0.0                 !
 ! R5    R(1,6)                  2.0794         -DE/DX =    0.0                 !
 ! R6    R(1,7)                  2.0794         -DE/DX =    0.0                 !
 ! R7    R(2,13)                 1.1493         -DE/DX =    0.0                 !
 ! R8    R(3,9)                  1.1493         -DE/DX =    0.0                 !
 ! R9    R(4,8)                  1.1493         -DE/DX =    0.0                 !
 ! R10   R(5,11)                 1.1493         -DE/DX =    0.0                 !
 ! R11   R(6,12)                 1.1493         -DE/DX =    0.0                 !
 ! R12   R(7,10)                 1.1493         -DE/DX =    0.0                 !
 ! A1    A(2,1,3)               90.0            -DE/DX =    0.0                 !
 ! A2    A(2,1,4)               90.0            -DE/DX =    0.0                 !
 ! A3    A(2,1,5)               90.0            -DE/DX =    0.0                 !
 ! A4    A(2,1,6)               90.0            -DE/DX =    0.0                 !
 ! A5    A(3,1,4)               90.0            -DE/DX =    0.0                 !
 ! A6    A(3,1,5)               90.0            -DE/DX =    0.0                 !
 ! A7    A(3,1,7)               90.0            -DE/DX =    0.0                 !
 ! A8    A(4,1,6)               90.0            -DE/DX =    0.0                 !
 ! A9    A(4,1,7)               90.0            -DE/DX =    0.0                 !
 ! A10   A(5,1,6)               90.0            -DE/DX =    0.0                 !
 ! A11   A(5,1,7)               90.0            -DE/DX =    0.0                 !
 ! A12   A(6,1,7)               90.0            -DE/DX =    0.0                 !
 ! A13   L(2,1,7,3,-1)         180.0            -DE/DX =    0.0                 !
 ! A14   L(3,1,6,2,-1)         180.0            -DE/DX =    0.0                 !
 ! A15   L(4,1,5,2,-1)         180.0            -DE/DX =    0.0                 !
 ! A16   L(1,2,13,8,-1)        180.0            -DE/DX =    0.0                 !
 ! A17   L(1,3,9,8,-1)         180.0            -DE/DX =    0.0                 !
 ! A18   L(1,4,8,9,-1)         180.0            -DE/DX =    0.0                 !
 ! A19   L(1,5,11,9,-1)        180.0            -DE/DX =    0.0                 !
 ! A20   L(1,6,12,8,-1)        180.0            -DE/DX =    0.0                 !
 ! A21   L(1,7,10,8,-1)        180.0            -DE/DX =    0.0                 !
 ! A22   L(2,1,7,3,-2)         180.0            -DE/DX =    0.0                 !
 ! A23   L(3,1,6,2,-2)         180.0            -DE/DX =    0.0                 !
 ! A24   L(4,1,5,2,-2)         180.0            -DE/DX =    0.0                 !
 ! A25   L(1,2,13,8,-2)        180.0            -DE/DX =    0.0                 !
 ! A26   L(1,3,9,8,-2)         180.0            -DE/DX =    0.0                 !
 ! A27   L(1,4,8,9,-2)         180.0            -DE/DX =    0.0                 !
 ! A28   L(1,5,11,9,-2)        180.0            -DE/DX =    0.0                 !
 ! A29   L(1,6,12,8,-2)        180.0            -DE/DX =    0.0                 !
 ! A30   L(1,7,10,8,-2)        180.0            -DE/DX =    0.0                 !
 ! D1    D(2,1,4,3)             90.0            -DE/DX =    0.0                 !
 ! D2    D(2,1,5,3)            -90.0            -DE/DX =    0.0                 !
 ! D3    D(2,1,6,4)             90.0            -DE/DX =    0.0                 !
 ! D4    D(2,1,6,5)            -90.0            -DE/DX =    0.0                 !
 ! D5    D(3,1,7,4)            -90.0            -DE/DX =    0.0                 !
 ! D6    D(3,1,7,5)             90.0            -DE/DX =    0.0                 !
 ! D7    D(4,1,7,6)            -90.0            -DE/DX =    0.0                 !
 ! D8    D(5,1,7,6)             90.0            -DE/DX =    0.0                 !
 --------------------------------------------------------------------------------
 GradGradGradGradGradGradGradGradGradGradGradGradGradGradGradGradGradGrad

 Dipole is zero, so no output in dipole orientation.

 ----------------------------------------------------------------------

 Electric dipole moment (input orientation):
 (Debye = 10**-18 statcoulomb cm , SI units = C m)
                  (au)            (Debye)         (10**-30 SI)
   Tot        0.000000D+00      0.000000D+00      0.000000D+00
   x          0.000000D+00      0.000000D+00      0.000000D+00
   y          0.000000D+00      0.000000D+00      0.000000D+00
   z          0.000000D+00      0.000000D+00      0.000000D+00

 Dipole polarizability, Alpha (input orientation).
 (esu units = cm**3 , SI units = C**2 m**2 J**-1)
 Alpha(0;0):
               (au)            (10**-24 esu)      (10**-40 SI)
   iso        0.126759D+03      0.187838D+02      0.208998D+02
   aniso      0.000000D+00      0.000000D+00      0.000000D+00
   xx         0.126759D+03      0.187838D+02      0.208998D+02
   yx         0.000000D+00      0.000000D+00      0.000000D+00
   yy         0.126759D+03      0.187838D+02      0.208998D+02
   zx         0.000000D+00      0.000000D+00      0.000000D+00
   zy         0.000000D+00      0.000000D+00      0.000000D+00
   zz         0.126759D+03      0.187838D+02      0.208998D+02

 ----------------------------------------------------------------------
 Unable to Open any file for archive entry.
 1\1\GINC-TROG5\Freq\RB3LYP\Gen\C6Mo1O6\SGHORAI\03-Sep-2021\0\\#N Geom=
 AllCheck Guess=TCheck SCRF=Check GenChk RB3LYP/ChkBas Freq\\Title Card
  Required\\0,1\Mo,0.,0.,0.\C,0.,0.,2.07937612\C,0.,-2.07937612,0.\C,2.
 07937612,0.,0.\C,-2.07937612,0.,0.\C,0.,2.07937612,0.\C,0.,0.,-2.07937
 612\O,3.2286278479,0.,0.\O,0.,-3.2286278479,0.\O,0.,0.,-3.2286278479\O
 ,-3.2286278479,0.,0.\O,0.,3.2286278479,0.\O,0.,0.,3.2286278479\\Versio
 n=ES64L-G16RevC.01\State=1-A1G\HF=-747.627565\RMSD=3.728e-09\RMSF=1.83
 1e-05\ZeroPoint=0.0489587\Thermal=0.0636966\ETot=-747.5638683\HTot=-74
 7.5629242\GTot=-747.6194383\Dipole=0.,0.,0.\DipoleDeriv=-2.4459623,0.,
 0.,0.,-2.4459623,0.,0.,0.,-2.4459623,0.3942113,0.,0.,0.,0.3942113,0.,0
 .,0.,2.8651435,0.3942113,0.,0.,0.,2.8651435,0.,0.,0.,0.3942113,2.86514
 35,0.,0.,0.,0.3942113,0.,0.,0.,0.3942113,2.8651435,0.,0.,0.,0.3942113,
 0.,0.,0.,0.3942113,0.3942113,0.,0.,0.,2.8651435,0.,0.,0.,0.3942113,0.3
 942113,0.,0.,0.,0.3942113,0.,0.,0.,2.8651435,-2.0692752,0.,0.,0.,-0.18
 06548,0.,0.,0.,-0.1806548,-0.1806548,0.,0.,0.,-2.0692752,0.,0.,0.,-0.1
 806548,-0.1806548,0.,0.,0.,-0.1806548,0.,0.,0.,-2.0692752,-2.0692752,0
 .,0.,0.,-0.1806548,0.,0.,0.,-0.1806548,-0.1806548,0.,0.,0.,-2.0692752,
 0.,0.,0.,-0.1806548,-0.1806548,0.,0.,0.,-0.1806548,0.,0.,0.,-2.0692752
 \Polar=126.7594389,0.,126.7594389,0.,0.,126.7594389\Quadrupole=0.,0.,0
 .,0.,0.,0.\PG=OH [O(Mo1),3C4(O1C1.C1O1)]\NImag=0\\0.39036031,0.,0.3903
 6031,0.,0.,0.39036031,-0.07632819,0.,0.,0.09311309,0.,-0.07632819,0.,0
 .,0.09311309,0.,0.,-0.04049685,0.,0.,1.20091655,-0.07632819,0.,0.,0.00
 523482,0.,0.,0.09311309,0.,-0.04049685,0.,0.,-0.00143730,-0.02204536,0
 .,1.20091655,0.,0.,-0.07632819,0.,-0.01395657,-0.00143730,0.,0.,0.0931
 1309,-0.04049685,0.,0.,-0.00143730,0.,0.02204536,-0.00143730,-0.022045
 36,0.,1.20091655,0.,-0.07632819,0.,0.,0.00523482,0.,-0.01395657,-0.001
 43730,0.,0.,0.09311309,0.,0.,-0.07632819,0.01395657,0.,-0.00143730,0.,
 0.,0.00523482,0.,0.,0.09311309,-0.04049685,0.,0.,-0.00143730,0.,-0.022
 04536,-0.00143730,0.02204536,0.,-0.05864016,0.,0.,1.20091655,0.,-0.076
 32819,0.,0.,0.00523482,0.,0.01395657,-0.00143730,0.,0.,0.02594568,0.,0
 .,0.09311309,0.,0.,-0.07632819,-0.01395657,0.,-0.00143730,0.,0.,0.0052
 3482,0.,0.,0.02594568,0.,0.,0.09311309,-0.07632819,0.,0.,0.00523482,0.
 ,0.,0.02594568,0.,0.,-0.00143730,0.01395657,0.,-0.00143730,-0.01395657
 ,0.,0.09311309,0.,-0.04049685,0.,0.,-0.00143730,0.02204536,0.,-0.05864
 016,0.,0.02204536,-0.00143730,0.,-0.02204536,-0.00143730,0.,0.,1.20091
 655,0.,0.,-0.07632819,0.,0.01395657,-0.00143730,0.,0.,0.02594568,0.,0.
 ,0.00523482,0.,0.,0.00523482,0.,0.,0.09311309,-0.07632819,0.,0.,0.0259
 4568,0.,0.,0.00523482,0.,0.,-0.00143730,0.,-0.01395657,-0.00143730,0.,
 0.01395657,0.00523482,0.,0.,0.09311309,0.,-0.07632819,0.,0.,0.02594568
 ,0.,0.,-0.00143730,0.01395657,0.,0.00523482,0.,0.,0.00523482,0.,0.,-0.
 00143730,-0.01395657,0.,0.09311309,0.,0.,-0.04049685,0.,0.,-0.05864016
 ,0.,0.02204536,-0.00143730,-0.02204536,0.,-0.00143730,0.02204536,0.,-0
 .00143730,0.,-0.02204536,-0.00143730,0.,0.,1.20091655,-0.05361818,0.,0
 .,0.00029318,0.,-0.01437284,0.00029318,0.01437284,0.,-1.11649638,0.,0.
 ,0.01612299,0.,0.,0.00029318,-0.01437284,0.,0.00029318,0.,0.01437284,1
 .16240401,0.,0.02579563,0.,0.,-0.00103303,0.,0.00276526,0.00108577,0.,
 0.,-0.03981175,0.,0.,-0.00903416,0.,-0.00276526,0.00108577,0.,0.,-0.00
 103303,0.,0.,0.02028120,0.,0.,0.02579563,-0.00276526,0.,0.00108577,0.,
 0.,-0.00103303,0.,0.,-0.03981175,0.,0.,-0.00903416,0.,0.,-0.00103303,0
 .00276526,0.,0.00108577,0.,0.,0.02028120,0.02579563,0.,0.,-0.00103303,
 0.,0.,-0.03981175,0.,0.,0.00108577,0.00276526,0.,0.00108577,-0.0027652
 6,0.,-0.00903416,0.,0.,-0.00103303,0.,0.,-0.00031512,-0.00058099,0.,0.
 02028120,0.,-0.05361818,0.,0.,0.00029318,0.01437284,0.,-1.11649638,0.,
 0.01437284,0.00029318,0.,-0.01437284,0.00029318,0.,0.,0.01612299,0.,0.
 ,0.00029318,-0.01437284,-0.00986725,-0.00031512,0.,0.,1.16240401,0.,0.
 ,0.02579563,0.,0.00276526,0.00108577,0.,0.,-0.03981175,0.,0.,-0.001033
 03,0.,0.,-0.00103303,0.,0.,-0.00903416,0.,-0.00276526,0.00108577,0.,0.
 ,0.00021457,0.,0.,0.02028120,0.02579563,0.,0.,-0.00903416,0.,0.,-0.001
 03303,0.,0.,0.00108577,0.,0.00276526,0.00108577,0.,-0.00276526,-0.0010
 3303,0.,0.,-0.03981175,0.,0.,-0.00031512,0.,-0.00058099,0.00021457,0.,
 0.,0.02028120,0.,0.02579563,0.,0.,-0.00903416,0.,0.,0.00108577,-0.0027
 6526,0.,-0.00103303,0.,0.,-0.00103303,0.,0.,0.00108577,0.00276526,0.,-
 0.03981175,0.,0.,0.00021457,0.,0.,-0.00031512,0.00058099,0.,0.02028120
 ,0.,0.,-0.05361818,0.,0.,0.01612299,0.,-0.01437284,0.00029318,0.014372
 84,0.,0.00029318,-0.01437284,0.,0.00029318,0.,0.01437284,0.00029318,0.
 ,0.,-1.11649638,-0.00986725,0.,-0.00031512,0.,0.00986725,-0.00031512,0
 .,0.,1.16240401,-0.05361818,0.,0.,0.00029318,0.,0.01437284,0.00029318,
 -0.01437284,0.,0.01612299,0.,0.,-1.11649638,0.,0.,0.00029318,0.0143728
 4,0.,0.00029318,0.,-0.01437284,-0.00832468,0.,0.,-0.00031512,0.0098672
 5,0.,-0.00031512,0.,0.00986725,1.16240401,0.,0.02579563,0.,0.,-0.00103
 303,0.,-0.00276526,0.00108577,0.,0.,-0.00903416,0.,0.,-0.03981175,0.,0
 .00276526,0.00108577,0.,0.,-0.00103303,0.,0.,0.00286471,0.,0.00058099,
 -0.00031512,0.,0.,0.00021457,0.,0.,0.02028120,0.,0.,0.02579563,0.00276
 526,0.,0.00108577,0.,0.,-0.00103303,0.,0.,-0.00903416,0.,0.,-0.0398117
 5,0.,0.,-0.00103303,-0.00276526,0.,0.00108577,0.,0.,0.00286471,0.,0.,0
 .00021457,0.00058099,0.,-0.00031512,0.,0.,0.02028120,0.02579563,0.,0.,
 -0.00103303,0.,0.,-0.00903416,0.,0.,0.00108577,-0.00276526,0.,0.001085
 77,0.00276526,0.,-0.03981175,0.,0.,-0.00103303,0.,0.,-0.00031512,0.000
 58099,0.,0.00286471,0.,0.,0.00021457,0.,0.,-0.00031512,-0.00058099,0.,
 0.02028120,0.,-0.05361818,0.,0.,0.00029318,-0.01437284,0.,0.01612299,0
 .,-0.01437284,0.00029318,0.,0.01437284,0.00029318,0.,0.,-1.11649638,0.
 ,0.,0.00029318,0.01437284,0.00986725,-0.00031512,0.,0.,-0.00832468,0.,
 0.,-0.00031512,-0.00986725,-0.00986725,-0.00031512,0.,0.,1.16240401,0.
 ,0.,0.02579563,0.,-0.00276526,0.00108577,0.,0.,-0.00903416,0.,0.,-0.00
 103303,0.,0.,-0.00103303,0.,0.,-0.03981175,0.,0.00276526,0.00108577,0.
 ,0.,0.00021457,0.,0.,0.00286471,0.,-0.00058099,-0.00031512,0.,0.,0.000
 21457,0.,0.,0.02028120,0.02579563,0.,0.,-0.03981175,0.,0.,-0.00103303,
 0.,0.,0.00108577,0.,-0.00276526,0.00108577,0.,0.00276526,-0.00103303,0
 .,0.,-0.00903416,0.,0.,-0.00031512,0.,0.00058099,0.00021457,0.,0.,0.00
 286471,0.,0.,-0.00031512,0.,-0.00058099,0.00021457,0.,0.,0.02028120,0.
 ,0.02579563,0.,0.,-0.03981175,0.,0.,0.00108577,0.00276526,0.,-0.001033
 03,0.,0.,-0.00103303,0.,0.,0.00108577,-0.00276526,0.,-0.00903416,0.,0.
 ,0.00021457,0.,0.,-0.00031512,-0.00058099,0.,0.00286471,0.,0.,0.000214
 57,0.,0.,-0.00031512,0.00058099,0.,0.02028120,0.,0.,-0.05361818,0.,0.,
 -1.11649638,0.,0.01437284,0.00029318,-0.01437284,0.,0.00029318,0.01437
 284,0.,0.00029318,0.,-0.01437284,0.00029318,0.,0.,0.01612299,0.0098672
 5,0.,-0.00031512,0.,-0.00986725,-0.00031512,0.,0.,-0.00832468,-0.00986
 725,0.,-0.00031512,0.,0.00986725,-0.00031512,0.,0.,1.16240401\\0.,0.,0
 .,0.,0.,0.00003005,0.,-0.00003005,0.,0.00003005,0.,0.,-0.00003005,0.,0
 .,0.,0.00003005,0.,0.,0.,-0.00003005,-0.00003571,0.,0.,0.,0.00003571,0
 .,0.,0.,0.00003571,0.00003571,0.,0.,0.,-0.00003571,0.,0.,0.,-0.0000357
 1\\\@
 The archive entry for this job was punched.


 OLD HORSE! OLD HORSE! WHAT BROUGHT YOU HERE?
 FROM SACARAP' TO PORTLAND PIER
 I'VE CARTED STONE THIS MANY A YEAR;
 TILL, KILLED BY BLOWS AND SORE ABUSE,
 THEY SALTED ME DOWN FOR SAILORS' USE.
 THE SAILORS THEY DO ME DESPISE;
 THEY TURN ME OVER AND DAMN MY EYES;
 CUT OFF MY MEAT, AND SCRAPE MY BONES,
 AND PITCH ME OVER TO DAVY JONES.

    SAILORS' COMPLAINT ABOUT THE BEEF
    SERVED ON SHIPBOARD, CIRCA 1835.
 Job cpu time:       0 days  0 hours 11 minutes 18.7 seconds.
 Elapsed time:       0 days  0 hours  1 minutes 25.4 seconds.
 File lengths (MBytes):  RWF=     34 Int=      0 D2E=      0 Chk=      5 Scr=      1
 Normal termination of Gaussian 16 at Fri Sep  3 20:11:11 2021.
