 Entering Gaussian System, Link 0=/apps/GAU16/avx2/g16/g16
 Initial command:
 /apps/GAU16/avx2//g16/l1.exe "/localscratch/chegho/Gau-162752.inp" -scrdir="/localscratch/chegho/"
 Entering Link 1 = /apps/GAU16/avx2//g16/l1.exe PID=    162753.
  
 Copyright (c) 1988-2019, Gaussian, Inc.  All Rights Reserved.
  
 This is part of the Gaussian(R) 16 program.  It is based on
 the Gaussian(R) 09 system (copyright 2009, Gaussian, Inc.),
 the Gaussian(R) 03 system (copyright 2003, Gaussian, Inc.),
 the Gaussian(R) 98 system (copyright 1998, Gaussian, Inc.),
 the Gaussian(R) 94 system (copyright 1995, Gaussian, Inc.),
 the Gaussian 92(TM) system (copyright 1992, Gaussian, Inc.),
 the Gaussian 90(TM) system (copyright 1990, Gaussian, Inc.),
 the Gaussian 88(TM) system (copyright 1988, Gaussian, Inc.),
 the Gaussian 86(TM) system (copyright 1986, Carnegie Mellon
 University), and the Gaussian 82(TM) system (copyright 1983,
 Carnegie Mellon University). Gaussian is a federally registered
 trademark of Gaussian, Inc.
  
 This software contains proprietary and confidential information,
 including trade secrets, belonging to Gaussian, Inc.
  
 This software is provided under written license and may be
 used, copied, transmitted, or stored only in accord with that
 written license.
  
 The following legend is applicable only to US Government
 contracts under FAR:
  
                    RESTRICTED RIGHTS LEGEND
  
 Use, reproduction and disclosure by the US Government is
 subject to restrictions as set forth in subparagraphs (a)
 and (c) of the Commercial Computer Software - Restricted
 Rights clause in FAR 52.227-19.
  
 Gaussian, Inc.
 340 Quinnipiac St., Bldg. 40, Wallingford CT 06492
  
  
 ---------------------------------------------------------------
 Warning -- This program may not be used in any manner that
 competes with the business of Gaussian, Inc. or will provide
 assistance to any competitor of Gaussian, Inc.  The licensee
 of this program is prohibited from giving any competitor of
 Gaussian, Inc. access to this program.  By using this program,
 the user acknowledges that Gaussian, Inc. is engaged in the
 business of creating and licensing software in the field of
 computational chemistry and represents and warrants to the
 licensee that it is not a competitor of Gaussian, Inc. and that
 it will not use this program in any manner prohibited above.
 ---------------------------------------------------------------
  

 Cite this work as:
 Gaussian 16, Revision C.01,
 M. J. Frisch, G. W. Trucks, H. B. Schlegel, G. E. Scuseria, 
 M. A. Robb, J. R. Cheeseman, G. Scalmani, V. Barone, 
 G. A. Petersson, H. Nakatsuji, X. Li, M. Caricato, A. V. Marenich, 
 J. Bloino, B. G. Janesko, R. Gomperts, B. Mennucci, H. P. Hratchian, 
 J. V. Ortiz, A. F. Izmaylov, J. L. Sonnenberg, D. Williams-Young, 
 F. Ding, F. Lipparini, F. Egidi, J. Goings, B. Peng, A. Petrone, 
 T. Henderson, D. Ranasinghe, V. G. Zakrzewski, J. Gao, N. Rega, 
 G. Zheng, W. Liang, M. Hada, M. Ehara, K. Toyota, R. Fukuda, 
 J. Hasegawa, M. Ishida, T. Nakajima, Y. Honda, O. Kitao, H. Nakai, 
 T. Vreven, K. Throssell, J. A. Montgomery, Jr., J. E. Peralta, 
 F. Ogliaro, M. J. Bearpark, J. J. Heyd, E. N. Brothers, K. N. Kudin, 
 V. N. Staroverov, T. A. Keith, R. Kobayashi, J. Normand, 
 K. Raghavachari, A. P. Rendell, J. C. Burant, S. S. Iyengar, 
 J. Tomasi, M. Cossi, J. M. Millam, M. Klene, C. Adamo, R. Cammi, 
 J. W. Ochterski, R. L. Martin, K. Morokuma, O. Farkas, 
 J. B. Foresman, and D. J. Fox, Gaussian, Inc., Wallingford CT, 2019.
 
 ******************************************
 Gaussian 16:  ES64L-G16RevC.01  3-Jul-2019
                 7-Jul-2023 
 ******************************************
 %nprocshared=8
 Will use up to    8 processors via shared memory.
 %chk=MoCO2_sm3.chk
 %mem=32GB
 ---------------------------------------
 # opt freq b3lyp/gen nosymm pseudo=read
 ---------------------------------------
 1/18=20,19=15,26=3,38=1/1,3;
 2/9=110,12=2,15=1,17=6,18=5,40=1/2;
 3/5=7,11=2,16=1,17=8,25=1,30=1,71=1,74=-5/1,2,3;
 4//1;
 5/5=2,38=5/2;
 6/7=2,8=2,9=2,10=2,28=1/1;
 7/30=1/1,2,3,16;
 1/18=20,19=15,26=3/3(2);
 2/9=110,15=1/2;
 99//99;
 2/9=110,15=1/2;
 3/5=7,6=1,11=2,16=1,17=8,25=1,30=1,71=1,74=-5,82=7/1,2,3;
 4/5=5,16=3,69=1/1;
 5/5=2,38=5/2;
 7/30=1/1,2,3,16;
 1/18=20,19=15,26=3/3(-5);
 2/9=110,15=1/2;
 6/7=2,8=2,9=2,10=2,19=2,28=1/1;
 99/9=1/99;
 -------------------
 Title Card Required
 -------------------
 Symbolic Z-matrix:
 Charge =  0 Multiplicity = 3
 42                   -0.16014  -0.64349  -0.97224 
 6                    -0.2734   -2.52464  -0.67946 
 6                    -0.14701  -0.98903  -2.8478 
 8                    -0.14033  -1.20575  -4.00041 
 8                    -0.34424  -3.68207  -0.50375 
 

 GradGradGradGradGradGradGradGradGradGradGradGradGradGradGradGradGradGrad
 Berny optimization.
 Initialization pass.
                           ----------------------------
                           !    Initial Parameters    !
                           ! (Angstroms and Degrees)  !
 --------------------------                            --------------------------
 ! Name  Definition              Value          Derivative Info.                !
 --------------------------------------------------------------------------------
 ! R1    R(1,2)                  1.9072         estimate D2E/DX2                !
 ! R2    R(1,3)                  1.9072         estimate D2E/DX2                !
 ! R3    R(2,5)                  1.1728         estimate D2E/DX2                !
 ! R4    R(3,4)                  1.1728         estimate D2E/DX2                !
 ! A1    A(2,1,3)               88.434          estimate D2E/DX2                !
 ! A2    L(1,2,5,4,-1)         179.7862         estimate D2E/DX2                !
 ! A3    L(1,3,4,5,-1)         179.7866         estimate D2E/DX2                !
 ! A4    L(1,2,5,4,-2)         180.0695         estimate D2E/DX2                !
 ! A5    L(1,3,4,5,-2)         179.9355         estimate D2E/DX2                !
 --------------------------------------------------------------------------------
 Trust Radius=3.00D-01 FncErr=1.00D-07 GrdErr=1.00D-06 EigMax=2.50D+02 EigMin=1.00D-04
 Number of steps in this run=     20 maximum allowed number of steps=    100.
 GradGradGradGradGradGradGradGradGradGradGradGradGradGradGradGradGradGrad

                          Input orientation:                          
 ---------------------------------------------------------------------
 Center     Atomic      Atomic             Coordinates (Angstroms)
 Number     Number       Type             X           Y           Z
 ---------------------------------------------------------------------
      1         42           0       -0.160137   -0.643489   -0.972242
      2          6           0       -0.273399   -2.524644   -0.679457
      3          6           0       -0.147005   -0.989034   -2.847799
      4          8           0       -0.140329   -1.205751   -4.000410
      5          8           0       -0.344239   -3.682068   -0.503753
 ---------------------------------------------------------------------
                    Distance matrix (angstroms):
                    1          2          3          4          5
     1  Mo   0.000000
     2  C    1.907169   0.000000
     3  C    1.907167   2.660034   0.000000
     4  O    3.079989   3.575740   1.172827   0.000000
     5  O    3.079990   1.172826   3.575736   4.289561   0.000000
 Symmetry turned off by external request.
 Stoichiometry    C2MoO2(3)
 Framework group  C1[X(C2MoO2)]
 Deg. of freedom     9
 Full point group                 C1      NOp   1
 Rotational constants (GHZ):           3.8426323           2.6653522           1.5737544
 General basis read from cards:  (5D, 7F)
 ======================================================================================================
                                       Pseudopotential Parameters
 ======================================================================================================
  Center     Atomic      Valence      Angular      Power
  Number     Number     Electrons     Momentum     of R      Exponent        Coefficient   SO-Coeffient
 ======================================================================================================
    1         42           14
                                      F and up 
                                                     0      537.9667807       -0.04694920    0.00000000
                                                     1      147.8982938      -20.20800840    0.00000000
                                                     2       45.7358898     -106.21163020    0.00000000
                                                     2       13.2911467      -41.81073680    0.00000000
                                                     2        4.7059961       -4.20541030    0.00000000
                                      S - F
                                                     0      110.2991760        2.80637170    0.00000000
                                                     1       23.2014645       44.51620120    0.00000000
                                                     2        5.3530131       82.77852270    0.00000000
                                      P - F
                                                     0       63.2901397        4.94208760    0.00000000
                                                     1       23.3315302       25.86049760    0.00000000
                                                     2       24.6759423      132.47087420    0.00000000
                                                     2        4.6493040       57.31497940    0.00000000
                                      D - F
                                                     0      104.4839977        3.00545910    0.00000000
                                                     1       66.2307245       26.36378510    0.00000000
                                                     2       39.1283176      183.38491990    0.00000000
                                                     2       13.1164437       98.44530680    0.00000000
                                                     2        3.6280263       22.49013770    0.00000000
    2          6
                                   No pseudopotential on this center.
    3          6
                                   No pseudopotential on this center.
    4          8
                                   No pseudopotential on this center.
    5          8
                                   No pseudopotential on this center.
 ======================================================================================================
    78 basis functions,   161 primitive gaussians,    84 cartesian basis functions
    22 alpha electrons       20 beta electrons
       nuclear repulsion energy       157.6794532299 Hartrees.
 NAtoms=    5 NActive=    5 NUniq=    5 SFac= 1.00D+00 NAtFMM=   60 NAOKFM=F Big=F
 Integral buffers will be    131072 words long.
 Raffenetti 2 integral format.
 Two-electron integral symmetry is turned off.
 One-electron integrals computed using PRISM.
   1 Symmetry operations used in ECPInt.
 ECPInt:  NShTT=     300 NPrTT=    1976 LenC2=     296 LenP2D=    1626.
 LDataN:  DoStor=T MaxTD1= 5 Len=  102
 NBasis=    78 RedAO= T EigKep=  9.12D-03  NBF=    78
 NBsUse=    78 1.00D-06 EigRej= -1.00D+00 NBFU=    78
 Defaulting to unpruned grid for atomic number  42.
 ExpMin= 2.47D-02 ExpMax= 5.48D+03 ExpMxC= 8.25D+02 IAcc=3 IRadAn=         5 AccDes= 0.00D+00
 Harris functional with IExCor=  402 and IRadAn=       5 diagonalized for initial guess.
 HarFok:  IExCor=  402 AccDes= 0.00D+00 IRadAn=         5 IDoV= 1 UseB2=F ITyADJ=14
 ICtDFT=  3500011 ScaDFX=  1.000000  1.000000  1.000000  1.000000
 Defaulting to unpruned grid for atomic number  42.
 FoFCou: FMM=F IPFlag=           0 FMFlag=      100000 FMFlg1=           0
         NFxFlg=           0 DoJE=T BraDBF=F KetDBF=T FulRan=T
         wScrn=  0.000000 ICntrl=       500 IOpCl=  0 I1Cent=   200000004 NGrid=           0
         NMat0=    1 NMatS0=      1 NMatT0=    0 NMatD0=    1 NMtDS0=    0 NMtDT0=    0
 Symmetry not used in FoFCou.
 Initial guess <Sx>= 0.0000 <Sy>= 0.0000 <Sz>= 1.0000 <S**2>= 2.0000 S= 1.0000
 Keep R1 and R2 ints in memory in canonical form, NReq=16774758.
 Requested convergence on RMS density matrix=1.00D-08 within 128 cycles.
 Requested convergence on MAX density matrix=1.00D-06.
 Requested convergence on             energy=1.00D-06.
 No special actions if energy rises.
 Defaulting to unpruned grid for atomic number  42.
 Defaulting to unpruned grid for atomic number  42.
 Defaulting to unpruned grid for atomic number  42.
 Defaulting to unpruned grid for atomic number  42.
 Defaulting to unpruned grid for atomic number  42.
 Defaulting to unpruned grid for atomic number  42.
 Defaulting to unpruned grid for atomic number  42.
 Defaulting to unpruned grid for atomic number  42.
 EnCoef did   100 forward-backward iterations
 EnCoef did     4 forward-backward iterations
 EnCoef did     4 forward-backward iterations
 EnCoef did     3 forward-backward iterations
 SCF Done:  E(UB3LYP) =  -294.123082983     A.U. after   19 cycles
            NFock= 19  Conv=0.97D-08     -V/T= 2.1873
 <Sx>= 0.0000 <Sy>= 0.0000 <Sz>= 1.0000 <S**2>= 2.0101 S= 1.0034
 <L.S>=  0.00000000000    
 Annihilation of the first spin contaminant:
 S**2 before annihilation     2.0101,   after     2.0000

 **********************************************************************

            Population analysis using the SCF Density.

 **********************************************************************

 Alpha  occ. eigenvalues --  -19.19757 -19.19755 -10.27470 -10.27466  -2.46776
 Alpha  occ. eigenvalues --   -1.51004  -1.49676  -1.49039  -1.09325  -1.09279
 Alpha  occ. eigenvalues --   -0.54535  -0.53687  -0.43354  -0.42969  -0.42788
 Alpha  occ. eigenvalues --   -0.42634  -0.42296  -0.40836  -0.23493  -0.23034
 Alpha  occ. eigenvalues --   -0.21294  -0.20404
 Alpha virt. eigenvalues --   -0.08473  -0.08077  -0.06137   0.02626   0.02997
 Alpha virt. eigenvalues --    0.03677   0.04007   0.04854   0.05207   0.12751
 Alpha virt. eigenvalues --    0.13349   0.20585   0.25429   0.27444   0.31272
 Alpha virt. eigenvalues --    0.33811   0.34031   0.45864   0.48500   0.59574
 Alpha virt. eigenvalues --    0.63731   0.64997   0.69287   0.69645   0.73188
 Alpha virt. eigenvalues --    0.83767   0.88746   0.88992   1.01043   1.01654
 Alpha virt. eigenvalues --    1.01783   1.03014   1.14694   1.52098   1.52371
 Alpha virt. eigenvalues --    1.52429   1.53349   1.53952   1.55067   1.55514
 Alpha virt. eigenvalues --    1.57813   1.59477   1.73615   1.95715   1.96011
 Alpha virt. eigenvalues --    1.96260   1.97553   2.37241   2.39920   2.58019
 Alpha virt. eigenvalues --    2.58279   2.58648   2.59902   2.95475   3.00326
 Alpha virt. eigenvalues --    9.03866
  Beta  occ. eigenvalues --  -19.19643 -19.19642 -10.27556 -10.27551  -2.42369
  Beta  occ. eigenvalues --   -1.46248  -1.45948  -1.42490  -1.09140  -1.09092
  Beta  occ. eigenvalues --   -0.54372  -0.53470  -0.43329  -0.42524  -0.42443
  Beta  occ. eigenvalues --   -0.41983  -0.41463  -0.40769  -0.21853  -0.18928
  Beta virt. eigenvalues --   -0.11562  -0.09003  -0.07451  -0.05971  -0.04104
  Beta virt. eigenvalues --    0.02382   0.04195   0.04531   0.05325   0.05771
  Beta virt. eigenvalues --    0.05773   0.13595   0.15642   0.21818   0.27801
  Beta virt. eigenvalues --    0.27944   0.34368   0.34848   0.34944   0.47430
  Beta virt. eigenvalues --    0.49304   0.59501   0.63889   0.65274   0.69578
  Beta virt. eigenvalues --    0.69597   0.73345   0.83767   0.88808   0.89092
  Beta virt. eigenvalues --    1.01050   1.02150   1.02330   1.03083   1.15152
  Beta virt. eigenvalues --    1.52117   1.52318   1.52379   1.53340   1.54192
  Beta virt. eigenvalues --    1.55083   1.55728   1.57788   1.59625   1.73909
  Beta virt. eigenvalues --    1.95803   1.96103   1.96350   1.97625   2.37264
  Beta virt. eigenvalues --    2.39984   2.58156   2.58279   2.58891   2.59790
  Beta virt. eigenvalues --    2.95574   3.00427   9.04483
          Condensed to atoms (all electrons):
               1          2          3          4          5
     1  Mo  13.199397   0.314035   0.314040  -0.027229  -0.027228
     2  C    0.314035   4.948700  -0.003088  -0.002302   0.581393
     3  C    0.314040  -0.003088   4.948695   0.581393  -0.002302
     4  O   -0.027229  -0.002302   0.581393   7.722835   0.000062
     5  O   -0.027228   0.581393  -0.002302   0.000062   7.722826
          Atomic-Atomic Spin Densities.
               1          2          3          4          5
     1  Mo   1.931095   0.021346   0.021336  -0.002617  -0.002618
     2  C    0.021346  -0.051525   0.000272   0.000152  -0.000357
     3  C    0.021336   0.000272  -0.051531  -0.000352   0.000152
     4  O   -0.002617   0.000152  -0.000352   0.048660  -0.000008
     5  O   -0.002618  -0.000357   0.000152  -0.000008   0.048689
 Mulliken charges and spin densities:
               1          2
     1  Mo   0.226986   1.968542
     2  C    0.161263  -0.030112
     3  C    0.161263  -0.030123
     4  O   -0.274759   0.045836
     5  O   -0.274752   0.045857
 Sum of Mulliken charges =  -0.00000   2.00000
 Mulliken charges and spin densities with hydrogens summed into heavy atoms:
               1          2
     1  Mo   0.226986   1.968542
     2  C    0.161263  -0.030112
     3  C    0.161263  -0.030123
     4  O   -0.274759   0.045836
     5  O   -0.274752   0.045857
 Electronic spatial extent (au):  <R**2>=           1421.0499
 Charge=             -0.0000 electrons
 Dipole moment (field-independent basis, Debye):
    X=              0.1821    Y=              4.0343    Z=              2.8678  Tot=              4.9531
 Quadrupole moment (field-independent basis, Debye-Ang):
   XX=            -42.9591   YY=            -53.1900   ZZ=            -53.5730
   XY=             -1.0620   XZ=             -0.5515   YZ=             -5.7985
 Traceless Quadrupole moment (field-independent basis, Debye-Ang):
   XX=              6.9482   YY=             -3.2826   ZZ=             -3.6656
   XY=             -1.0620   XZ=             -0.5515   YZ=             -5.7985
 Octapole moment (field-independent basis, Debye-Ang**2):
  XXX=             24.8558  YYY=            217.2018  ZZZ=            240.7933  XYY=             11.9805
  XXY=             59.0252  XXZ=             63.8932  XZZ=              9.8380  YZZ=             74.5485
  YYZ=             71.0611  XYZ=              0.9600
 Hexadecapole moment (field-independent basis, Debye-Ang**3):
 XXXX=            -68.7187 YYYY=           -974.2095 ZZZZ=          -1179.9871 XXXY=            -42.3995
 XXXZ=            -31.8017 YYYX=            -57.7149 YYYZ=           -238.2944 ZZZX=            -38.4044
 ZZZY=           -284.8863 XXYY=           -146.5153 XXZZ=           -169.6983 YYZZ=           -309.9105
 XXYZ=            -73.8176 YYXZ=            -12.3113 ZZXY=            -16.2653
 N-N= 1.576794532299D+02 E-N=-9.860808579173D+02  KE= 2.477327753490D+02
                          Isotropic Fermi Contact Couplings
        Atom                 a.u.       MegaHertz       Gauss      10(-4) cm-1
     1  Mo(95)             0.00000      -0.00046      -0.00017      -0.00015
     2  C(13)             -0.03986     -22.40503      -7.99467      -7.47351
     3  C(13)             -0.03986     -22.40446      -7.99447      -7.47332
     4  O(17)              0.00879      -2.66422      -0.95066      -0.88869
     5  O(17)              0.00879      -2.66561      -0.95116      -0.88915
 --------------------------------------------------------
       Center         ----  Spin Dipole Couplings  ----
                      3XX-RR        3YY-RR        3ZZ-RR
 --------------------------------------------------------
     1   Atom        0.186566     -0.138951     -0.047615
     2   Atom        0.002774      0.053727     -0.056501
     3   Atom        0.002367     -0.053013      0.050645
     4   Atom        0.235313     -0.150307     -0.085006
     5   Atom        0.235598     -0.082234     -0.153364
 --------------------------------------------------------
                        XY            XZ            YZ
 --------------------------------------------------------
     1   Atom       -0.016279     -0.003343     -0.132007
     2   Atom        0.003170      0.000249     -0.014047
     3   Atom       -0.003600      0.000477      0.023380
     4   Atom       -0.022572      0.006090      0.014203
     5   Atom       -0.018571      0.006381     -0.009696
 --------------------------------------------------------


 ---------------------------------------------------------------------------------
              Anisotropic Spin Dipole Couplings in Principal Axis System
 ---------------------------------------------------------------------------------

       Atom             a.u.   MegaHertz   Gauss  10(-4) cm-1        Axes

              Baa    -0.2335     8.157     2.911     2.721  0.0362  0.8145  0.5790
     1 Mo(95) Bbb     0.0461    -1.610    -0.574    -0.537 -0.0475 -0.5773  0.8151
              Bcc     0.1874    -6.547    -2.336    -2.184  0.9982 -0.0570  0.0178
 
              Baa    -0.0583    -7.819    -2.790    -2.608 -0.0105  0.1247  0.9921
     2 C(13)  Bbb     0.0026     0.349     0.124     0.116  0.9982 -0.0570  0.0178
              Bcc     0.0557     7.471     2.666     2.492  0.0588  0.9906 -0.1239
 
              Baa    -0.0583    -7.818    -2.790    -2.608  0.0596  0.9759 -0.2098
     3 C(13)  Bbb     0.0026     0.346     0.124     0.116  0.9982 -0.0571  0.0179
              Bcc     0.0557     7.471     2.666     2.492 -0.0055  0.2105  0.9776
 
              Baa    -0.1547    11.191     3.993     3.733  0.0597  0.9771 -0.2045
     4 O(17)  Bbb    -0.0821     5.938     2.119     1.981 -0.0042  0.2051  0.9787
              Bcc     0.2367   -17.129    -6.112    -5.713  0.9982 -0.0576  0.0164
 
              Baa    -0.1547    11.194     3.994     3.734 -0.0100  0.1301  0.9915
     5 O(17)  Bbb    -0.0821     5.941     2.120     1.982  0.0605  0.9898 -0.1293
              Bcc     0.2368   -17.135    -6.114    -5.716  0.9981 -0.0586  0.0178
 

 ---------------------------------------------------------------------------------

   1 Symmetry operations used in ECPInt.
 ECPInt:  NShTT=     300 NPrTT=    1976 LenC2=     296 LenP2D=    1626.
 LDataN:  DoStor=T MaxTD1= 6 Len=  172
 Calling FoFJK, ICntrl=      2127 FMM=F ISym2X=0 I1Cent= 0 IOpClX= 1 NMat=1 NMatS=1 NMatT=0.
 Defaulting to unpruned grid for atomic number  42.
 Defaulting to unpruned grid for atomic number  42.
 Defaulting to unpruned grid for atomic number  42.
 Defaulting to unpruned grid for atomic number  42.
 Defaulting to unpruned grid for atomic number  42.
 Defaulting to unpruned grid for atomic number  42.
 Defaulting to unpruned grid for atomic number  42.
 Defaulting to unpruned grid for atomic number  42.
 -------------------------------------------------------------------
 Center     Atomic                   Forces (Hartrees/Bohr)
 Number     Number              X              Y              Z
 -------------------------------------------------------------------
      1       42           0.001345787    0.028765403    0.020447942
      2        6          -0.001207525   -0.023119836   -0.011603551
      3        6          -0.000825101   -0.018564065   -0.018032902
      4        8           0.000130840    0.003903043    0.008203288
      5        8           0.000555999    0.009015456    0.000985223
 -------------------------------------------------------------------
 Cartesian Forces:  Max     0.028765403 RMS     0.013548922

 GradGradGradGradGradGradGradGradGradGradGradGradGradGradGradGradGradGrad
 Berny optimization.
 FormGI is forming the generalized inverse of G from B-inverse, IUseBI=4.
 Internal  Forces:  Max     0.040474902 RMS     0.015453245
 Search for a local minimum.
 Step number   1 out of a maximum of   20
 All quantities printed in internal units (Hartrees-Bohrs-Radians)
 Mixed Optimization -- RFO/linear search
 Second derivative matrix not updated -- first step.
 The second derivative matrix:
                          R1        R2        R3        R4        A1
           R1           0.23417
           R2           0.00000   0.23417
           R3           0.00000   0.00000   1.19755
           R4           0.00000   0.00000   0.00000   1.19754
           A1           0.00000   0.00000   0.00000   0.00000   0.25000
           A2           0.00000   0.00000   0.00000   0.00000   0.00000
           A3           0.00000   0.00000   0.00000   0.00000   0.00000
           A4           0.00000   0.00000   0.00000   0.00000   0.00000
           A5           0.00000   0.00000   0.00000   0.00000   0.00000
                          A2        A3        A4        A5
           A2           0.04697
           A3           0.00000   0.04697
           A4           0.00000   0.00000   0.04697
           A5           0.00000   0.00000   0.00000   0.04697
 ITU=  0
     Eigenvalues ---    0.04697   0.04697   0.04697   0.04697   0.23417
     Eigenvalues ---    0.23417   0.25000   1.19754   1.19755
 RFO step:  Lambda=-8.66737649D-03 EMin= 4.69684494D-02
 Linear search not attempted -- first point.
 Iteration  1 RMS(Cart)=  0.12239660 RMS(Int)=  0.00502088
 Iteration  2 RMS(Cart)=  0.00867112 RMS(Int)=  0.00000720
 Iteration  3 RMS(Cart)=  0.00001014 RMS(Int)=  0.00000000
 Iteration  4 RMS(Cart)=  0.00000000 RMS(Int)=  0.00000000
 Variable       Old X    -DE/DX   Delta X   Delta X   Delta X     New X
                                 (Linear)    (Quad)   (Total)
    R1        3.60403   0.01232   0.00000   0.05074   0.05074   3.65476
    R2        3.60402   0.01232   0.00000   0.05073   0.05073   3.65475
    R3        2.21632  -0.00878   0.00000  -0.00728  -0.00728   2.20904
    R4        2.21632  -0.00878   0.00000  -0.00728  -0.00728   2.20904
    A1        1.54346  -0.04047   0.00000  -0.15647  -0.15647   1.38699
    A2        3.13786   0.00516   0.00000   0.09269   0.09269   3.23055
    A3        3.13787   0.00516   0.00000   0.09269   0.09269   3.23056
    A4        3.14281  -0.00008   0.00000  -0.00148  -0.00148   3.14132
    A5        3.14047   0.00007   0.00000   0.00134   0.00134   3.14181
         Item               Value     Threshold  Converged?
 Maximum Force            0.040475     0.000450     NO 
 RMS     Force            0.015453     0.000300     NO 
 Maximum Displacement     0.177157     0.001800     NO 
 RMS     Displacement     0.129483     0.001200     NO 
 Predicted change in Energy=-4.537044D-03
 GradGradGradGradGradGradGradGradGradGradGradGradGradGradGradGradGradGrad

                          Input orientation:                          
 ---------------------------------------------------------------------
 Center     Atomic      Atomic             Coordinates (Angstroms)
 Number     Number       Type             X           Y           Z
 ---------------------------------------------------------------------
      1         42           0       -0.156390   -0.569804   -0.919843
      2          6           0       -0.270617   -2.494869   -0.773205
      3          6           0       -0.153070   -1.067488   -2.788718
      4          8           0       -0.144589   -1.266947   -3.940519
      5          8           0       -0.340442   -3.645878   -0.581376
 ---------------------------------------------------------------------
                    Distance matrix (angstroms):
                    1          2          3          4          5
     1  Mo   0.000000
     2  C    1.934018   0.000000
     3  C    1.934011   2.472555   0.000000
     4  O    3.100102   3.399346   1.168974   0.000000
     5  O    3.100108   1.168973   3.399348   4.120864   0.000000
 Symmetry turned off by external request.
 Stoichiometry    C2MoO2(3)
 Framework group  C1[X(C2MoO2)]
 Deg. of freedom     9
 Full point group                 C1      NOp   1
 Rotational constants (GHZ):           3.4521986           2.9299010           1.5848390
 Basis read from rwf:  (5D, 7F)
 Pseudo-potential data read from rwf file.
    78 basis functions,   161 primitive gaussians,    84 cartesian basis functions
    22 alpha electrons       20 beta electrons
       nuclear repulsion energy       158.5288939932 Hartrees.
 NAtoms=    5 NActive=    5 NUniq=    5 SFac= 1.00D+00 NAtFMM=   60 NAOKFM=F Big=F
 Integral buffers will be    131072 words long.
 Raffenetti 2 integral format.
 Two-electron integral symmetry is turned off.
 One-electron integrals computed using PRISM.
   1 Symmetry operations used in ECPInt.
 ECPInt:  NShTT=     300 NPrTT=    1976 LenC2=     298 LenP2D=    1632.
 LDataN:  DoStor=T MaxTD1= 5 Len=  102
 NBasis=    78 RedAO= T EigKep=  9.60D-03  NBF=    78
 NBsUse=    78 1.00D-06 EigRej= -1.00D+00 NBFU=    78
 Defaulting to unpruned grid for atomic number  42.
 Initial guess from the checkpoint file:  "MoCO2_sm3.chk"
 B after Tr=     0.004072    0.070208    0.049954
         Rot=    1.000000   -0.000003   -0.000039    0.000053 Ang=  -0.01 deg.
 Initial guess <Sx>= 0.0000 <Sy>= 0.0000 <Sz>= 1.0000 <S**2>= 2.0103 S= 1.0034
 ExpMin= 2.47D-02 ExpMax= 5.48D+03 ExpMxC= 8.25D+02 IAcc=3 IRadAn=         5 AccDes= 0.00D+00
 Harris functional with IExCor=  402 and IRadAn=       5 diagonalized for initial guess.
 HarFok:  IExCor=  402 AccDes= 0.00D+00 IRadAn=         5 IDoV= 1 UseB2=F ITyADJ=14
 ICtDFT=  3500011 ScaDFX=  1.000000  1.000000  1.000000  1.000000
 Defaulting to unpruned grid for atomic number  42.
 FoFCou: FMM=F IPFlag=           0 FMFlag=      100000 FMFlg1=           0
         NFxFlg=           0 DoJE=T BraDBF=F KetDBF=T FulRan=T
         wScrn=  0.000000 ICntrl=       500 IOpCl=  0 I1Cent=   200000004 NGrid=           0
         NMat0=    1 NMatS0=      1 NMatT0=    0 NMatD0=    1 NMtDS0=    0 NMtDT0=    0
 Symmetry not used in FoFCou.
 Keep R1 and R2 ints in memory in canonical form, NReq=16774758.
 Requested convergence on RMS density matrix=1.00D-08 within 128 cycles.
 Requested convergence on MAX density matrix=1.00D-06.
 Requested convergence on             energy=1.00D-06.
 No special actions if energy rises.
 Defaulting to unpruned grid for atomic number  42.
 Defaulting to unpruned grid for atomic number  42.
 Defaulting to unpruned grid for atomic number  42.
 Defaulting to unpruned grid for atomic number  42.
 Defaulting to unpruned grid for atomic number  42.
 Defaulting to unpruned grid for atomic number  42.
 Defaulting to unpruned grid for atomic number  42.
 Defaulting to unpruned grid for atomic number  42.
 SCF Done:  E(UB3LYP) =  -294.124792984     A.U. after   15 cycles
            NFock= 15  Conv=0.98D-08     -V/T= 2.1875
 <Sx>= 0.0000 <Sy>= 0.0000 <Sz>= 1.0000 <S**2>= 2.0144 S= 1.0048
 <L.S>=  0.00000000000    
 Annihilation of the first spin contaminant:
 S**2 before annihilation     2.0144,   after     2.0001
   1 Symmetry operations used in ECPInt.
 ECPInt:  NShTT=     300 NPrTT=    1976 LenC2=     298 LenP2D=    1632.
 LDataN:  DoStor=T MaxTD1= 6 Len=  172
 Calling FoFJK, ICntrl=      2127 FMM=F ISym2X=0 I1Cent= 0 IOpClX= 1 NMat=1 NMatS=1 NMatT=0.
 Defaulting to unpruned grid for atomic number  42.
 Defaulting to unpruned grid for atomic number  42.
 Defaulting to unpruned grid for atomic number  42.
 Defaulting to unpruned grid for atomic number  42.
 Defaulting to unpruned grid for atomic number  42.
 Defaulting to unpruned grid for atomic number  42.
 Defaulting to unpruned grid for atomic number  42.
 Defaulting to unpruned grid for atomic number  42.
 -------------------------------------------------------------------
 Center     Atomic                   Forces (Hartrees/Bohr)
 Number     Number              X              Y              Z
 -------------------------------------------------------------------
      1       42          -0.000463635   -0.009887547   -0.007028877
      2        6          -0.000257156   -0.000054211    0.015652905
      3        6           0.000958950    0.014727535   -0.005221298
      4        8          -0.000469474   -0.006655717    0.004318267
      5        8           0.000231315    0.001869940   -0.007720997
 -------------------------------------------------------------------
 Cartesian Forces:  Max     0.015652905 RMS     0.007136191

 GradGradGradGradGradGradGradGradGradGradGradGradGradGradGradGradGradGrad
 Berny optimization.
 Using GEDIIS/GDIIS optimizer.
 FormGI is forming the generalized inverse of G from B-inverse, IUseBI=4.
 Internal  Forces:  Max     0.016145198 RMS     0.008942539
 Search for a local minimum.
 Step number   2 out of a maximum of   20
 All quantities printed in internal units (Hartrees-Bohrs-Radians)
 Mixed Optimization -- RFO/linear search
 Update second derivatives using D2CorX and points    1    2
 DE= -1.71D-03 DEPred=-4.54D-03 R= 3.77D-01
 Trust test= 3.77D-01 RLast= 2.17D-01 DXMaxT set to 3.00D-01
 The second derivative matrix:
                          R1        R2        R3        R4        A1
           R1           0.23032
           R2          -0.00384   0.23033
           R3           0.00700   0.00700   1.19066
           R4           0.00700   0.00700  -0.00688   1.19066
           A1           0.00364   0.00364  -0.01927  -0.01927   0.27384
           A2           0.01460   0.01459  -0.00413  -0.00413  -0.06226
           A3           0.01460   0.01459  -0.00413  -0.00413  -0.06226
           A4          -0.00000  -0.00000  -0.00003  -0.00003   0.00007
           A5           0.00000   0.00000   0.00003   0.00003  -0.00007
                          A2        A3        A4        A5
           A2           0.07753
           A3           0.03056   0.07752
           A4          -0.00012  -0.00012   0.04697
           A5           0.00011   0.00011  -0.00000   0.04697
 ITU=  0  0
 Use linear search instead of GDIIS.
     Eigenvalues ---    0.04697   0.04697   0.04697   0.06451   0.23099
     Eigenvalues ---    0.23417   0.31186   1.18482   1.19755
 RFO step:  Lambda=-3.10189280D-03 EMin= 4.69669860D-02
 Quartic linear search produced a step of -0.37771.
 Iteration  1 RMS(Cart)=  0.17731849 RMS(Int)=  0.01617875
 Iteration  2 RMS(Cart)=  0.01698543 RMS(Int)=  0.00005526
 Iteration  3 RMS(Cart)=  0.00009848 RMS(Int)=  0.00000001
 Iteration  4 RMS(Cart)=  0.00000001 RMS(Int)=  0.00000000
 Variable       Old X    -DE/DX   Delta X   Delta X   Delta X     New X
                                 (Linear)    (Quad)   (Total)
    R1        3.65476  -0.00120  -0.01916   0.03524   0.01608   3.67084
    R2        3.65475  -0.00120  -0.01916   0.03523   0.01607   3.67083
    R3        2.20904  -0.00312   0.00275  -0.00715  -0.00440   2.20464
    R4        2.20904  -0.00312   0.00275  -0.00715  -0.00440   2.20464
    A1        1.38699   0.01327   0.05910  -0.08577  -0.02667   1.36032
    A2        3.23055  -0.01615  -0.03501  -0.13193  -0.16694   3.06361
    A3        3.23056  -0.01614  -0.03501  -0.13194  -0.16694   3.06361
    A4        3.14132   0.00002   0.00056  -0.00085  -0.00029   3.14103
    A5        3.14181  -0.00002  -0.00051   0.00077   0.00026   3.14207
         Item               Value     Threshold  Converged?
 Maximum Force            0.016145     0.000450     NO 
 RMS     Force            0.008943     0.000300     NO 
 Maximum Displacement     0.366018     0.001800     NO 
 RMS     Displacement     0.186469     0.001200     NO 
 Predicted change in Energy=-2.567353D-03
 GradGradGradGradGradGradGradGradGradGradGradGradGradGradGradGradGradGrad

                          Input orientation:                          
 ---------------------------------------------------------------------
 Center     Atomic      Atomic             Coordinates (Angstroms)
 Number     Number       Type             X           Y           Z
 ---------------------------------------------------------------------
      1         42           0       -0.153651   -0.511701   -0.878536
      2          6           0       -0.268261   -2.447036   -0.757095
      3          6           0       -0.152083   -1.036505   -2.748816
      4          8           0       -0.156092   -1.438115   -3.844150
      5          8           0       -0.335022   -3.611630   -0.775064
 ---------------------------------------------------------------------
                    Distance matrix (angstroms):
                    1          2          3          4          5
     1  Mo   0.000000
     2  C    1.942526   0.000000
     3  C    1.942517   2.443369   0.000000
     4  O    3.106947   3.249679   1.166646   0.000000
     5  O    3.106954   1.166644   3.249682   3.765033   0.000000
 Symmetry turned off by external request.
 Stoichiometry    C2MoO2(3)
 Framework group  C1[X(C2MoO2)]
 Deg. of freedom     9
 Full point group                 C1      NOp   1
 Rotational constants (GHZ):           3.3875305           3.0859297           1.6148521
 Basis read from rwf:  (5D, 7F)
 Pseudo-potential data read from rwf file.
    78 basis functions,   161 primitive gaussians,    84 cartesian basis functions
    22 alpha electrons       20 beta electrons
       nuclear repulsion energy       159.8871055129 Hartrees.
 NAtoms=    5 NActive=    5 NUniq=    5 SFac= 1.00D+00 NAtFMM=   60 NAOKFM=F Big=F
 Integral buffers will be    131072 words long.
 Raffenetti 2 integral format.
 Two-electron integral symmetry is turned off.
 One-electron integrals computed using PRISM.
   1 Symmetry operations used in ECPInt.
 ECPInt:  NShTT=     300 NPrTT=    1976 LenC2=     298 LenP2D=    1644.
 LDataN:  DoStor=T MaxTD1= 5 Len=  102
 NBasis=    78 RedAO= T EigKep=  9.51D-03  NBF=    78
 NBsUse=    78 1.00D-06 EigRej= -1.00D+00 NBFU=    78
 Defaulting to unpruned grid for atomic number  42.
 Initial guess from the checkpoint file:  "MoCO2_sm3.chk"
 B after Tr=     0.002420    0.049065    0.034888
         Rot=    1.000000   -0.000001   -0.000008    0.000010 Ang=  -0.00 deg.
 Initial guess <Sx>= 0.0000 <Sy>= 0.0000 <Sz>= 1.0000 <S**2>= 2.0145 S= 1.0048
 ExpMin= 2.47D-02 ExpMax= 5.48D+03 ExpMxC= 8.25D+02 IAcc=3 IRadAn=         5 AccDes= 0.00D+00
 Harris functional with IExCor=  402 and IRadAn=       5 diagonalized for initial guess.
 HarFok:  IExCor=  402 AccDes= 0.00D+00 IRadAn=         5 IDoV= 1 UseB2=F ITyADJ=14
 ICtDFT=  3500011 ScaDFX=  1.000000  1.000000  1.000000  1.000000
 Defaulting to unpruned grid for atomic number  42.
 FoFCou: FMM=F IPFlag=           0 FMFlag=      100000 FMFlg1=           0
         NFxFlg=           0 DoJE=T BraDBF=F KetDBF=T FulRan=T
         wScrn=  0.000000 ICntrl=       500 IOpCl=  0 I1Cent=   200000004 NGrid=           0
         NMat0=    1 NMatS0=      1 NMatT0=    0 NMatD0=    1 NMtDS0=    0 NMtDT0=    0
 Symmetry not used in FoFCou.
 Keep R1 and R2 ints in memory in canonical form, NReq=16774758.
 Requested convergence on RMS density matrix=1.00D-08 within 128 cycles.
 Requested convergence on MAX density matrix=1.00D-06.
 Requested convergence on             energy=1.00D-06.
 No special actions if energy rises.
 Defaulting to unpruned grid for atomic number  42.
 Defaulting to unpruned grid for atomic number  42.
 Defaulting to unpruned grid for atomic number  42.
 Defaulting to unpruned grid for atomic number  42.
 Defaulting to unpruned grid for atomic number  42.
 Defaulting to unpruned grid for atomic number  42.
 Defaulting to unpruned grid for atomic number  42.
 Defaulting to unpruned grid for atomic number  42.
 SCF Done:  E(UB3LYP) =  -294.126604413     A.U. after   17 cycles
            NFock= 17  Conv=0.43D-08     -V/T= 2.1874
 <Sx>= 0.0000 <Sy>= 0.0000 <Sz>= 1.0000 <S**2>= 2.0152 S= 1.0050
 <L.S>=  0.00000000000    
 Annihilation of the first spin contaminant:
 S**2 before annihilation     2.0152,   after     2.0001
   1 Symmetry operations used in ECPInt.
 ECPInt:  NShTT=     300 NPrTT=    1976 LenC2=     298 LenP2D=    1644.
 LDataN:  DoStor=T MaxTD1= 6 Len=  172
 Calling FoFJK, ICntrl=      2127 FMM=F ISym2X=0 I1Cent= 0 IOpClX= 1 NMat=1 NMatS=1 NMatT=0.
 Defaulting to unpruned grid for atomic number  42.
 Defaulting to unpruned grid for atomic number  42.
 Defaulting to unpruned grid for atomic number  42.
 Defaulting to unpruned grid for atomic number  42.
 Defaulting to unpruned grid for atomic number  42.
 Defaulting to unpruned grid for atomic number  42.
 Defaulting to unpruned grid for atomic number  42.
 Defaulting to unpruned grid for atomic number  42.
 -------------------------------------------------------------------
 Center     Atomic                   Forces (Hartrees/Bohr)
 Number     Number              X              Y              Z
 -------------------------------------------------------------------
      1       42          -0.000245291   -0.004733244   -0.003365496
      2        6           0.000318329    0.004181940   -0.002145071
      3        6          -0.000082467   -0.000642881    0.004664572
      4        8           0.000074960    0.001434574   -0.000759036
      5        8          -0.000065530   -0.000240388    0.001605031
 -------------------------------------------------------------------
 Cartesian Forces:  Max     0.004733244 RMS     0.002358501

 GradGradGradGradGradGradGradGradGradGradGradGradGradGradGradGradGradGrad
 Berny optimization.
 Using GEDIIS/GDIIS optimizer.
 FormGI is forming the generalized inverse of G from B-inverse, IUseBI=4.
 Internal  Forces:  Max     0.003975660 RMS     0.002645916
 Search for a local minimum.
 Step number   3 out of a maximum of   20
 All quantities printed in internal units (Hartrees-Bohrs-Radians)
 Mixed Optimization -- RFO/linear search
 Update second derivatives using D2CorX and points    1    2    3
 DE= -1.81D-03 DEPred=-2.57D-03 R= 7.06D-01
 TightC=F SS=  1.41D+00  RLast= 2.39D-01 DXNew= 5.0454D-01 7.1629D-01
 Trust test= 7.06D-01 RLast= 2.39D-01 DXMaxT set to 5.05D-01
 The second derivative matrix:
                          R1        R2        R3        R4        A1
           R1           0.24020
           R2           0.00602   0.24019
           R3           0.00451   0.00451   1.18737
           R4           0.00451   0.00451  -0.01018   1.18736
           A1          -0.00484  -0.00484  -0.02182  -0.02182   0.27428
           A2           0.00382   0.00383  -0.00333  -0.00333  -0.05412
           A3           0.00382   0.00382  -0.00333  -0.00333  -0.05412
           A4          -0.00012  -0.00012   0.00003   0.00003   0.00021
           A5           0.00011   0.00011  -0.00002  -0.00002  -0.00019
                          A2        A3        A4        A5
           A2           0.08724
           A3           0.04028   0.08725
           A4           0.00002   0.00002   0.04697
           A5          -0.00001  -0.00001  -0.00000   0.04697
 ITU=  1  0  0
 Use linear search instead of GDIIS.
     Eigenvalues ---    0.04697   0.04697   0.04697   0.09443   0.23417
     Eigenvalues ---    0.24493   0.30751   1.17834   1.19755
 RFO step:  Lambda=-1.74907118D-04 EMin= 4.69685079D-02
 Quartic linear search produced a step of -0.21727.
 Iteration  1 RMS(Cart)=  0.06415800 RMS(Int)=  0.00137948
 Iteration  2 RMS(Cart)=  0.00126670 RMS(Int)=  0.00000010
 Iteration  3 RMS(Cart)=  0.00000019 RMS(Int)=  0.00000000
 Variable       Old X    -DE/DX   Delta X   Delta X   Delta X     New X
                                 (Linear)    (Quad)   (Total)
    R1        3.67084  -0.00398  -0.00349  -0.01344  -0.01693   3.65391
    R2        3.67083  -0.00397  -0.00349  -0.01344  -0.01693   3.65390
    R3        2.20464   0.00022   0.00096   0.00003   0.00099   2.20562
    R4        2.20464   0.00022   0.00096   0.00003   0.00099   2.20563
    A1        1.36032   0.00247   0.00579   0.01834   0.02413   1.38445
    A2        3.06361   0.00355   0.03627   0.00311   0.03938   3.10299
    A3        3.06361   0.00355   0.03627   0.00313   0.03940   3.10301
    A4        3.14103   0.00005   0.00006   0.00077   0.00083   3.14186
    A5        3.14207  -0.00004  -0.00006  -0.00070  -0.00075   3.14132
         Item               Value     Threshold  Converged?
 Maximum Force            0.003976     0.000450     NO 
 RMS     Force            0.002646     0.000300     NO 
 Maximum Displacement     0.122067     0.001800     NO 
 RMS     Displacement     0.063831     0.001200     NO 
 Predicted change in Energy=-2.358743D-04
 GradGradGradGradGradGradGradGradGradGradGradGradGradGradGradGradGradGrad

                          Input orientation:                          
 ---------------------------------------------------------------------
 Center     Atomic      Atomic             Coordinates (Angstroms)
 Number     Number       Type             X           Y           Z
 ---------------------------------------------------------------------
      1         42           0       -0.155069   -0.537211   -0.896684
      2          6           0       -0.268859   -2.462033   -0.752515
      3          6           0       -0.151541   -1.037170   -2.764484
      4          8           0       -0.152428   -1.382134   -3.879508
      5          8           0       -0.337212   -3.626437   -0.710469
 ---------------------------------------------------------------------
                    Distance matrix (angstroms):
                    1          2          3          4          5
     1  Mo   0.000000
     2  C    1.933564   0.000000
     3  C    1.933558   2.468201   0.000000
     4  O    3.100184   3.310261   1.167168   0.000000
     5  O    3.100188   1.167166   3.310250   3.887654   0.000000
 Symmetry turned off by external request.
 Stoichiometry    C2MoO2(3)
 Framework group  C1[X(C2MoO2)]
 Deg. of freedom     9
 Full point group                 C1      NOp   1
 Rotational constants (GHZ):           3.2227525           3.2102951           1.6082559
 Basis read from rwf:  (5D, 7F)
 Pseudo-potential data read from rwf file.
    78 basis functions,   161 primitive gaussians,    84 cartesian basis functions
    22 alpha electrons       20 beta electrons
       nuclear repulsion energy       159.5147295340 Hartrees.
 NAtoms=    5 NActive=    5 NUniq=    5 SFac= 1.00D+00 NAtFMM=   60 NAOKFM=F Big=F
 Integral buffers will be    131072 words long.
 Raffenetti 2 integral format.
 Two-electron integral symmetry is turned off.
 One-electron integrals computed using PRISM.
   1 Symmetry operations used in ECPInt.
 ECPInt:  NShTT=     300 NPrTT=    1976 LenC2=     298 LenP2D=    1638.
 LDataN:  DoStor=T MaxTD1= 5 Len=  102
 NBasis=    78 RedAO= T EigKep=  9.47D-03  NBF=    78
 NBsUse=    78 1.00D-06 EigRej= -1.00D+00 NBFU=    78
 Defaulting to unpruned grid for atomic number  42.
 Initial guess from the checkpoint file:  "MoCO2_sm3.chk"
 B after Tr=    -0.001566   -0.022538   -0.016051
         Rot=    1.000000    0.000002    0.000024   -0.000033 Ang=   0.00 deg.
 Initial guess <Sx>= 0.0000 <Sy>= 0.0000 <Sz>= 1.0000 <S**2>= 2.0151 S= 1.0050
 ExpMin= 2.47D-02 ExpMax= 5.48D+03 ExpMxC= 8.25D+02 IAcc=3 IRadAn=         5 AccDes= 0.00D+00
 Harris functional with IExCor=  402 and IRadAn=       5 diagonalized for initial guess.
 HarFok:  IExCor=  402 AccDes= 0.00D+00 IRadAn=         5 IDoV= 1 UseB2=F ITyADJ=14
 ICtDFT=  3500011 ScaDFX=  1.000000  1.000000  1.000000  1.000000
 Defaulting to unpruned grid for atomic number  42.
 FoFCou: FMM=F IPFlag=           0 FMFlag=      100000 FMFlg1=           0
         NFxFlg=           0 DoJE=T BraDBF=F KetDBF=T FulRan=T
         wScrn=  0.000000 ICntrl=       500 IOpCl=  0 I1Cent=   200000004 NGrid=           0
         NMat0=    1 NMatS0=      1 NMatT0=    0 NMatD0=    1 NMtDS0=    0 NMtDT0=    0
 Symmetry not used in FoFCou.
 Keep R1 and R2 ints in memory in canonical form, NReq=16774758.
 Requested convergence on RMS density matrix=1.00D-08 within 128 cycles.
 Requested convergence on MAX density matrix=1.00D-06.
 Requested convergence on             energy=1.00D-06.
 No special actions if energy rises.
 Defaulting to unpruned grid for atomic number  42.
 Defaulting to unpruned grid for atomic number  42.
 Defaulting to unpruned grid for atomic number  42.
 Defaulting to unpruned grid for atomic number  42.
 Defaulting to unpruned grid for atomic number  42.
 Defaulting to unpruned grid for atomic number  42.
 Defaulting to unpruned grid for atomic number  42.
 Defaulting to unpruned grid for atomic number  42.
 SCF Done:  E(UB3LYP) =  -294.126846816     A.U. after   15 cycles
            NFock= 15  Conv=0.56D-08     -V/T= 2.1874
 <Sx>= 0.0000 <Sy>= 0.0000 <Sz>= 1.0000 <S**2>= 2.0140 S= 1.0047
 <L.S>=  0.00000000000    
 Annihilation of the first spin contaminant:
 S**2 before annihilation     2.0140,   after     2.0001
   1 Symmetry operations used in ECPInt.
 ECPInt:  NShTT=     300 NPrTT=    1976 LenC2=     298 LenP2D=    1638.
 LDataN:  DoStor=T MaxTD1= 6 Len=  172
 Calling FoFJK, ICntrl=      2127 FMM=F ISym2X=0 I1Cent= 0 IOpClX= 1 NMat=1 NMatS=1 NMatT=0.
 Defaulting to unpruned grid for atomic number  42.
 Defaulting to unpruned grid for atomic number  42.
 Defaulting to unpruned grid for atomic number  42.
 Defaulting to unpruned grid for atomic number  42.
 Defaulting to unpruned grid for atomic number  42.
 Defaulting to unpruned grid for atomic number  42.
 Defaulting to unpruned grid for atomic number  42.
 Defaulting to unpruned grid for atomic number  42.
 -------------------------------------------------------------------
 Center     Atomic                   Forces (Hartrees/Bohr)
 Number     Number              X              Y              Z
 -------------------------------------------------------------------
      1       42          -0.000011630   -0.000593687   -0.000420759
      2        6           0.000011512    0.000506727   -0.000147755
      3        6          -0.000026343    0.000029669    0.000524776
      4        8           0.000011791    0.000014248    0.000042824
      5        8           0.000014671    0.000043044    0.000000915
 -------------------------------------------------------------------
 Cartesian Forces:  Max     0.000593687 RMS     0.000269516

 GradGradGradGradGradGradGradGradGradGradGradGradGradGradGradGradGradGrad
 Berny optimization.
 Using GEDIIS/GDIIS optimizer.
 FormGI is forming the generalized inverse of G from B-inverse, IUseBI=4.
 Internal  Forces:  Max     0.000559756 RMS     0.000293647
 Search for a local minimum.
 Step number   4 out of a maximum of   20
 All quantities printed in internal units (Hartrees-Bohrs-Radians)
 Mixed Optimization -- En-DIIS/RFO-DIIS
 Update second derivatives using D2CorX and points    1    2    3    4
 DE= -2.42D-04 DEPred=-2.36D-04 R= 1.03D+00
 TightC=F SS=  1.41D+00  RLast= 6.53D-02 DXNew= 8.4853D-01 1.9586D-01
 Trust test= 1.03D+00 RLast= 6.53D-02 DXMaxT set to 5.05D-01
 The second derivative matrix:
                          R1        R2        R3        R4        A1
           R1           0.23028
           R2          -0.00389   0.23028
           R3           0.00375   0.00375   1.18825
           R4           0.00373   0.00373  -0.00930   1.18824
           A1          -0.00458  -0.00458  -0.02015  -0.02015   0.28061
           A2           0.00663   0.00663  -0.00364  -0.00363  -0.05121
           A3           0.00662   0.00662  -0.00364  -0.00363  -0.05119
           A4          -0.00030  -0.00030  -0.00001  -0.00001   0.00041
           A5           0.00028   0.00028   0.00001   0.00001  -0.00038
                          A2        A3        A4        A5
           A2           0.08708
           A3           0.04012   0.08710
           A4           0.00021   0.00021   0.04698
           A5          -0.00020  -0.00020  -0.00001   0.04698
 ITU=  1  1  0  0
 Use linear search instead of GDIIS.
     Eigenvalues ---    0.04697   0.04697   0.04698   0.09738   0.22574
     Eigenvalues ---    0.23417   0.31012   1.17992   1.19755
 RFO step:  Lambda=-3.18910657D-06 EMin= 4.69685103D-02
 Quartic linear search produced a step of  0.02149.
 Iteration  1 RMS(Cart)=  0.00331004 RMS(Int)=  0.00000100
 Iteration  2 RMS(Cart)=  0.00000104 RMS(Int)=  0.00000000
 Iteration  3 RMS(Cart)=  0.00000000 RMS(Int)=  0.00000000
 Variable       Old X    -DE/DX   Delta X   Delta X   Delta X     New X
                                 (Linear)    (Quad)   (Total)
    R1        3.65391  -0.00056  -0.00036  -0.00212  -0.00248   3.65142
    R2        3.65390  -0.00056  -0.00036  -0.00212  -0.00248   3.65141
    R3        2.20562  -0.00004   0.00002  -0.00007  -0.00005   2.20557
    R4        2.20563  -0.00005   0.00002  -0.00007  -0.00005   2.20558
    A1        1.38445  -0.00038   0.00052  -0.00208  -0.00156   1.38289
    A2        3.10299   0.00001   0.00085  -0.00117  -0.00033   3.10267
    A3        3.10301   0.00000   0.00085  -0.00120  -0.00035   3.10266
    A4        3.14186  -0.00003   0.00002  -0.00059  -0.00057   3.14130
    A5        3.14132   0.00002  -0.00002   0.00055   0.00053   3.14185
         Item               Value     Threshold  Converged?
 Maximum Force            0.000560     0.000450     NO 
 RMS     Force            0.000294     0.000300     YES
 Maximum Displacement     0.005198     0.001800     NO 
 RMS     Displacement     0.003310     0.001200     NO 
 Predicted change in Energy=-1.701872D-06
 GradGradGradGradGradGradGradGradGradGradGradGradGradGradGradGradGradGrad

                          Input orientation:                          
 ---------------------------------------------------------------------
 Center     Atomic      Atomic             Coordinates (Angstroms)
 Number     Number       Type             X           Y           Z
 ---------------------------------------------------------------------
      1         42           0       -0.154888   -0.537000   -0.896523
      2          6           0       -0.268984   -2.460604   -0.753974
      3          6           0       -0.151839   -1.038047   -2.762671
      4          8           0       -0.152458   -1.384283   -3.877273
      5          8           0       -0.336940   -3.625051   -0.713220
 ---------------------------------------------------------------------
                    Distance matrix (angstroms):
                    1          2          3          4          5
     1  Mo   0.000000
     2  C    1.932250   0.000000
     3  C    1.932244   2.464195   0.000000
     4  O    3.098833   3.305608   1.167140   0.000000
     5  O    3.098838   1.167140   3.305617   3.881534   0.000000
 Symmetry turned off by external request.
 Stoichiometry    C2MoO2(3)
 Framework group  C1[X(C2MoO2)]
 Deg. of freedom     9
 Full point group                 C1      NOp   1
 Rotational constants (GHZ):           3.2211805           3.2204985           1.6104197
 Basis read from rwf:  (5D, 7F)
 Pseudo-potential data read from rwf file.
    78 basis functions,   161 primitive gaussians,    84 cartesian basis functions
    22 alpha electrons       20 beta electrons
       nuclear repulsion energy       159.6114985237 Hartrees.
 NAtoms=    5 NActive=    5 NUniq=    5 SFac= 1.00D+00 NAtFMM=   60 NAOKFM=F Big=F
 Integral buffers will be    131072 words long.
 Raffenetti 2 integral format.
 Two-electron integral symmetry is turned off.
 One-electron integrals computed using PRISM.
   1 Symmetry operations used in ECPInt.
 ECPInt:  NShTT=     300 NPrTT=    1976 LenC2=     298 LenP2D=    1640.
 LDataN:  DoStor=T MaxTD1= 5 Len=  102
 NBasis=    78 RedAO= T EigKep=  9.46D-03  NBF=    78
 NBsUse=    78 1.00D-06 EigRej= -1.00D+00 NBFU=    78
 Defaulting to unpruned grid for atomic number  42.
 Initial guess from the checkpoint file:  "MoCO2_sm3.chk"
 B after Tr=     0.000374    0.000141    0.000124
         Rot=    1.000000   -0.000001   -0.000016    0.000022 Ang=  -0.00 deg.
 Initial guess <Sx>= 0.0000 <Sy>= 0.0000 <Sz>= 1.0000 <S**2>= 2.0140 S= 1.0047
 Keep R1 and R2 ints in memory in canonical form, NReq=16774758.
 Requested convergence on RMS density matrix=1.00D-08 within 128 cycles.
 Requested convergence on MAX density matrix=1.00D-06.
 Requested convergence on             energy=1.00D-06.
 No special actions if energy rises.
 Defaulting to unpruned grid for atomic number  42.
 Defaulting to unpruned grid for atomic number  42.
 Defaulting to unpruned grid for atomic number  42.
 Defaulting to unpruned grid for atomic number  42.
 Defaulting to unpruned grid for atomic number  42.
 Defaulting to unpruned grid for atomic number  42.
 Defaulting to unpruned grid for atomic number  42.
 Defaulting to unpruned grid for atomic number  42.
 SCF Done:  E(UB3LYP) =  -294.126848598     A.U. after   13 cycles
            NFock= 13  Conv=0.94D-08     -V/T= 2.1874
 <Sx>= 0.0000 <Sy>= 0.0000 <Sz>= 1.0000 <S**2>= 2.0140 S= 1.0046
 <L.S>=  0.00000000000    
 Annihilation of the first spin contaminant:
 S**2 before annihilation     2.0140,   after     2.0001
   1 Symmetry operations used in ECPInt.
 ECPInt:  NShTT=     300 NPrTT=    1976 LenC2=     298 LenP2D=    1640.
 LDataN:  DoStor=T MaxTD1= 6 Len=  172
 Calling FoFJK, ICntrl=      2127 FMM=F ISym2X=0 I1Cent= 0 IOpClX= 1 NMat=1 NMatS=1 NMatT=0.
 Defaulting to unpruned grid for atomic number  42.
 Defaulting to unpruned grid for atomic number  42.
 Defaulting to unpruned grid for atomic number  42.
 Defaulting to unpruned grid for atomic number  42.
 Defaulting to unpruned grid for atomic number  42.
 Defaulting to unpruned grid for atomic number  42.
 Defaulting to unpruned grid for atomic number  42.
 Defaulting to unpruned grid for atomic number  42.
 -------------------------------------------------------------------
 Center     Atomic                   Forces (Hartrees/Bohr)
 Number     Number              X              Y              Z
 -------------------------------------------------------------------
      1       42          -0.000015851   -0.000037636   -0.000027566
      2        6           0.000029463    0.000180720    0.000003249
      3        6           0.000018958    0.000060215    0.000170826
      4        8          -0.000011883   -0.000052995   -0.000141433
      5        8          -0.000020687   -0.000150304   -0.000005076
 -------------------------------------------------------------------
 Cartesian Forces:  Max     0.000180720 RMS     0.000087609

 GradGradGradGradGradGradGradGradGradGradGradGradGradGradGradGradGradGrad
 Berny optimization.
 Using GEDIIS/GDIIS optimizer.
 FormGI is forming the generalized inverse of G from B-inverse, IUseBI=4.
 Internal  Forces:  Max     0.000150994 RMS     0.000074496
 Search for a local minimum.
 Step number   5 out of a maximum of   20
 All quantities printed in internal units (Hartrees-Bohrs-Radians)
 Mixed Optimization -- En-DIIS/RFO-DIIS
 Swapping is turned off.
 Update second derivatives using D2CorX and points    1    2    3    4    5
 DE= -1.78D-06 DEPred=-1.70D-06 R= 1.05D+00
 TightC=F SS=  1.41D+00  RLast= 3.95D-03 DXNew= 8.4853D-01 1.1859D-02
 Trust test= 1.05D+00 RLast= 3.95D-03 DXMaxT set to 5.05D-01
 The second derivative matrix:
                          R1        R2        R3        R4        A1
           R1           0.22437
           R2          -0.00969   0.22459
           R3           0.02909   0.02913   1.20033
           R4           0.02904   0.02908   0.00283   1.20042
           A1          -0.00860  -0.00853  -0.00555  -0.00557   0.27789
           A2           0.00298   0.00297  -0.00648  -0.00648  -0.05357
           A3           0.00327   0.00326  -0.00631  -0.00631  -0.05337
           A4           0.00377   0.00377   0.00260   0.00261   0.00289
           A5          -0.00361  -0.00362  -0.00247  -0.00248  -0.00275
                          A2        A3        A4        A5
           A2           0.08718
           A3           0.04019   0.08714
           A4          -0.00033  -0.00029   0.04755
           A5           0.00031   0.00028  -0.00056   0.04750
 ITU=  1  1  1  0  0
     Eigenvalues ---    0.04697   0.04697   0.04766   0.09572   0.20996
     Eigenvalues ---    0.23417   0.31114   1.19755   1.20685
 En-DIIS/RFO-DIIS/Sim-DIIS IScMMF=       -3 using points:     5    4
 RFO step:  Lambda=-8.73649420D-08.
 DidBck=F Rises=F RFO-DIIS coefs:    1.05181   -0.05181
 Iteration  1 RMS(Cart)=  0.00053474 RMS(Int)=  0.00000012
 Iteration  2 RMS(Cart)=  0.00000012 RMS(Int)=  0.00000000
 Variable       Old X    -DE/DX   Delta X   Delta X   Delta X     New X
                                 (Linear)    (Quad)   (Total)
    R1        3.65142  -0.00003  -0.00013  -0.00007  -0.00020   3.65123
    R2        3.65141  -0.00003  -0.00013  -0.00007  -0.00019   3.65122
    R3        2.20557   0.00015  -0.00000   0.00013   0.00013   2.20570
    R4        2.20558   0.00015  -0.00000   0.00013   0.00013   2.20571
    A1        1.38289  -0.00002  -0.00008  -0.00010  -0.00018   1.38271
    A2        3.10267  -0.00002  -0.00002  -0.00022  -0.00024   3.10243
    A3        3.10266  -0.00002  -0.00002  -0.00018  -0.00020   3.10246
    A4        3.14130   0.00002  -0.00003   0.00057   0.00054   3.14183
    A5        3.14185  -0.00002   0.00003  -0.00054  -0.00051   3.14134
         Item               Value     Threshold  Converged?
 Maximum Force            0.000151     0.000450     YES
 RMS     Force            0.000074     0.000300     YES
 Maximum Displacement     0.000884     0.001800     YES
 RMS     Displacement     0.000535     0.001200     YES
 Predicted change in Energy=-4.482149D-08
 Optimization completed.
    -- Stationary point found.
                           ----------------------------
                           !   Optimized Parameters   !
                           ! (Angstroms and Degrees)  !
 --------------------------                            --------------------------
 ! Name  Definition              Value          Derivative Info.                !
 --------------------------------------------------------------------------------
 ! R1    R(1,2)                  1.9322         -DE/DX =    0.0                 !
 ! R2    R(1,3)                  1.9322         -DE/DX =    0.0                 !
 ! R3    R(2,5)                  1.1671         -DE/DX =    0.0002              !
 ! R4    R(3,4)                  1.1671         -DE/DX =    0.0002              !
 ! A1    A(2,1,3)               79.2336         -DE/DX =    0.0                 !
 ! A2    L(1,2,5,4,-1)         177.7697         -DE/DX =    0.0                 !
 ! A3    L(1,3,4,5,-1)         177.7691         -DE/DX =    0.0                 !
 ! A4    L(1,2,5,4,-2)         179.983          -DE/DX =    0.0                 !
 ! A5    L(1,3,4,5,-2)         180.0148         -DE/DX =    0.0                 !
 --------------------------------------------------------------------------------
 GradGradGradGradGradGradGradGradGradGradGradGradGradGradGradGradGradGrad

                          Input orientation:                          
 ---------------------------------------------------------------------
 Center     Atomic      Atomic             Coordinates (Angstroms)
 Number     Number       Type             X           Y           Z
 ---------------------------------------------------------------------
      1         42           0       -0.154888   -0.537000   -0.896523
      2          6           0       -0.268984   -2.460604   -0.753974
      3          6           0       -0.151839   -1.038047   -2.762671
      4          8           0       -0.152458   -1.384283   -3.877273
      5          8           0       -0.336940   -3.625051   -0.713220
 ---------------------------------------------------------------------
                    Distance matrix (angstroms):
                    1          2          3          4          5
     1  Mo   0.000000
     2  C    1.932250   0.000000
     3  C    1.932244   2.464195   0.000000
     4  O    3.098833   3.305608   1.167140   0.000000
     5  O    3.098838   1.167140   3.305617   3.881534   0.000000
 Symmetry turned off by external request.
 Stoichiometry    C2MoO2(3)
 Framework group  C1[X(C2MoO2)]
 Deg. of freedom     9
 Full point group                 C1      NOp   1
 Rotational constants (GHZ):           3.2211805           3.2204985           1.6104197

 **********************************************************************

            Population analysis using the SCF Density.

 **********************************************************************

 Alpha  occ. eigenvalues --  -19.19572 -19.19569 -10.27582 -10.27579  -2.46812
 Alpha  occ. eigenvalues --   -1.50622  -1.49749  -1.49336  -1.09549  -1.09426
 Alpha  occ. eigenvalues --   -0.54858  -0.53184  -0.44447  -0.42757  -0.42670
 Alpha  occ. eigenvalues --   -0.42340  -0.42043  -0.40032  -0.23138  -0.22449
 Alpha  occ. eigenvalues --   -0.21565  -0.20380
 Alpha virt. eigenvalues --   -0.08286  -0.07820  -0.05979   0.02586   0.02980
 Alpha virt. eigenvalues --    0.03681   0.03892   0.05021   0.05075   0.12743
 Alpha virt. eigenvalues --    0.13038   0.19177   0.24911   0.27959   0.31178
 Alpha virt. eigenvalues --    0.32760   0.34321   0.45241   0.48300   0.60173
 Alpha virt. eigenvalues --    0.63817   0.64088   0.70824   0.71869   0.74165
 Alpha virt. eigenvalues --    0.83184   0.88561   0.89501   1.01685   1.01782
 Alpha virt. eigenvalues --    1.01988   1.02633   1.13313   1.50574   1.51756
 Alpha virt. eigenvalues --    1.52431   1.52938   1.54119   1.54119   1.55700
 Alpha virt. eigenvalues --    1.59717   1.65225   1.75312   1.95680   1.96437
 Alpha virt. eigenvalues --    1.96820   2.01474   2.38317   2.40282   2.58763
 Alpha virt. eigenvalues --    2.59418   2.60002   2.60477   2.96895   3.00033
 Alpha virt. eigenvalues --    8.29437
  Beta  occ. eigenvalues --  -19.19516 -19.19514 -10.27679 -10.27676  -2.42218
  Beta  occ. eigenvalues --   -1.46487  -1.45241  -1.42297  -1.09468  -1.09343
  Beta  occ. eigenvalues --   -0.54810  -0.53085  -0.44440  -0.42392  -0.42338
  Beta  occ. eigenvalues --   -0.42193  -0.41486  -0.39938  -0.21341  -0.19162
  Beta virt. eigenvalues --   -0.10542  -0.08951  -0.06742  -0.06007  -0.04009
  Beta virt. eigenvalues --    0.03285   0.03637   0.04184   0.05366   0.05393
  Beta virt. eigenvalues --    0.05480   0.13585   0.15343   0.20447   0.27212
  Beta virt. eigenvalues --    0.28229   0.33852   0.34352   0.35431   0.47146
  Beta virt. eigenvalues --    0.49037   0.59976   0.64037   0.64204   0.70812
  Beta virt. eigenvalues --    0.72119   0.74208   0.83146   0.88616   0.89520
  Beta virt. eigenvalues --    1.01954   1.02028   1.02165   1.02552   1.13710
  Beta virt. eigenvalues --    1.50559   1.51652   1.52269   1.52844   1.54010
  Beta virt. eigenvalues --    1.54270   1.55843   1.59815   1.65228   1.75508
  Beta virt. eigenvalues --    1.95650   1.96409   1.96784   2.01380   2.38274
  Beta virt. eigenvalues --    2.40279   2.58907   2.59550   2.59849   2.60308
  Beta virt. eigenvalues --    2.96955   3.00081   8.30135
          Condensed to atoms (all electrons):
               1          2          3          4          5
     1  Mo  13.210329   0.309557   0.309559  -0.027485  -0.027485
     2  C    0.309557   4.944525  -0.002767  -0.004460   0.593026
     3  C    0.309559  -0.002767   4.944525   0.593025  -0.004460
     4  O   -0.027485  -0.004460   0.593025   7.711618   0.000184
     5  O   -0.027485   0.593026  -0.004460   0.000184   7.711614
          Atomic-Atomic Spin Densities.
               1          2          3          4          5
     1  Mo   2.003793   0.014305   0.014302  -0.001378  -0.001378
     2  C    0.014305  -0.060347  -0.000721   0.000425   0.005719
     3  C    0.014302  -0.000721  -0.060345   0.005719   0.000425
     4  O   -0.001378   0.000425   0.005719   0.021071  -0.000043
     5  O   -0.001378   0.005719   0.000425  -0.000043   0.021076
 Mulliken charges and spin densities:
               1          2
     1  Mo   0.225525   2.029644
     2  C    0.160119  -0.040619
     3  C    0.160117  -0.040619
     4  O   -0.272882   0.025795
     5  O   -0.272879   0.025798
 Sum of Mulliken charges =  -0.00000   2.00000
 Mulliken charges and spin densities with hydrogens summed into heavy atoms:
               1          2
     1  Mo   0.225525   2.029644
     2  C    0.160119  -0.040619
     3  C    0.160117  -0.040619
     4  O   -0.272882   0.025795
     5  O   -0.272879   0.025798
 Electronic spatial extent (au):  <R**2>=           1375.1068
 Charge=             -0.0000 electrons
 Dipole moment (field-independent basis, Debye):
    X=              0.1896    Y=              4.1441    Z=              2.9459  Tot=              5.0880
 Quadrupole moment (field-independent basis, Debye-Ang):
   XX=            -42.9861   YY=            -52.7738   ZZ=            -53.0718
   XY=             -1.0428   XZ=             -0.5871   YZ=             -6.0871
 Traceless Quadrupole moment (field-independent basis, Debye-Ang):
   XX=              6.6245   YY=             -3.1632   ZZ=             -3.4613
   XY=             -1.0428   XZ=             -0.5871   YZ=             -6.0871
 Octapole moment (field-independent basis, Debye-Ang**2):
  XXX=             24.5907  YYY=            210.5198  ZZZ=            232.6534  XYY=             11.7138
  XXY=             57.0912  XXZ=             62.5590  XZZ=              9.8060  YZZ=             73.8146
  YYZ=             72.6703  XYZ=              1.1447
 Hexadecapole moment (field-independent basis, Debye-Ang**3):
 XXXX=            -68.5749 YYYY=           -942.5912 ZZZZ=          -1100.5878 XXXY=            -40.6460
 XXXZ=            -32.2962 YYYX=            -55.2185 YYYZ=           -262.7873 ZZZX=            -39.0463
 ZZZY=           -300.7554 XXYY=           -142.1000 XXZZ=           -160.8588 YYZZ=           -304.8227
 XXYZ=            -77.3809 YYXZ=            -13.5476 ZZXY=            -16.2045
 N-N= 1.596114985237D+02 E-N=-9.899514997117D+02  KE= 2.477155928223D+02
                          Isotropic Fermi Contact Couplings
        Atom                 a.u.       MegaHertz       Gauss      10(-4) cm-1
     1  Mo(95)             0.00000      -0.00053      -0.00019      -0.00018
     2  C(13)             -0.04166     -23.41743      -8.35592      -7.81121
     3  C(13)             -0.04166     -23.41687      -8.35572      -7.81103
     4  O(17)              0.00440      -1.33261      -0.47551      -0.44451
     5  O(17)              0.00440      -1.33282      -0.47558      -0.44458
 --------------------------------------------------------
       Center         ----  Spin Dipole Couplings  ----
                      3XX-RR        3YY-RR        3ZZ-RR
 --------------------------------------------------------
     1   Atom        0.195075     -0.148952     -0.046123
     2   Atom       -0.002478      0.057280     -0.054802
     3   Atom       -0.002872     -0.045947      0.048819
     4   Atom        0.173750     -0.127830     -0.045920
     5   Atom        0.174114     -0.039024     -0.135091
 --------------------------------------------------------
                        XY            XZ            YZ
 --------------------------------------------------------
     1   Atom       -0.017502     -0.004482     -0.148530
     2   Atom        0.003584      0.000567     -0.005704
     3   Atom       -0.003041      0.000885      0.030487
     4   Atom       -0.017985      0.005278      0.024281
     5   Atom       -0.012211      0.004955     -0.006857
 --------------------------------------------------------


 ---------------------------------------------------------------------------------
              Anisotropic Spin Dipole Couplings in Principal Axis System
 ---------------------------------------------------------------------------------

       Atom             a.u.   MegaHertz   Gauss  10(-4) cm-1        Axes

              Baa    -0.2553     8.919     3.183     2.975  0.0374  0.8145  0.5790
     1 Mo(95) Bbb     0.0593    -2.072    -0.739    -0.691 -0.0475 -0.5773  0.8151
              Bcc     0.1960    -6.847    -2.443    -2.284  0.9982 -0.0580  0.0171
 
              Baa    -0.0551    -7.394    -2.638    -2.466 -0.0142  0.0511  0.9986
     2 C(13)  Bbb    -0.0027    -0.359    -0.128    -0.120  0.9982 -0.0580  0.0172
              Bcc     0.0578     7.753     2.767     2.586  0.0588  0.9970 -0.0502
 
              Baa    -0.0551    -7.394    -2.638    -2.466  0.0605  0.9577 -0.2815
     3 C(13)  Bbb    -0.0027    -0.360    -0.128    -0.120  0.9982 -0.0580  0.0172
              Bcc     0.0578     7.753     2.767     2.586 -0.0001  0.2820  0.9594
 
              Baa    -0.1356     9.814     3.502     3.273  0.0605  0.9626 -0.2641
     4 O(17)  Bbb    -0.0393     2.841     1.014     0.948 -0.0015  0.2647  0.9643
              Bcc     0.1749   -12.655    -4.515    -4.221  0.9982 -0.0579  0.0175
 
              Baa    -0.1356     9.814     3.502     3.274 -0.0132  0.0691  0.9975
     5 O(17)  Bbb    -0.0393     2.842     1.014     0.948  0.0586  0.9959 -0.0682
              Bcc     0.1749   -12.656    -4.516    -4.222  0.9982 -0.0575  0.0172
 

 ---------------------------------------------------------------------------------

 Unable to Open any file for archive entry.
 1\1\GINC-NODE2\FOpt\UB3LYP\Gen\C2Mo1O2(3)\CHEGHO\07-Jul-2023\0\\# opt 
 freq b3lyp/gen nosymm pseudo=read\\Title Card Required\\0,3\Mo,-0.1548
 876388,-0.5370004878,-0.8965226749\C,-0.2689842612,-2.4606042217,-0.75
 39737933\C,-0.1518391509,-1.0380470659,-2.7626714793\O,-0.1524579631,-
 1.3842830589,-3.8772731469\O,-0.336939986,-3.6250511657,-0.7132199056\
 \Version=ES64L-G16RevC.01\HF=-294.1268486\S2=2.01396\S2-1=0.\S2A=2.000
 091\RMSD=9.363e-09\RMSF=8.761e-05\Dipole=0.0745999,1.6304143,1.1590165
 \Quadrupole=4.9251181,-2.3517608,-2.5733573,-0.7752926,-0.4365056,-4.5
 255746\PG=C01 [X(C2Mo1O2)]\\@
 The archive entry for this job was punched.


 REALITY IS FOR PEOPLE WHO CAN'T FACE SCIENCE FICTION.
 Job cpu time:       0 days  0 hours  2 minutes 28.8 seconds.
 Elapsed time:       0 days  0 hours  0 minutes 42.3 seconds.
 File lengths (MBytes):  RWF=     22 Int=      0 D2E=      0 Chk=      2 Scr=      2
 Normal termination of Gaussian 16 at Fri Jul  7 14:22:27 2023.
 Link1:  Proceeding to internal job step number  2.
 ------------------------------------------------------------------
 #N Geom=AllCheck Guess=TCheck SCRF=Check GenChk UB3LYP/ChkBas Freq
 ------------------------------------------------------------------
 1/10=4,29=7,30=1,38=1,40=1/1,3;
 2/12=2,15=1,40=1/2;
 3/5=7,6=2,11=2,14=-4,16=1,17=8,25=1,30=1,67=1,70=2,71=2,74=-5,82=7,116=2,140=1/1,2,3;
 4/5=101/1;
 5/5=2,38=6,98=1/2;
 8/6=4,10=90,11=11/1;
 11/6=1,8=1,9=11,15=111,16=1,31=1/1,2,10;
 10/6=1,31=1/2;
 6/7=2,8=2,9=2,10=2,28=1/1;
 7/8=1,10=1,25=1,30=1/1,2,3,16;
 1/10=4,30=1/3;
 99//99;
 Structure from the checkpoint file:  "MoCO2_sm3.chk"
 -------------------
 Title Card Required
 -------------------
 Charge =  0 Multiplicity = 3
 Redundant internal coordinates found in file.  (old form).
 Mo,0,-0.1548876388,-0.5370004878,-0.8965226749
 C,0,-0.2689842612,-2.4606042217,-0.7539737933
 C,0,-0.1518391509,-1.0380470659,-2.7626714793
 O,0,-0.1524579631,-1.3842830589,-3.8772731469
 O,0,-0.336939986,-3.6250511657,-0.7132199056
 Recover connectivity data from disk.

 GradGradGradGradGradGradGradGradGradGradGradGradGradGradGradGradGradGrad
 Berny optimization.
 Initialization pass.
                           ----------------------------
                           !    Initial Parameters    !
                           ! (Angstroms and Degrees)  !
 --------------------------                            --------------------------
 ! Name  Definition              Value          Derivative Info.                !
 --------------------------------------------------------------------------------
 ! R1    R(1,2)                  1.9322         calculate D2E/DX2 analytically  !
 ! R2    R(1,3)                  1.9322         calculate D2E/DX2 analytically  !
 ! R3    R(2,5)                  1.1671         calculate D2E/DX2 analytically  !
 ! R4    R(3,4)                  1.1671         calculate D2E/DX2 analytically  !
 ! A1    A(2,1,3)               79.2336         calculate D2E/DX2 analytically  !
 ! A2    L(1,2,5,4,-1)         177.7697         calculate D2E/DX2 analytically  !
 ! A3    L(1,3,4,5,-1)         177.7691         calculate D2E/DX2 analytically  !
 ! A4    L(1,2,5,4,-2)         179.983          calculate D2E/DX2 analytically  !
 ! A5    L(1,3,4,5,-2)         180.0148         calculate D2E/DX2 analytically  !
 --------------------------------------------------------------------------------
 Trust Radius=3.00D-01 FncErr=1.00D-07 GrdErr=1.00D-07 EigMax=2.50D+02 EigMin=1.00D-04
 Number of steps in this run=      2 maximum allowed number of steps=      2.
 GradGradGradGradGradGradGradGradGradGradGradGradGradGradGradGradGradGrad

                          Input orientation:                          
 ---------------------------------------------------------------------
 Center     Atomic      Atomic             Coordinates (Angstroms)
 Number     Number       Type             X           Y           Z
 ---------------------------------------------------------------------
      1         42           0       -0.154888   -0.537000   -0.896523
      2          6           0       -0.268984   -2.460604   -0.753974
      3          6           0       -0.151839   -1.038047   -2.762671
      4          8           0       -0.152458   -1.384283   -3.877273
      5          8           0       -0.336940   -3.625051   -0.713220
 ---------------------------------------------------------------------
                    Distance matrix (angstroms):
                    1          2          3          4          5
     1  Mo   0.000000
     2  C    1.932250   0.000000
     3  C    1.932244   2.464195   0.000000
     4  O    3.098833   3.305608   1.167140   0.000000
     5  O    3.098838   1.167140   3.305617   3.881534   0.000000
 Symmetry turned off by external request.
 Stoichiometry    C2MoO2(3)
 Framework group  C1[X(C2MoO2)]
 Deg. of freedom     9
 Full point group                 C1      NOp   1
 Rotational constants (GHZ):           3.2211805           3.2204985           1.6104197
 Basis read from chk: "MoCO2_sm3.chk" (5D, 7F)
 Pseudo-potential data read from chk file.
    78 basis functions,   161 primitive gaussians,    84 cartesian basis functions
    22 alpha electrons       20 beta electrons
       nuclear repulsion energy       159.6114985237 Hartrees.
 NAtoms=    5 NActive=    5 NUniq=    5 SFac= 1.00D+00 NAtFMM=   60 NAOKFM=F Big=F
 Integral buffers will be    131072 words long.
 Raffenetti 2 integral format.
 Two-electron integral symmetry is turned off.
 One-electron integrals computed using PRISM.
   1 Symmetry operations used in ECPInt.
 ECPInt:  NShTT=     300 NPrTT=    1976 LenC2=     298 LenP2D=    1640.
 LDataN:  DoStor=T MaxTD1= 5 Len=  102
 NBasis=    78 RedAO= T EigKep=  9.46D-03  NBF=    78
 NBsUse=    78 1.00D-06 EigRej= -1.00D+00 NBFU=    78
 Defaulting to unpruned grid for atomic number  42.
 Initial guess from the checkpoint file:  "MoCO2_sm3.chk"
 B after Tr=     0.000000    0.000000    0.000000
         Rot=    1.000000    0.000000    0.000000    0.000000 Ang=   0.00 deg.
 Initial guess <Sx>= 0.0000 <Sy>= 0.0000 <Sz>= 1.0000 <S**2>= 2.0140 S= 1.0046
 Keep R1 and R2 ints in memory in canonical form, NReq=16774758.
 Requested convergence on RMS density matrix=1.00D-08 within 128 cycles.
 Requested convergence on MAX density matrix=1.00D-06.
 Requested convergence on             energy=1.00D-06.
 No special actions if energy rises.
 Defaulting to unpruned grid for atomic number  42.
 Defaulting to unpruned grid for atomic number  42.
 Defaulting to unpruned grid for atomic number  42.
 Defaulting to unpruned grid for atomic number  42.
 Defaulting to unpruned grid for atomic number  42.
 Defaulting to unpruned grid for atomic number  42.
 Defaulting to unpruned grid for atomic number  42.
 Defaulting to unpruned grid for atomic number  42.
 SCF Done:  E(UB3LYP) =  -294.126848598     A.U. after    1 cycles
[...]
 
              Baa    -0.0551    -7.394    -2.638    -2.466  0.0605  0.9577 -0.2815
     3 C(13)  Bbb    -0.0027    -0.360    -0.128    -0.120  0.9982 -0.0580  0.0172
              Bcc     0.0578     7.753     2.767     2.586 -0.0001  0.2820  0.9594
 
              Baa    -0.1356     9.814     3.502     3.273  0.0605  0.9626 -0.2641
     4 O(17)  Bbb    -0.0393     2.841     1.014     0.948 -0.0015  0.2647  0.9643
              Bcc     0.1749   -12.655    -4.515    -4.221  0.9982 -0.0579  0.0175
 
              Baa    -0.1356     9.814     3.502     3.274 -0.0132  0.0691  0.9975
     5 O(17)  Bbb    -0.0393     2.842     1.014     0.948  0.0586  0.9959 -0.0682
              Bcc     0.1749   -12.656    -4.516    -4.222  0.9982 -0.0575  0.0172
 

 ---------------------------------------------------------------------------------

   1 Symmetry operations used in ECPInt.
 ECPInt:  NShTT=     300 NPrTT=    1976 LenC2=     298 LenP2D=    1640.
 LDataN:  DoStor=T MaxTD1= 7 Len=  274
 Calling FoFJK, ICntrl=    100127 FMM=F ISym2X=0 I1Cent= 0 IOpClX= 1 NMat=1 NMatS=1 NMatT=0.
 Defaulting to unpruned grid for atomic number  42.
 Defaulting to unpruned grid for atomic number  42.
 Defaulting to unpruned grid for atomic number  42.
 Defaulting to unpruned grid for atomic number  42.
 Defaulting to unpruned grid for atomic number  42.
 Defaulting to unpruned grid for atomic number  42.
 Defaulting to unpruned grid for atomic number  42.
 Defaulting to unpruned grid for atomic number  42.
 Full mass-weighted force constant matrix:
 Low frequencies ---   -3.2214   -2.3393   -0.0010   -0.0003    0.0002    3.4264
 Low frequencies ---  100.3463  364.9270  396.1842
 Diagonal vibrational polarizability:
        1.3704420       8.9844287      11.2952684
 Harmonic frequencies (cm**-1), IR intensities (KM/Mole), Raman scattering
 activities (A**4/AMU), depolarization ratios for plane and unpolarized
 incident light, reduced masses (AMU), force constants (mDyne/A),
 and normal coordinates:
                      1                      2                      3
                      A                      A                      A
 Frequencies --    100.3463               364.9269               396.1840
 Red. masses --     16.7773                12.7387                13.0130
 Frc consts  --      0.0995                 0.9995                 1.2034
 IR Inten    --      1.1001                 0.0001                 7.7874
  Atom  AN      X      Y      Z        X      Y      Z        X      Y      Z
     1  42    -0.00  -0.10  -0.07    -0.00  -0.00   0.00    -0.06   0.00  -0.00
     2   6    -0.01  -0.08   0.20    -0.64   0.04  -0.01     0.64  -0.04   0.01
     3   6     0.01   0.16  -0.15     0.64  -0.04   0.01     0.64  -0.04   0.01
     4   8     0.04   0.60  -0.28    -0.30   0.02  -0.01    -0.30   0.02  -0.00
     5   8    -0.02  -0.07   0.66     0.30  -0.02   0.01    -0.30   0.02  -0.01
                      4                      5                      6
                      A                      A                      A
 Frequencies --    408.3102               460.1205               510.6146
 Red. masses --     12.9776                16.4468                16.5650
 Frc consts  --      1.2748                 2.0515                 2.5447
 IR Inten    --      1.9878                36.1053                 1.5325
  Atom  AN      X      Y      Z        X      Y      Z        X      Y      Z
     1  42     0.00   0.03  -0.05    -0.01  -0.10   0.14    -0.01  -0.15  -0.10
     2   6    -0.01  -0.00   0.64     0.03   0.49   0.05     0.03   0.42  -0.29
     3   6    -0.04  -0.60   0.22    -0.00  -0.21  -0.44    -0.02  -0.13   0.49
     4   8     0.02   0.29  -0.07     0.00  -0.09  -0.49     0.00   0.21   0.43
     5   8     0.00  -0.03  -0.30     0.03   0.49  -0.07     0.03   0.47   0.06
                      7                      8                      9
                      A                      A                      A
 Frequencies --    629.4836              1927.7649              2038.6221
 Red. masses --     13.4469                13.4174                13.3170
 Frc consts  --      3.1394                29.3784                32.6084
 IR Inten    --      0.0995              1201.8955               555.3807
  Atom  AN      X      Y      Z        X      Y      Z        X      Y      Z
     1  42    -0.00  -0.09  -0.06    -0.00  -0.00   0.00    -0.00  -0.01  -0.00
     2   6    -0.00   0.12   0.66     0.03   0.57  -0.02     0.03   0.58  -0.01
     3   6     0.04   0.66  -0.10    -0.00  -0.17  -0.54     0.00   0.18   0.55
     4   8    -0.01  -0.14   0.17     0.00   0.13   0.40    -0.00  -0.12  -0.39
     5   8     0.01   0.11  -0.19    -0.02  -0.42   0.01    -0.02  -0.40   0.01

 -------------------
 - Thermochemistry -
 -------------------
 Temperature   298.150 Kelvin.  Pressure   1.00000 Atm.
 Atom     1 has atomic number 42 and mass  97.90550
 Atom     2 has atomic number  6 and mass  12.00000
 Atom     3 has atomic number  6 and mass  12.00000
 Atom     4 has atomic number  8 and mass  15.99491
 Atom     5 has atomic number  8 and mass  15.99491
 Molecular mass:   153.89533 amu.
 Principal axes and moments of inertia in atomic units:
                           1         2         3
     Eigenvalues --   560.27323 560.391881120.66511
           X           -0.04790   0.03672   0.99818
           Y           -0.58536   0.80871  -0.05784
           Z            0.80936   0.58707   0.01724
 This molecule is an asymmetric top.
 Rotational symmetry number  1.
 Warning -- assumption of classical behavior for rotation
           may cause significant error
 Rotational temperatures (Kelvin)      0.15459     0.15456     0.07729
 Rotational constants (GHZ):           3.22118     3.22050     1.61042
 Zero-point vibrational energy      40890.6 (Joules/Mol)
                                    9.77309 (Kcal/Mol)
 Warning -- explicit consideration of   6 degrees of freedom as
           vibrations may cause significant error
 Vibrational temperatures:    144.38   525.05   570.02   587.47   662.01
          (Kelvin)            734.66   905.69  2773.62  2933.12
 
 Zero-point correction=                           0.015574 (Hartree/Particle)
 Thermal correction to Energy=                    0.020718
 Thermal correction to Enthalpy=                  0.021662
 Thermal correction to Gibbs Free Energy=        -0.015780
 Sum of electronic and zero-point Energies=           -294.111274
 Sum of electronic and thermal Energies=              -294.106131
 Sum of electronic and thermal Enthalpies=            -294.105187
 Sum of electronic and thermal Free Energies=         -294.142628
 
                     E (Thermal)             CV                S
                      KCal/Mol        Cal/Mol-Kelvin    Cal/Mol-Kelvin
 Total                   13.001             15.946             78.802
 Electronic               0.000              0.000              2.183
 Translational            0.889              2.981             41.003
 Rotational               0.889              2.981             27.356
 Vibrational             11.223              9.985              8.261
 Vibration     1          0.604              1.949              3.448
 Vibration     2          0.738              1.544              1.101
 Vibration     3          0.763              1.478              0.977
 Vibration     4          0.773              1.452              0.933
 Vibration     5          0.818              1.339              0.766
 Vibration     6          0.866              1.226              0.632
                       Q            Log10(Q)             Ln(Q)
 Total Bot       0.181164D+08          7.258073         16.712331
 Total V=0       0.264116D+15         14.421795         33.207411
 Vib (Bot)       0.378992D-06         -6.421370        -14.785750
 Vib (Bot)    1  0.204506D+01          0.310705          0.715425
 Vib (Bot)    2  0.500611D+00         -0.300500         -0.691926
 Vib (Bot)    3  0.451135D+00         -0.345693         -0.795988
 Vib (Bot)    4  0.433850D+00         -0.362660         -0.835057
 Vib (Bot)    5  0.369622D+00         -0.432242         -0.995274
 Vib (Bot)    6  0.318828D+00         -0.496444         -1.143104
 Vib (V=0)       0.552526D+01          0.742352          1.709330
 Vib (V=0)    1  0.260529D+01          0.415856          0.957544
 Vib (V=0)    2  0.120754D+01          0.081901          0.188584
 Vib (V=0)    3  0.117344D+01          0.069461          0.159941
 Vib (V=0)    4  0.116199D+01          0.065201          0.150131
 Vib (V=0)    5  0.112179D+01          0.049911          0.114924
 Vib (V=0)    6  0.109300D+01          0.038621          0.088928
 Electronic      0.300000D+01          0.477121          1.098612
 Translational   0.750399D+08          7.875292         18.133530
 Rotational      0.212339D+06          5.327029         12.265938
 -------------------------------------------------------------------
 Center     Atomic                   Forces (Hartrees/Bohr)
 Number     Number              X              Y              Z
 -------------------------------------------------------------------
      1       42          -0.000015845   -0.000037637   -0.000027568
      2        6           0.000029460    0.000180731    0.000003246
      3        6           0.000018955    0.000060219    0.000170849
      4        8          -0.000011883   -0.000052999   -0.000141453
      5        8          -0.000020687   -0.000150313   -0.000005074
 -------------------------------------------------------------------
 Cartesian Forces:  Max     0.000180731 RMS     0.000087617
 FormGI is forming the generalized inverse of G from B-inverse, IUseBI=4.

 GradGradGradGradGradGradGradGradGradGradGradGradGradGradGradGradGradGrad
 Berny optimization.
 Internal  Forces:  Max     0.000151003 RMS     0.000074502
 Search for a local minimum.
 Step number   1 out of a maximum of    2
 All quantities printed in internal units (Hartrees-Bohrs-Radians)
 Second derivative matrix not updated -- analytic derivatives used.
 The second derivative matrix:
                          R1        R2        R3        R4        A1
           R1           0.20023
           R2           0.01699   0.20024
           R3           0.07406  -0.02020   1.03943
           R4          -0.02021   0.07407   0.02747   1.03943
           A1          -0.00873  -0.00874   0.00518   0.00518   0.28102
           A2           0.01218  -0.00510  -0.00056  -0.00094  -0.05544
           A3          -0.00509   0.01219  -0.00094  -0.00056  -0.05544
           A4          -0.00001   0.00001   0.00003  -0.00002   0.00002
           A5           0.00003  -0.00004  -0.00002   0.00002  -0.00003
                          A2        A3        A4        A5
           A2           0.11932
           A3           0.00823   0.11932
           A4           0.00001   0.00001   0.08334
           A5           0.00000  -0.00002  -0.00625   0.08331
 ITU=  0
     Eigenvalues ---    0.07707   0.08958   0.09455   0.10664   0.17710
     Eigenvalues ---    0.21177   0.31601   1.02255   1.07036
 Angle between quadratic step and forces=  53.82 degrees.
 Linear search not attempted -- first point.
 Iteration  1 RMS(Cart)=  0.00050983 RMS(Int)=  0.00000008
 Iteration  2 RMS(Cart)=  0.00000007 RMS(Int)=  0.00000000
 Variable       Old X    -DE/DX   Delta X   Delta X   Delta X     New X
                                 (Linear)    (Quad)   (Total)
    R1        3.65142  -0.00003   0.00000  -0.00018  -0.00018   3.65124
    R2        3.65141  -0.00003   0.00000  -0.00018  -0.00018   3.65124
    R3        2.20557   0.00015   0.00000   0.00015   0.00015   2.20573
    R4        2.20558   0.00015   0.00000   0.00015   0.00015   2.20573
    A1        1.38289  -0.00002   0.00000  -0.00019  -0.00019   1.38270
    A2        3.10267  -0.00002   0.00000  -0.00025  -0.00025   3.10242
    A3        3.10266  -0.00002   0.00000  -0.00023  -0.00023   3.10243
    A4        3.14130   0.00002   0.00000   0.00028   0.00028   3.14157
    A5        3.14185  -0.00002   0.00000  -0.00026  -0.00026   3.14159
         Item               Value     Threshold  Converged?
 Maximum Force            0.000151     0.000450     YES
 RMS     Force            0.000075     0.000300     YES
 Maximum Displacement     0.000916     0.001800     YES
 RMS     Displacement     0.000510     0.001200     YES
 Predicted change in Energy=-4.181406D-08
 Optimization completed.
    -- Stationary point found.
                           ----------------------------
                           !   Optimized Parameters   !
                           ! (Angstroms and Degrees)  !
 --------------------------                            --------------------------
 ! Name  Definition              Value          Derivative Info.                !
 --------------------------------------------------------------------------------
 ! R1    R(1,2)                  1.9322         -DE/DX =    0.0                 !
 ! R2    R(1,3)                  1.9322         -DE/DX =    0.0                 !
 ! R3    R(2,5)                  1.1671         -DE/DX =    0.0002              !
 ! R4    R(3,4)                  1.1671         -DE/DX =    0.0002              !
 ! A1    A(2,1,3)               79.2336         -DE/DX =    0.0                 !
 ! A2    L(1,2,5,4,-1)         177.7697         -DE/DX =    0.0                 !
 ! A3    L(1,3,4,5,-1)         177.7691         -DE/DX =    0.0                 !
 ! A4    L(1,2,5,4,-2)         179.983          -DE/DX =    0.0                 !
 ! A5    L(1,3,4,5,-2)         180.0148         -DE/DX =    0.0                 !
 --------------------------------------------------------------------------------
 GradGradGradGradGradGradGradGradGradGradGradGradGradGradGradGradGradGrad


 ----------------------------------------------------------------------

 Electric dipole moment (input orientation):
 (Debye = 10**-18 statcoulomb cm , SI units = C m)
                  (au)            (Debye)         (10**-30 SI)
   Tot        0.200178D+01      0.508803D+01      0.169718D+02
   x          0.745999D-01      0.189614D+00      0.632484D+00
   y          0.163041D+01      0.414410D+01      0.138232D+02
   z          0.115902D+01      0.294593D+01      0.982655D+01

 Dipole polarizability, Alpha (input orientation).
 (esu units = cm**3 , SI units = C**2 m**2 J**-1)
 Alpha(0;0):
               (au)            (10**-24 esu)      (10**-40 SI)
   iso        0.744826D+02      0.110372D+02      0.122805D+02
   aniso      0.215654D+02      0.319567D+01      0.355566D+01
   xx         0.609324D+02      0.902925D+01      0.100464D+02
   yx         0.116745D+01      0.172998D+00      0.192486D+00
   yy         0.799168D+02      0.118424D+02      0.131765D+02
   zx        -0.592882D+00     -0.878560D-01     -0.977530D-01
   zy        -0.371534D+01     -0.550557D+00     -0.612577D+00
   zz         0.825986D+02      0.122399D+02      0.136187D+02

 ----------------------------------------------------------------------

 Dipole orientation:
    42         -0.20979391          0.79706146         -1.81834816
     6         -0.36537708         -1.52607967         -4.63112249
     6         -0.05441551          3.12018019         -4.63113885
     8          0.03548821          4.45633253         -6.38361655
     8         -0.45425184         -2.86233661         -6.38357183

 Electric dipole moment (dipole orientation):
 (Debye = 10**-18 statcoulomb cm , SI units = C m)
                  (au)            (Debye)         (10**-30 SI)
   Tot        0.200178D+01      0.508803D+01      0.169718D+02
   x          0.000000D+00      0.000000D+00      0.000000D+00
   y          0.000000D+00      0.000000D+00      0.000000D+00
   z          0.200178D+01      0.508803D+01      0.169718D+02

 Dipole polarizability, Alpha (dipole orientation).
 (esu units = cm**3 , SI units = C**2 m**2 J**-1)
 Alpha(0;0):
               (au)            (10**-24 esu)      (10**-40 SI)
   iso        0.744826D+02      0.110372D+02      0.122805D+02
   aniso      0.215654D+02      0.319567D+01      0.355566D+01
   xx         0.609635D+02      0.903385D+01      0.100515D+02
   yx         0.162698D+01      0.241094D+00      0.268253D+00
   yy         0.851537D+02      0.126185D+02      0.140400D+02
   zx        -0.356675D-02     -0.528538D-03     -0.588078D-03
   zy        -0.228157D-02     -0.338094D-03     -0.376181D-03
   zz         0.773306D+02      0.114592D+02      0.127501D+02

 ----------------------------------------------------------------------
 Unable to Open any file for archive entry.
 1\1\GINC-NODE2\Freq\UB3LYP\Gen\C2Mo1O2(3)\CHEGHO\07-Jul-2023\0\\#N Geo
 m=AllCheck Guess=TCheck SCRF=Check GenChk UB3LYP/ChkBas Freq\\Title Ca
 rd Required\\0,3\Mo,-0.1548876388,-0.5370004878,-0.8965226749\C,-0.268
 9842612,-2.4606042217,-0.7539737933\C,-0.1518391509,-1.0380470659,-2.7
 626714793\O,-0.1524579631,-1.3842830589,-3.8772731469\O,-0.336939986,-
 3.6250511657,-0.7132199056\\Version=ES64L-G16RevC.01\HF=-294.1268486\S
 2=2.01396\S2-1=0.\S2A=2.000091\RMSD=1.124e-09\RMSF=8.762e-05\ZeroPoint
 =0.0155744\Thermal=0.0207179\ETot=-294.1061307\HTot=-294.1051865\GTot=
 -294.1426281\Dipole=0.0745999,1.6304145,1.1590167\DipoleDeriv=0.627740
 8,-0.0586906,0.0235783,-0.0585539,-0.3447871,0.1066956,0.0244514,0.106
 2544,-0.4235559,-0.2407771,0.1637009,-0.0628624,0.1825417,2.5808595,-1
 .0582029,-0.0010301,0.0161038,-0.1402951,-0.2515361,0.0066849,0.007730
 2,-0.0120892,-0.1679719,0.9801249,-0.0551366,-0.0934695,2.6193899,-0.0
 641427,-0.0016433,-0.0043294,0.0088496,-0.1031158,-0.6417344,0.0305563
 ,-0.0399991,-1.9623065,-0.0712849,-0.110052,0.0358834,-0.1207483,-1.96
 49846,0.6131168,0.0011591,0.0111104,-0.0932324\Polar=60.9323751,1.1674
 45,79.9167684,-0.5928817,-3.7153439,82.5986463\Quadrupole=4.9251192,-2
 .351761,-2.5733582,-0.7752928,-0.4365057,-4.5255753\PG=C01 [X(C2Mo1O2)
 ]\NImag=0\\0.01675701,0.01311356,0.26657845,0.00150324,0.08360316,0.20
 890761,-0.02114081,-0.00632101,-0.00162718,0.05377003,-0.00640765,-0.1
 4099493,-0.03601143,0.06040519,1.08797445,-0.00181796,-0.03895247,-0.0
 4643702,-0.00234476,-0.02386322,0.10599861,-0.02088877,-0.00246017,-0.
 00199895,0.00372139,0.00002863,0.00294015,0.05041688,-0.00237850,-0.08
 000376,-0.06034893,0.00060258,0.02759990,0.04464823,0.00353701,0.19810
 813,-0.00179096,-0.05741228,-0.10767338,0.00497216,0.08033149,-0.01613
 496,0.00013064,0.28814305,0.99921029,0.01279246,0.00051303,0.00064136,
 -0.00184927,0.00014498,-0.00062122,-0.03138555,-0.00110494,-0.00058460
 ,0.01957345,0.00068096,0.02047769,-0.01388825,-0.00048280,-0.01298046,
 -0.00916486,-0.00106884,-0.13000887,-0.26613834,0.00044905,0.11390989,
 0.00120974,-0.00368836,-0.07083023,-0.00273381,-0.04588023,0.00322112,
 -0.00046044,-0.26422917,-0.88134635,0.00044869,0.28775447,0.94996166,0
 .01248010,-0.00484541,0.00148153,-0.03450134,-0.05417115,0.00184379,-0
 .00186395,-0.00065615,-0.00272724,0.00086890,0.00042163,0.00153583,0.0
 2301628,-0.00500837,-0.06605746,0.02664544,-0.05420396,-0.96159896,0.0
 2733232,-0.00003664,-0.01569541,-0.04492391,-0.00000212,0.00860175,0.0
 2604329,0.05925108,1.03475007,0.00089594,0.01644995,0.01603303,0.00173
 359,0.02542338,-0.04664776,-0.00061140,-0.00821318,0.00594440,0.000115
 78,0.00143699,-0.00100620,-0.00213391,-0.03509714,0.02567653\\0.000015
 85,0.00003764,0.00002757,-0.00002946,-0.00018073,-0.00000325,-0.000018
 95,-0.00006022,-0.00017085,0.00001188,0.00005300,0.00014145,0.00002069
 ,0.00015031,0.00000507\\\@
 The archive entry for this job was punched.


 A COMPLEXITY IS MERELY A DISARRANGEMENT OF SIMPLICITIES.

                                    -- G. O. ABELL IN "EXPLORATION OF THE UNIVERSE"
 Job cpu time:       0 days  0 hours  1 minutes 33.3 seconds.
 Elapsed time:       0 days  0 hours  0 minutes 25.0 seconds.
 File lengths (MBytes):  RWF=     87 Int=      0 D2E=      0 Chk=      3 Scr=      2
 Normal termination of Gaussian 16 at Fri Jul  7 14:22:53 2023.
