 Entering Gaussian System, Link 0=/apps/GAU16/avx2/g16/g16
 Initial command:
 /apps/GAU16/avx2//g16/l1.exe "/localscratch/chegho/Gau-166664.inp" -scrdir="/localscratch/chegho/"
 Entering Link 1 = /apps/GAU16/avx2//g16/l1.exe PID=    166665.
  
 Copyright (c) 1988-2019, Gaussian, Inc.  All Rights Reserved.
  
 This is part of the Gaussian(R) 16 program.  It is based on
 the Gaussian(R) 09 system (copyright 2009, Gaussian, Inc.),
 the Gaussian(R) 03 system (copyright 2003, Gaussian, Inc.),
 the Gaussian(R) 98 system (copyright 1998, Gaussian, Inc.),
 the Gaussian(R) 94 system (copyright 1995, Gaussian, Inc.),
 the Gaussian 92(TM) system (copyright 1992, Gaussian, Inc.),
 the Gaussian 90(TM) system (copyright 1990, Gaussian, Inc.),
 the Gaussian 88(TM) system (copyright 1988, Gaussian, Inc.),
 the Gaussian 86(TM) system (copyright 1986, Carnegie Mellon
 University), and the Gaussian 82(TM) system (copyright 1983,
 Carnegie Mellon University). Gaussian is a federally registered
 trademark of Gaussian, Inc.
  
 This software contains proprietary and confidential information,
 including trade secrets, belonging to Gaussian, Inc.
  
 This software is provided under written license and may be
 used, copied, transmitted, or stored only in accord with that
 written license.
  
 The following legend is applicable only to US Government
 contracts under FAR:
  
                    RESTRICTED RIGHTS LEGEND
  
 Use, reproduction and disclosure by the US Government is
 subject to restrictions as set forth in subparagraphs (a)
 and (c) of the Commercial Computer Software - Restricted
 Rights clause in FAR 52.227-19.
  
 Gaussian, Inc.
 340 Quinnipiac St., Bldg. 40, Wallingford CT 06492
  
  
 ---------------------------------------------------------------
 Warning -- This program may not be used in any manner that
 competes with the business of Gaussian, Inc. or will provide
 assistance to any competitor of Gaussian, Inc.  The licensee
 of this program is prohibited from giving any competitor of
 Gaussian, Inc. access to this program.  By using this program,
 the user acknowledges that Gaussian, Inc. is engaged in the
 business of creating and licensing software in the field of
 computational chemistry and represents and warrants to the
 licensee that it is not a competitor of Gaussian, Inc. and that
 it will not use this program in any manner prohibited above.
 ---------------------------------------------------------------
  

 Cite this work as:
 Gaussian 16, Revision C.01,
 M. J. Frisch, G. W. Trucks, H. B. Schlegel, G. E. Scuseria, 
 M. A. Robb, J. R. Cheeseman, G. Scalmani, V. Barone, 
 G. A. Petersson, H. Nakatsuji, X. Li, M. Caricato, A. V. Marenich, 
 J. Bloino, B. G. Janesko, R. Gomperts, B. Mennucci, H. P. Hratchian, 
 J. V. Ortiz, A. F. Izmaylov, J. L. Sonnenberg, D. Williams-Young, 
 F. Ding, F. Lipparini, F. Egidi, J. Goings, B. Peng, A. Petrone, 
 T. Henderson, D. Ranasinghe, V. G. Zakrzewski, J. Gao, N. Rega, 
 G. Zheng, W. Liang, M. Hada, M. Ehara, K. Toyota, R. Fukuda, 
 J. Hasegawa, M. Ishida, T. Nakajima, Y. Honda, O. Kitao, H. Nakai, 
 T. Vreven, K. Throssell, J. A. Montgomery, Jr., J. E. Peralta, 
 F. Ogliaro, M. J. Bearpark, J. J. Heyd, E. N. Brothers, K. N. Kudin, 
 V. N. Staroverov, T. A. Keith, R. Kobayashi, J. Normand, 
 K. Raghavachari, A. P. Rendell, J. C. Burant, S. S. Iyengar, 
 J. Tomasi, M. Cossi, J. M. Millam, M. Klene, C. Adamo, R. Cammi, 
 J. W. Ochterski, R. L. Martin, K. Morokuma, O. Farkas, 
 J. B. Foresman, and D. J. Fox, Gaussian, Inc., Wallingford CT, 2019.
 
 ******************************************
 Gaussian 16:  ES64L-G16RevC.01  3-Jul-2019
                 7-Jul-2023 
 ******************************************
 %nprocshared=8
 Will use up to    8 processors via shared memory.
 %chk=MoCO_sm5.chk
 %mem=32GB
 ----------------------------------------------------------
 # opt freq b3lyp/gen nosymm pseudo=read scf=maxcycles=1000
 ----------------------------------------------------------
 1/18=20,19=15,26=3,38=1/1,3;
 2/9=110,12=2,15=1,17=6,18=5,40=1/2;
 3/5=7,11=2,16=1,17=8,25=1,30=1,71=1,74=-5/1,2,3;
 4//1;
 5/5=2,7=1000,38=5/2;
 6/7=2,8=2,9=2,10=2,28=1/1;
 7/30=1/1,2,3,16;
 1/18=20,19=15,26=3/3(2);
 2/9=110,15=1/2;
 99//99;
 2/9=110,15=1/2;
 3/5=7,6=1,11=2,16=1,17=8,25=1,30=1,71=1,74=-5,82=7/1,2,3;
 4/5=5,16=3,69=1/1;
 5/5=2,7=1000,38=5/2;
 7/30=1/1,2,3,16;
 1/18=20,19=15,26=3/3(-5);
 2/9=110,15=1/2;
 6/7=2,8=2,9=2,10=2,19=2,28=1/1;
 99/9=1/99;
 -------------------
 Title Card Required
 -------------------
 Symbolic Z-matrix:
 Charge =  0 Multiplicity = 5
 42                   -0.06144   0.81798  -1.76018 
 6                    -0.10203  -0.32514  -3.25456 
 8                    -0.12776  -1.04762  -4.193 
 

 GradGradGradGradGradGradGradGradGradGradGradGradGradGradGradGradGradGrad
 Berny optimization.
 Initialization pass.
                           ----------------------------
                           !    Initial Parameters    !
                           ! (Angstroms and Degrees)  !
 --------------------------                            --------------------------
 ! Name  Definition              Value          Derivative Info.                !
 --------------------------------------------------------------------------------
 ! R1    R(1,2)                  1.8819         estimate D2E/DX2                !
 ! R2    R(2,3)                  1.1846         estimate D2E/DX2                !
 ! A1    L(1,2,3,-1,-1)        180.1776         estimate D2E/DX2                !
 ! A2    L(1,2,3,-2,-2)        179.9854         estimate D2E/DX2                !
 --------------------------------------------------------------------------------
 Trust Radius=3.00D-01 FncErr=1.00D-07 GrdErr=1.00D-06 EigMax=2.50D+02 EigMin=1.00D-04
 Number of steps in this run=     20 maximum allowed number of steps=    100.
 GradGradGradGradGradGradGradGradGradGradGradGradGradGradGradGradGradGrad

                          Input orientation:                          
 ---------------------------------------------------------------------
 Center     Atomic      Atomic             Coordinates (Angstroms)
 Number     Number       Type             X           Y           Z
 ---------------------------------------------------------------------
      1         42           0       -0.061440    0.817981   -1.760181
      2          6           0       -0.102029   -0.325136   -3.254556
      3          8           0       -0.127757   -1.047617   -4.192999
 ---------------------------------------------------------------------
                    Distance matrix (angstroms):
                    1          2          3
     1  Mo   0.000000
     2  C    1.881893   0.000000
     3  O    3.066506   1.184616   0.000000
 Symmetry turned off by external request.
 This structure is nearly, but not quite of a higher symmetry.
 Consider Symm=Loose if the higher symmetry is desired.
 Stoichiometry    CMoO(5)
 Framework group  C1[X(CMoO)]
 Deg. of freedom     3
 Full point group                 C1      NOp   1
 Rotational constants (GHZ):    10767047.9238170           3.3215614           3.3215604
 General basis read from cards:  (5D, 7F)
 ======================================================================================================
                                       Pseudopotential Parameters
 ======================================================================================================
  Center     Atomic      Valence      Angular      Power
  Number     Number     Electrons     Momentum     of R      Exponent        Coefficient   SO-Coeffient
 ======================================================================================================
    1         42           14
                                      F and up 
                                                     0      537.9667807       -0.04694920    0.00000000
                                                     1      147.8982938      -20.20800840    0.00000000
                                                     2       45.7358898     -106.21163020    0.00000000
                                                     2       13.2911467      -41.81073680    0.00000000
                                                     2        4.7059961       -4.20541030    0.00000000
                                      S - F
                                                     0      110.2991760        2.80637170    0.00000000
                                                     1       23.2014645       44.51620120    0.00000000
                                                     2        5.3530131       82.77852270    0.00000000
                                      P - F
                                                     0       63.2901397        4.94208760    0.00000000
                                                     1       23.3315302       25.86049760    0.00000000
                                                     2       24.6759423      132.47087420    0.00000000
                                                     2        4.6493040       57.31497940    0.00000000
                                      D - F
                                                     0      104.4839977        3.00545910    0.00000000
                                                     1       66.2307245       26.36378510    0.00000000
                                                     2       39.1283176      183.38491990    0.00000000
                                                     2       13.1164437       98.44530680    0.00000000
                                                     2        3.6280263       22.49013770    0.00000000
    2          6
                                   No pseudopotential on this center.
    3          8
                                   No pseudopotential on this center.
 ======================================================================================================
    50 basis functions,   105 primitive gaussians,    54 cartesian basis functions
    16 alpha electrons       12 beta electrons
       nuclear repulsion energy        64.3897607624 Hartrees.
 NAtoms=    3 NActive=    3 NUniq=    3 SFac= 1.00D+00 NAtFMM=   60 NAOKFM=F Big=F
 Integral buffers will be    131072 words long.
 Raffenetti 2 integral format.
 Two-electron integral symmetry is turned off.
 One-electron integrals computed using PRISM.
   1 Symmetry operations used in ECPInt.
 ECPInt:  NShTT=     136 NPrTT=     829 LenC2=     137 LenP2D=     782.
 LDataN:  DoStor=T MaxTD1= 5 Len=  102
 NBasis=    50 RedAO= T EigKep=  1.01D-02  NBF=    50
 NBsUse=    50 1.00D-06 EigRej= -1.00D+00 NBFU=    50
 Defaulting to unpruned grid for atomic number  42.
 ExpMin= 2.47D-02 ExpMax= 5.48D+03 ExpMxC= 8.25D+02 IAcc=3 IRadAn=         5 AccDes= 0.00D+00
 Harris functional with IExCor=  402 and IRadAn=       5 diagonalized for initial guess.
 HarFok:  IExCor=  402 AccDes= 0.00D+00 IRadAn=         5 IDoV= 1 UseB2=F ITyADJ=14
 ICtDFT=  3500011 ScaDFX=  1.000000  1.000000  1.000000  1.000000
 Defaulting to unpruned grid for atomic number  42.
 FoFCou: FMM=F IPFlag=           0 FMFlag=      100000 FMFlg1=           0
         NFxFlg=           0 DoJE=T BraDBF=F KetDBF=T FulRan=T
         wScrn=  0.000000 ICntrl=       500 IOpCl=  0 I1Cent=   200000004 NGrid=           0
         NMat0=    1 NMatS0=      1 NMatT0=    0 NMatD0=    1 NMtDS0=    0 NMtDT0=    0
 Symmetry not used in FoFCou.
 Initial guess <Sx>= 0.0000 <Sy>= 0.0000 <Sz>= 2.0000 <S**2>= 6.0000 S= 2.0000
 Keep R1 and R2 ints in memory in canonical form, NReq=8641454.
 Requested convergence on RMS density matrix=1.00D-08 within1000 cycles.
 Requested convergence on MAX density matrix=1.00D-06.
 Requested convergence on             energy=1.00D-06.
 No special actions if energy rises.
 Defaulting to unpruned grid for atomic number  42.
 Defaulting to unpruned grid for atomic number  42.
 Defaulting to unpruned grid for atomic number  42.
 Defaulting to unpruned grid for atomic number  42.
 Defaulting to unpruned grid for atomic number  42.
 Defaulting to unpruned grid for atomic number  42.
 Defaulting to unpruned grid for atomic number  42.
 Defaulting to unpruned grid for atomic number  42.
 EnCoef did     5 forward-backward iterations
 SCF Done:  E(UB3LYP) =  -180.751865248     A.U. after   45 cycles
            NFock= 45  Conv=0.69D-08     -V/T= 2.3367
 <Sx>= 0.0000 <Sy>= 0.0000 <Sz>= 2.0000 <S**2>= 6.0502 S= 2.0100
 <L.S>=  0.00000000000    
 Annihilation of the first spin contaminant:
 S**2 before annihilation     6.0502,   after     6.0002

 **********************************************************************

            Population analysis using the SCF Density.

 **********************************************************************

 Alpha  occ. eigenvalues --  -19.18939 -10.25683  -2.47459  -1.51790  -1.51037
 Alpha  occ. eigenvalues --   -1.49277  -1.07723  -0.53220  -0.42033  -0.41890
 Alpha  occ. eigenvalues --   -0.40353  -0.23692  -0.21523  -0.21356  -0.21152
 Alpha  occ. eigenvalues --   -0.19426
 Alpha virt. eigenvalues --   -0.07346  -0.05178  -0.04302   0.03505   0.04453
 Alpha virt. eigenvalues --    0.05028   0.11162   0.12161   0.15452   0.23769
 Alpha virt. eigenvalues --    0.29246   0.29273   0.32360   0.33435   0.44481
 Alpha virt. eigenvalues --    0.65182   0.66111   0.69224   0.84840   0.89740
 Alpha virt. eigenvalues --    1.01838   1.02971   1.54065   1.54150   1.54153
 Alpha virt. eigenvalues --    1.55338   1.62517   1.96248   1.96253   2.37195
 Alpha virt. eigenvalues --    2.57500   2.58815   2.94742   6.62028
  Beta  occ. eigenvalues --  -19.18710 -10.25957  -2.38517  -1.43005  -1.39599
  Beta  occ. eigenvalues --   -1.39098  -1.07337  -0.52992  -0.41108  -0.41052
  Beta  occ. eigenvalues --   -0.39945  -0.17527
  Beta virt. eigenvalues --   -0.10521  -0.08904  -0.05016  -0.03841  -0.03564
  Beta virt. eigenvalues --   -0.02356  -0.01835   0.04862   0.05759   0.05938
  Beta virt. eigenvalues --    0.14611   0.14907   0.17054   0.26317   0.34533
  Beta virt. eigenvalues --    0.34699   0.35195   0.35909   0.47152   0.65494
  Beta virt. eigenvalues --    0.65605   0.69825   0.84885   0.89890   1.02652
  Beta virt. eigenvalues --    1.03130   1.53837   1.53867   1.54711   1.54745
  Beta virt. eigenvalues --    1.63014   1.96231   1.96267   2.37136   2.58180
  Beta virt. eigenvalues --    2.58187   2.94942   6.63849
          Condensed to atoms (all electrons):
               1          2          3
     1  Mo  13.508235   0.351884  -0.025716
     2  C    0.351884   4.994116   0.548530
     3  O   -0.025716   0.548530   7.748253
          Atomic-Atomic Spin Densities.
               1          2          3
     1  Mo   3.979335   0.036795  -0.003832
     2  C    0.036795  -0.161647   0.014256
     3  O   -0.003832   0.014256   0.087876
 Mulliken charges and spin densities:
               1          2
     1  Mo   0.165597   4.012297
     2  C    0.105470  -0.110596
     3  O   -0.271067   0.098299
 Sum of Mulliken charges =  -0.00000   4.00000
 Mulliken charges and spin densities with hydrogens summed into heavy atoms:
               1          2
     1  Mo   0.165597   4.012297
     2  C    0.105470  -0.110596
     3  O   -0.271067   0.098299
 Electronic spatial extent (au):  <R**2>=           1035.1660
 Charge=             -0.0000 electrons
 Dipole moment (field-independent basis, Debye):
    X=              0.0844    Y=              2.3717    Z=              3.0981  Tot=              3.9027
 Quadrupole moment (field-independent basis, Debye-Ang):
   XX=            -33.8569   YY=            -30.6918   ZZ=            -47.2242
   XY=             -0.0187   XZ=             -0.5214   YZ=             -4.9315
 Traceless Quadrupole moment (field-independent basis, Debye-Ang):
   XX=              3.4007   YY=              6.5659   ZZ=             -9.9666
   XY=             -0.0187   XZ=             -0.5214   YZ=             -4.9315
 Octapole moment (field-independent basis, Debye-Ang**2):
  XXX=              8.0003  YYY=            -25.7926  ZZZ=            297.8469  XYY=              2.7202
  XXY=            -11.1757  XXZ=             81.2004  XZZ=              4.8637  YZZ=              8.0399
  YYZ=             80.4667  XYZ=              0.2019
 Hexadecapole moment (field-independent basis, Debye-Ang**3):
 XXXX=            -55.5669 YYYY=           -162.8693 ZZZZ=          -1620.6558 XXXY=              1.0025
 XXXZ=            -21.5872 YYYX=              0.8339 YYYZ=              2.0051 ZZZX=            -30.7643
 ZZZY=            -71.0397 XXYY=            -38.1644 XXZZ=           -241.0391 YYZZ=           -272.4942
 XXYZ=              4.8595 YYXZ=             -7.6677 ZZXY=             -1.2760
 N-N= 6.438976076242D+01 E-N=-5.334631209941D+02  KE= 1.352196900696D+02
                          Isotropic Fermi Contact Couplings
        Atom                 a.u.       MegaHertz       Gauss      10(-4) cm-1
     1  Mo(95)             0.00001      -0.00077      -0.00028      -0.00026
     2  C(13)             -0.08863     -24.90890      -8.88812      -8.30872
     3  O(17)              0.01862      -2.82256      -1.00716      -0.94151
 --------------------------------------------------------
       Center         ----  Spin Dipole Couplings  ----
                      3XX-RR        3YY-RR        3ZZ-RR
 --------------------------------------------------------
     1   Atom       -0.029843      0.065334     -0.035491
     2   Atom       -0.218443      0.095884      0.122559
     3   Atom       -0.566151      0.392248      0.173903
 --------------------------------------------------------
                        XY            XZ            YZ
 --------------------------------------------------------
     1   Atom        0.014624     -0.015166     -0.187622
     2   Atom        0.024259     -0.008407      0.046237
     3   Atom        0.094308     -0.061370     -0.424816
 --------------------------------------------------------


 ---------------------------------------------------------------------------------
              Anisotropic Spin Dipole Couplings in Principal Axis System
 ---------------------------------------------------------------------------------

       Atom             a.u.   MegaHertz   Gauss  10(-4) cm-1        Axes

              Baa    -0.1794     6.267     2.236     2.091  0.0211  0.6075  0.7941
     1 Mo(95) Bbb    -0.0316     1.103     0.394     0.368  0.9961 -0.0813  0.0357
              Bcc     0.2110    -7.370    -2.630    -2.458  0.0862  0.7902 -0.6068
 
              Baa    -0.2207   -29.619   -10.569    -9.880  0.9960 -0.0815  0.0354
     2 C(13)  Bbb     0.0632     8.483     3.027     2.830  0.0862  0.7918 -0.6047
              Bcc     0.1575    21.137     7.542     7.050  0.0213  0.6053  0.7957
 
              Baa    -0.5760    41.682    14.873    13.904  0.9960 -0.0815  0.0353
     3 O(17)  Bbb    -0.1553    11.240     4.011     3.749  0.0219  0.6105  0.7917
              Bcc     0.7314   -52.923   -18.884   -17.653  0.0861  0.7878 -0.6098
 

 ---------------------------------------------------------------------------------

   1 Symmetry operations used in ECPInt.
 ECPInt:  NShTT=     136 NPrTT=     829 LenC2=     137 LenP2D=     782.
 LDataN:  DoStor=T MaxTD1= 6 Len=  172
 Calling FoFJK, ICntrl=      2127 FMM=F ISym2X=0 I1Cent= 0 IOpClX= 1 NMat=1 NMatS=1 NMatT=0.
 Defaulting to unpruned grid for atomic number  42.
 Defaulting to unpruned grid for atomic number  42.
 Defaulting to unpruned grid for atomic number  42.
 Defaulting to unpruned grid for atomic number  42.
 Defaulting to unpruned grid for atomic number  42.
 Defaulting to unpruned grid for atomic number  42.
 Defaulting to unpruned grid for atomic number  42.
 Defaulting to unpruned grid for atomic number  42.
 -------------------------------------------------------------------
 Center     Atomic                   Forces (Hartrees/Bohr)
 Number     Number              X              Y              Z
 -------------------------------------------------------------------
      1       42           0.000584086    0.016243432    0.021130224
      2        6          -0.000979645   -0.027228607   -0.035233194
      3        8           0.000395559    0.010985176    0.014102970
 -------------------------------------------------------------------
 Cartesian Forces:  Max     0.035233194 RMS     0.018300381

 GradGradGradGradGradGradGradGradGradGradGradGradGradGradGradGradGradGrad
 Berny optimization.
 FormGI is forming the generalized inverse of G from B-inverse, IUseBI=4.
 Internal  Forces:  Max     0.026656757 RMS     0.016049598
 Search for a local minimum.
 Step number   1 out of a maximum of   20
 All quantities printed in internal units (Hartrees-Bohrs-Radians)
 Mixed Optimization -- RFO/linear search
 Second derivative matrix not updated -- first step.
 The second derivative matrix:
                          R1        R2        A1        A2
           R1           0.25226
           R2           0.00000   1.12949
           A1           0.00000   0.00000   0.04541
           A2           0.00000   0.00000   0.00000   0.04541
 ITU=  0
     Eigenvalues ---    0.04541   0.25226   1.12946
 RFO step:  Lambda=-3.06541705D-03 EMin= 4.54089264D-02
 Linear search not attempted -- first point.
 Iteration  1 RMS(Cart)=  0.03979308 RMS(Int)=  0.00029109
 Iteration  2 RMS(Cart)=  0.00000105 RMS(Int)=  0.00029109
 Iteration  3 RMS(Cart)=  0.00000000 RMS(Int)=  0.00029109
 Variable       Old X    -DE/DX   Delta X   Delta X   Delta X     New X
                                 (Linear)    (Quad)   (Total)
    R1        3.55626   0.02666   0.00000   0.10440   0.10440   3.66066
    R2        2.23860  -0.01788   0.00000  -0.01579  -0.01579   2.22281
    A1        3.14469   0.00006   0.00000   0.00051   0.00047   3.14516
    A2        3.14134   0.00003   0.00000   0.00054  -0.00004   3.14130
         Item               Value     Threshold  Converged?
 Maximum Force            0.026657     0.000450     NO 
 RMS     Force            0.016050     0.000300     NO 
 Maximum Displacement     0.051165     0.001800     NO 
 RMS     Displacement     0.039793     0.001200     NO 
 Predicted change in Energy=-1.549785D-03
 GradGradGradGradGradGradGradGradGradGradGradGradGradGradGradGradGradGrad

                          Input orientation:                          
 ---------------------------------------------------------------------
 Center     Atomic      Atomic             Coordinates (Angstroms)
 Number     Number       Type             X           Y           Z
 ---------------------------------------------------------------------
      1         42           0       -0.060709    0.838609   -1.733106
      2          6           0       -0.102476   -0.337847   -3.271520
      3          8           0       -0.128041   -1.055534   -4.203111
 ---------------------------------------------------------------------
                    Distance matrix (angstroms):
                    1          2          3
     1  Mo   0.000000
     2  C    1.937140   0.000000
     3  O    3.113397   1.176261   0.000000
 Symmetry turned off by external request.
 Stoichiometry    CMoO(5)
 Framework group  CS[SG(CMoO)]
 Deg. of freedom     3
 Full point group                 CS      NOp   2
 Rotational constants (GHZ):     8068577.7927699           3.2048030           3.2048017
 Basis read from rwf:  (5D, 7F)
 Pseudo-potential data read from rwf file.
    50 basis functions,   105 primitive gaussians,    54 cartesian basis functions
    16 alpha electrons       12 beta electrons
       nuclear repulsion energy        63.5773231994 Hartrees.
 NAtoms=    3 NActive=    3 NUniq=    3 SFac= 1.00D+00 NAtFMM=   60 NAOKFM=F Big=F
 Integral buffers will be    131072 words long.
 Raffenetti 2 integral format.
 Two-electron integral symmetry is turned off.
 One-electron integrals computed using PRISM.
   1 Symmetry operations used in ECPInt.
 ECPInt:  NShTT=     136 NPrTT=     829 LenC2=     137 LenP2D=     780.
 LDataN:  DoStor=T MaxTD1= 5 Len=  102
 NBasis=    50 RedAO= T EigKep=  1.04D-02  NBF=    50
 NBsUse=    50 1.00D-06 EigRej= -1.00D+00 NBFU=    50
 Defaulting to unpruned grid for atomic number  42.
 Initial guess from the checkpoint file:  "MoCO_sm5.chk"
 B after Tr=     0.000865    0.024437    0.032193
         Rot=    1.000000   -0.000010    0.000001   -0.000000 Ang=  -0.00 deg.
 Initial guess <Sx>= 0.0000 <Sy>= 0.0000 <Sz>= 2.0000 <S**2>= 6.0510 S= 2.0102
 ExpMin= 2.47D-02 ExpMax= 5.48D+03 ExpMxC= 8.25D+02 IAcc=3 IRadAn=         5 AccDes= 0.00D+00
 Harris functional with IExCor=  402 and IRadAn=       5 diagonalized for initial guess.
 HarFok:  IExCor=  402 AccDes= 0.00D+00 IRadAn=         5 IDoV= 1 UseB2=F ITyADJ=14
 ICtDFT=  3500011 ScaDFX=  1.000000  1.000000  1.000000  1.000000
 Defaulting to unpruned grid for atomic number  42.
 FoFCou: FMM=F IPFlag=           0 FMFlag=      100000 FMFlg1=           0
         NFxFlg=           0 DoJE=T BraDBF=F KetDBF=T FulRan=T
         wScrn=  0.000000 ICntrl=       500 IOpCl=  0 I1Cent=   200000004 NGrid=           0
         NMat0=    1 NMatS0=      1 NMatT0=    0 NMatD0=    1 NMtDS0=    0 NMtDT0=    0
 Symmetry not used in FoFCou.
 Keep R1 and R2 ints in memory in canonical form, NReq=8641454.
 Requested convergence on RMS density matrix=1.00D-08 within1000 cycles.
 Requested convergence on MAX density matrix=1.00D-06.
 Requested convergence on             energy=1.00D-06.
 No special actions if energy rises.
 Defaulting to unpruned grid for atomic number  42.
 Defaulting to unpruned grid for atomic number  42.
 Defaulting to unpruned grid for atomic number  42.
 Defaulting to unpruned grid for atomic number  42.
 Defaulting to unpruned grid for atomic number  42.
 Defaulting to unpruned grid for atomic number  42.
 Defaulting to unpruned grid for atomic number  42.
 Defaulting to unpruned grid for atomic number  42.
 SCF Done:  E(UB3LYP) =  -180.753616359     A.U. after   43 cycles
            NFock= 43  Conv=0.85D-08     -V/T= 2.3371
 <Sx>= 0.0000 <Sy>= 0.0000 <Sz>= 2.0000 <S**2>= 6.0588 S= 2.0117
 <L.S>=  0.00000000000    
 Annihilation of the first spin contaminant:
 S**2 before annihilation     6.0588,   after     6.0002
   1 Symmetry operations used in ECPInt.
 ECPInt:  NShTT=     136 NPrTT=     829 LenC2=     137 LenP2D=     780.
 LDataN:  DoStor=T MaxTD1= 6 Len=  172
 Calling FoFJK, ICntrl=      2127 FMM=F ISym2X=0 I1Cent= 0 IOpClX= 1 NMat=1 NMatS=1 NMatT=0.
 Defaulting to unpruned grid for atomic number  42.
 Defaulting to unpruned grid for atomic number  42.
 Defaulting to unpruned grid for atomic number  42.
 Defaulting to unpruned grid for atomic number  42.
 Defaulting to unpruned grid for atomic number  42.
 Defaulting to unpruned grid for atomic number  42.
 Defaulting to unpruned grid for atomic number  42.
 Defaulting to unpruned grid for atomic number  42.
 -------------------------------------------------------------------
 Center     Atomic                   Forces (Hartrees/Bohr)
 Number     Number              X              Y              Z
 -------------------------------------------------------------------
      1       42           0.000087831    0.002290989    0.002881217
      2        6          -0.000299940   -0.008127830   -0.010269869
      3        8           0.000212109    0.005836840    0.007388652
 -------------------------------------------------------------------
 Cartesian Forces:  Max     0.010269869 RMS     0.005516495

 GradGradGradGradGradGradGradGradGradGradGradGradGradGradGradGradGradGrad
 Berny optimization.
 Using GEDIIS/GDIIS optimizer.
 FormGI is forming the generalized inverse of G from B-inverse, IUseBI=4.
 Internal  Forces:  Max     0.009419050 RMS     0.005056251
 Search for a local minimum.
 Step number   2 out of a maximum of   20
 All quantities printed in internal units (Hartrees-Bohrs-Radians)
 Mixed Optimization -- RFO/linear search
 Update second derivatives using D2CorX and points    1    2
 DE= -1.75D-03 DEPred=-1.55D-03 R= 1.13D+00
 TightC=F SS=  1.41D+00  RLast= 1.06D-01 DXNew= 5.0454D-01 3.1677D-01
 Trust test= 1.13D+00 RLast= 1.06D-01 DXMaxT set to 3.17D-01
 The second derivative matrix:
                          R1        R2        A1        A2
           R1           0.23190
           R2           0.07816   1.05285
           A1           0.00065  -0.00018   0.04541
           A2           0.00004  -0.00002   0.00000   0.04541
 ITU=  1  0
 Use linear search instead of GDIIS.
     Eigenvalues ---    0.04541   0.22452   1.06018
 RFO step:  Lambda=-5.45480097D-05 EMin= 4.54089228D-02
 Quartic linear search produced a step of  0.24399.
 Iteration  1 RMS(Cart)=  0.00811145 RMS(Int)=  0.00027742
 Iteration  2 RMS(Cart)=  0.00000003 RMS(Int)=  0.00027742
 Variable       Old X    -DE/DX   Delta X   Delta X   Delta X     New X
                                 (Linear)    (Quad)   (Total)
    R1        3.66066   0.00368   0.02547  -0.00254   0.02293   3.68359
    R2        2.22281  -0.00942  -0.00385  -0.00691  -0.01076   2.21205
    A1        3.14516  -0.00004   0.00011  -0.00008  -0.00001   3.14515
    A2        3.14130   0.00002  -0.00001   0.00056   0.00000   3.14130
         Item               Value     Threshold  Converged?
 Maximum Force            0.009419     0.000450     NO 
 RMS     Force            0.005056     0.000300     NO 
 Maximum Displacement     0.009284     0.001800     NO 
 RMS     Displacement     0.008111     0.001200     NO 
 Predicted change in Energy=-8.310546D-05
 GradGradGradGradGradGradGradGradGradGradGradGradGradGradGradGradGradGrad

                          Input orientation:                          
 ---------------------------------------------------------------------
 Center     Atomic      Atomic             Coordinates (Angstroms)
 Number     Number       Type             X           Y           Z
 ---------------------------------------------------------------------
      1         42           0       -0.060575    0.842373   -1.728193
      2          6           0       -0.102605   -0.341467   -3.276231
      3          8           0       -0.128046   -1.055678   -4.203312
 ---------------------------------------------------------------------
                    Distance matrix (angstroms):
                    1          2          3
     1  Mo   0.000000
     2  C    1.949273   0.000000
     3  O    3.119834   1.170566   0.000000
 Symmetry turned off by external request.
 Stoichiometry    CMoO(5)
 Framework group  CS[SG(CMoO)]
 Deg. of freedom     3
 Full point group                 CS      NOp   2
 Rotational constants (GHZ):     8145764.9680288           3.1862388           3.1862376
 Basis read from rwf:  (5D, 7F)
 Pseudo-potential data read from rwf file.
    50 basis functions,   105 primitive gaussians,    54 cartesian basis functions
    16 alpha electrons       12 beta electrons
       nuclear repulsion energy        63.5002781271 Hartrees.
 NAtoms=    3 NActive=    3 NUniq=    3 SFac= 1.00D+00 NAtFMM=   60 NAOKFM=F Big=F
 Integral buffers will be    131072 words long.
 Raffenetti 2 integral format.
 Two-electron integral symmetry is turned off.
 One-electron integrals computed using PRISM.
   1 Symmetry operations used in ECPInt.
 ECPInt:  NShTT=     136 NPrTT=     829 LenC2=     137 LenP2D=     780.
 LDataN:  DoStor=T MaxTD1= 5 Len=  102
 NBasis=    50 RedAO= T EigKep=  1.04D-02  NBF=    50
 NBsUse=    50 1.00D-06 EigRej= -1.00D+00 NBFU=    50
 Defaulting to unpruned grid for atomic number  42.
 Initial guess from the checkpoint file:  "MoCO_sm5.chk"
 B after Tr=     0.000162    0.004560    0.005954
         Rot=    1.000000   -0.000000    0.000000   -0.000000 Ang=  -0.00 deg.
 Initial guess <Sx>= 0.0000 <Sy>= 0.0000 <Sz>= 2.0000 <S**2>= 6.0589 S= 2.0117
 Keep R1 and R2 ints in memory in canonical form, NReq=8641454.
 Requested convergence on RMS density matrix=1.00D-08 within1000 cycles.
 Requested convergence on MAX density matrix=1.00D-06.
 Requested convergence on             energy=1.00D-06.
 No special actions if energy rises.
 Defaulting to unpruned grid for atomic number  42.
 Defaulting to unpruned grid for atomic number  42.
 Defaulting to unpruned grid for atomic number  42.
 Defaulting to unpruned grid for atomic number  42.
 Defaulting to unpruned grid for atomic number  42.
 Defaulting to unpruned grid for atomic number  42.
 Defaulting to unpruned grid for atomic number  42.
 Defaulting to unpruned grid for atomic number  42.
 SCF Done:  E(UB3LYP) =  -180.753706878     A.U. after   93 cycles
            NFock= 93  Conv=0.27D-08     -V/T= 2.3370
 <Sx>= 0.0000 <Sy>= 0.0000 <Sz>= 2.0000 <S**2>= 6.0598 S= 2.0119
 <L.S>=  0.00000000000    
 Annihilation of the first spin contaminant:
 S**2 before annihilation     6.0598,   after     6.0002
   1 Symmetry operations used in ECPInt.
 ECPInt:  NShTT=     136 NPrTT=     829 LenC2=     137 LenP2D=     780.
 LDataN:  DoStor=T MaxTD1= 6 Len=  172
 Calling FoFJK, ICntrl=      2127 FMM=F ISym2X=0 I1Cent= 0 IOpClX= 1 NMat=1 NMatS=1 NMatT=0.
 Defaulting to unpruned grid for atomic number  42.
 Defaulting to unpruned grid for atomic number  42.
 Defaulting to unpruned grid for atomic number  42.
 Defaulting to unpruned grid for atomic number  42.
 Defaulting to unpruned grid for atomic number  42.
 Defaulting to unpruned grid for atomic number  42.
 Defaulting to unpruned grid for atomic number  42.
 Defaulting to unpruned grid for atomic number  42.
 -------------------------------------------------------------------
 Center     Atomic                   Forces (Hartrees/Bohr)
 Number     Number              X              Y              Z
 -------------------------------------------------------------------
      1       42           0.000003953   -0.000073056   -0.000208923
      2        6          -0.000011566   -0.000024636    0.000269960
      3        8           0.000007613    0.000097693   -0.000061037
 -------------------------------------------------------------------
 Cartesian Forces:  Max     0.000269960 RMS     0.000122904

 GradGradGradGradGradGradGradGradGradGradGradGradGradGradGradGradGradGrad
 Berny optimization.
 Using GEDIIS/GDIIS optimizer.
 FormGI is forming the generalized inverse of G from B-inverse, IUseBI=4.
 Internal  Forces:  Max     0.000211857 RMS     0.000106919
 Search for a local minimum.
 Step number   3 out of a maximum of   20
 All quantities printed in internal units (Hartrees-Bohrs-Radians)
 Mixed Optimization -- En-DIIS/RFO-DIIS
 Update second derivatives using D2CorX and points    1    2    3
 DE= -9.05D-05 DEPred=-8.31D-05 R= 1.09D+00
 TightC=F SS=  1.41D+00  RLast= 2.53D-02 DXNew= 5.3274D-01 7.5986D-02
 Trust test= 1.09D+00 RLast= 2.53D-02 DXMaxT set to 3.17D-01
 The second derivative matrix:
                          R1        R2        A1        A2
           R1           0.21303
           R2           0.09222   1.07040
           A1          -0.00051   0.00197   0.04542
           A2          -0.00001   0.00008   0.00000   0.04541
 ITU=  1  1  0
 Use linear search instead of GDIIS.
     Eigenvalues ---    0.04541   0.20321   1.08018
 RFO step:  Lambda=-1.14669625D-07 EMin= 4.54089235D-02
 Quartic linear search produced a step of -0.02477.
 Iteration  1 RMS(Cart)=  0.00040668 RMS(Int)=  0.00028320
 Iteration  2 RMS(Cart)=  0.00000000 RMS(Int)=  0.00028320
 Variable       Old X    -DE/DX   Delta X   Delta X   Delta X     New X
                                 (Linear)    (Quad)   (Total)
    R1        3.68359  -0.00021  -0.00057  -0.00046  -0.00103   3.68257
    R2        2.21205  -0.00001   0.00027  -0.00019   0.00008   2.21213
    A1        3.14515  -0.00000   0.00000  -0.00002  -0.00007   3.14508
    A2        3.14130   0.00003  -0.00000   0.00057   0.00001   3.14131
         Item               Value     Threshold  Converged?
 Maximum Force            0.000212     0.000450     YES
 RMS     Force            0.000107     0.000300     YES
 Maximum Displacement     0.000538     0.001800     YES
 RMS     Displacement     0.000407     0.001200     YES
 Predicted change in Energy=-1.086052D-07
 Optimization completed.
    -- Stationary point found.
                           ----------------------------
                           !   Optimized Parameters   !
                           ! (Angstroms and Degrees)  !
 --------------------------                            --------------------------
 ! Name  Definition              Value          Derivative Info.                !
 --------------------------------------------------------------------------------
 ! R1    R(1,2)                  1.9493         -DE/DX =   -0.0002              !
 ! R2    R(2,3)                  1.1706         -DE/DX =    0.0                 !
 ! A1    L(1,2,3,-1,-1)        180.2037         -DE/DX =    0.0                 !
 ! A2    L(1,2,3,-2,-2)        179.9833         -DE/DX =    0.0                 !
 --------------------------------------------------------------------------------
 GradGradGradGradGradGradGradGradGradGradGradGradGradGradGradGradGradGrad

                          Input orientation:                          
 ---------------------------------------------------------------------
 Center     Atomic      Atomic             Coordinates (Angstroms)
 Number     Number       Type             X           Y           Z
 ---------------------------------------------------------------------
      1         42           0       -0.060575    0.842373   -1.728193
      2          6           0       -0.102605   -0.341467   -3.276231
      3          8           0       -0.128046   -1.055678   -4.203312
 ---------------------------------------------------------------------
                    Distance matrix (angstroms):
                    1          2          3
     1  Mo   0.000000
     2  C    1.949273   0.000000
     3  O    3.119834   1.170566   0.000000
 Symmetry turned off by external request.
 Stoichiometry    CMoO(5)
 Framework group  CS[SG(CMoO)]
 Deg. of freedom     3
 Full point group                 CS      NOp   2
 Rotational constants (GHZ):     8145764.9680288           3.1862388           3.1862376

 **********************************************************************

            Population analysis using the SCF Density.

 **********************************************************************

 Alpha  occ. eigenvalues --  -19.19462 -10.26217  -2.47181  -1.51559  -1.50520
 Alpha  occ. eigenvalues --   -1.49020  -1.08917  -0.53306  -0.42400  -0.41920
 Alpha  occ. eigenvalues --   -0.40995  -0.23143  -0.21270  -0.20887  -0.20798
 Alpha  occ. eigenvalues --   -0.19161
 Alpha virt. eigenvalues --   -0.07553  -0.05092  -0.04216   0.03303   0.04270
 Alpha virt. eigenvalues --    0.04794   0.10874   0.11828   0.15742   0.22772
 Alpha virt. eigenvalues --    0.29433   0.29457   0.32726   0.33841   0.44327
 Alpha virt. eigenvalues --    0.64191   0.65113   0.70563   0.85758   0.88906
 Alpha virt. eigenvalues --    1.01435   1.02468   1.53353   1.53356   1.54692
 Alpha virt. eigenvalues --    1.55900   1.61068   1.96685   1.96689   2.38698
 Alpha virt. eigenvalues --    2.58755   2.59989   2.95320   6.00529
  Beta  occ. eigenvalues --  -19.19335 -10.26490  -2.38098  -1.42226  -1.39236
  Beta  occ. eigenvalues --   -1.38736  -1.08725  -0.53271  -0.41919  -0.41165
  Beta  occ. eigenvalues --   -0.40903  -0.16730
  Beta virt. eigenvalues --   -0.09789  -0.08647  -0.04910  -0.03523  -0.03250
  Beta virt. eigenvalues --   -0.02358  -0.01794   0.04535   0.05563   0.05675
  Beta virt. eigenvalues --    0.14287   0.14515   0.17292   0.25263   0.34744
  Beta virt. eigenvalues --    0.34917   0.35643   0.36398   0.47032   0.64475
  Beta virt. eigenvalues --    0.64565   0.70979   0.85756   0.88982   1.02044
  Beta virt. eigenvalues --    1.02452   1.52954   1.52982   1.55185   1.55217
  Beta virt. eigenvalues --    1.61476   1.96476   1.96509   2.38528   2.59265
  Beta virt. eigenvalues --    2.59274   2.95450   6.02475
          Condensed to atoms (all electrons):
               1          2          3
     1  Mo  13.534937   0.332150  -0.024037
     2  C    0.332150   4.994288   0.572672
     3  O   -0.024037   0.572672   7.709206
          Atomic-Atomic Spin Densities.
               1          2          3
     1  Mo   4.035642   0.024425  -0.001996
     2  C    0.024425  -0.167755   0.022976
     3  O   -0.001996   0.022976   0.041305
 Mulliken charges and spin densities:
               1          2
     1  Mo   0.156950   4.058071
     2  C    0.100891  -0.120355
     3  O   -0.257840   0.062284
 Sum of Mulliken charges =  -0.00000   4.00000
 Mulliken charges and spin densities with hydrogens summed into heavy atoms:
               1          2
     1  Mo   0.156950   4.058071
     2  C    0.100891  -0.120355
     3  O   -0.257840   0.062284
 Electronic spatial extent (au):  <R**2>=           1037.0796
 Charge=             -0.0000 electrons
 Dipole moment (field-independent basis, Debye):
    X=              0.0797    Y=              2.2392    Z=              2.9255  Tot=              3.6850
 Quadrupole moment (field-independent basis, Debye-Ang):
   XX=            -33.9896   YY=            -30.6416   ZZ=            -46.1244
   XY=             -0.0047   XZ=             -0.4844   YZ=             -4.4271
 Traceless Quadrupole moment (field-independent basis, Debye-Ang):
   XX=              2.9289   YY=              6.2769   ZZ=             -9.2059
   XY=             -0.0047   XZ=             -0.4844   YZ=             -4.4271
 Octapole moment (field-independent basis, Debye-Ang**2):
  XXX=              7.9713  YYY=            -27.2552  ZZZ=            290.9017  XYY=              2.7071
  XXY=            -11.7903  XXZ=             80.7704  XZZ=              4.6721  YZZ=              5.9894
  YYZ=             79.8311  XYZ=              0.1615
 Hexadecapole moment (field-independent basis, Debye-Ang**3):
 XXXX=            -55.9462 YYYY=           -168.7995 ZZZZ=          -1588.6949 XXXY=              1.0546
 XXXZ=            -21.4382 YYYX=              0.8705 YYYZ=              2.6521 ZZZX=            -29.8550
 ZZZY=            -65.7762 XXYY=            -39.3470 XXZZ=           -239.5071 YYZZ=           -271.3485
 XXYZ=              5.1569 YYXZ=             -7.6123 ZZXY=             -1.1388
 N-N= 6.350027812706D+01 E-N=-5.316472806133D+02  KE= 1.351956304458D+02
                          Isotropic Fermi Contact Couplings
        Atom                 a.u.       MegaHertz       Gauss      10(-4) cm-1
     1  Mo(95)             0.00001      -0.00081      -0.00029      -0.00027
     2  C(13)             -0.08629     -24.25257      -8.65392      -8.08979
     3  O(17)              0.00999      -1.51403      -0.54024      -0.50503
 --------------------------------------------------------
       Center         ----  Spin Dipole Couplings  ----
                      3XX-RR        3YY-RR        3ZZ-RR
 --------------------------------------------------------
     1   Atom       -0.037280      0.067473     -0.030192
     2   Atom       -0.218187      0.097502      0.120686
     3   Atom       -0.526433      0.349607      0.176826
 --------------------------------------------------------
                        XY            XZ            YZ
 --------------------------------------------------------
     1   Atom        0.014087     -0.014275     -0.181478
     2   Atom        0.023310     -0.007878      0.039694
     3   Atom        0.079232     -0.048962     -0.337794
 --------------------------------------------------------


 ---------------------------------------------------------------------------------
              Anisotropic Spin Dipole Couplings in Principal Axis System
 ---------------------------------------------------------------------------------

       Atom             a.u.   MegaHertz   Gauss  10(-4) cm-1        Axes

              Baa    -0.1694     5.915     2.111     1.973  0.0211  0.6073  0.7942
     1 Mo(95) Bbb    -0.0388     1.356     0.484     0.452  0.9965 -0.0768  0.0323
              Bcc     0.2082    -7.272    -2.595    -2.426  0.0807  0.7907 -0.6068
 
              Baa    -0.2202   -29.555   -10.546    -9.858  0.9965 -0.0771  0.0320
     2 C(13)  Bbb     0.0696     9.344     3.334     3.117  0.0807  0.7929 -0.6040
              Bcc     0.1506    20.210     7.212     6.741  0.0212  0.6045  0.7963
 
              Baa    -0.5341    38.650    13.791    12.892  0.9965 -0.0771  0.0320
     3 O(17)  Bbb    -0.0852     6.167     2.201     2.057  0.0219  0.6108  0.7915
              Bcc     0.6194   -44.817   -15.992   -14.949  0.0806  0.7880 -0.6104
 

 ---------------------------------------------------------------------------------

 Unable to Open any file for archive entry.
 1\1\GINC-NODE2\FOpt\UB3LYP\Gen\C1Mo1O1(5)\CHEGHO\07-Jul-2023\0\\# opt 
 freq b3lyp/gen nosymm pseudo=read scf=maxcycles=1000\\Title Card Requi
 red\\0,5\Mo,-0.0605751475,0.8423731232,-1.728192787\C,-0.1026048631,-0
 .3414672998,-3.2762307776\O,-0.1280459894,-1.0556778233,-4.2033124355\
 \Version=ES64L-G16RevC.01\HF=-180.7537069\S2=6.059787\S2-1=0.\S2A=6.00
 0239\RMSD=2.667e-09\RMSF=1.229e-04\Dipole=0.0313706,0.8809821,1.150989
 \Quadrupole=2.1775855,4.6667532,-6.8443387,-0.0034644,-0.3601571,-3.29
 14553\PG=CS [SG(C1Mo1O1)]\\@
 The archive entry for this job was punched.


 THE FIRST MORNING OF CREATION WROTE WHAT THE LAST DAWN OF
 RECKONING SHALL READ. -- OMAR KHAYYAM
 Job cpu time:       0 days  0 hours  2 minutes  1.8 seconds.
 Elapsed time:       0 days  0 hours  0 minutes 33.4 seconds.
 File lengths (MBytes):  RWF=     17 Int=      0 D2E=      0 Chk=      2 Scr=      2
 Normal termination of Gaussian 16 at Fri Jul  7 14:43:12 2023.
 Link1:  Proceeding to internal job step number  2.
 ------------------------------------------------------------------
 #N Geom=AllCheck Guess=TCheck SCRF=Check GenChk UB3LYP/ChkBas Freq
 ------------------------------------------------------------------
 1/10=4,29=7,30=1,38=1,40=1/1,3;
 2/12=2,15=1,40=1/2;
 3/5=7,6=2,11=2,14=-4,16=1,17=8,25=1,30=1,67=1,70=2,71=2,74=-5,82=7,116=2,140=1/1,2,3;
 4/5=101/1;
 5/5=2,7=1000,38=6,98=1/2;
 8/6=4,10=90,11=11/1;
 11/6=1,8=1,9=11,15=111,16=1,31=1/1,2,10;
 10/6=1,31=1/2;
 6/7=2,8=2,9=2,10=2,28=1/1;
 7/8=1,10=1,25=1,30=1/1,2,3,16;
 1/10=4,30=1/3;
 99//99;
 Structure from the checkpoint file:  "MoCO_sm5.chk"
 -------------------
 Title Card Required
 -------------------
 Charge =  0 Multiplicity = 5
 Redundant internal coordinates found in file.  (old form).
 Mo,0,-0.0605751475,0.8423731232,-1.728192787
 C,0,-0.1026048631,-0.3414672998,-3.2762307776
 O,0,-0.1280459894,-1.0556778233,-4.2033124355
 Recover connectivity data from disk.

 GradGradGradGradGradGradGradGradGradGradGradGradGradGradGradGradGradGrad
 Berny optimization.
 Initialization pass.
                           ----------------------------
                           !    Initial Parameters    !
                           ! (Angstroms and Degrees)  !
 --------------------------                            --------------------------
 ! Name  Definition              Value          Derivative Info.                !
 --------------------------------------------------------------------------------
 ! R1    R(1,2)                  1.9493         calculate D2E/DX2 analytically  !
 ! R2    R(2,3)                  1.1706         calculate D2E/DX2 analytically  !
 ! A1    L(1,2,3,-1,-1)        180.2037         calculate D2E/DX2 analytically  !
 ! A2    L(1,2,3,-2,-2)        179.9833         calculate D2E/DX2 analytically  !
 --------------------------------------------------------------------------------
 Trust Radius=3.00D-01 FncErr=1.00D-07 GrdErr=1.00D-07 EigMax=2.50D+02 EigMin=1.00D-04
 Number of steps in this run=      2 maximum allowed number of steps=      2.
 GradGradGradGradGradGradGradGradGradGradGradGradGradGradGradGradGradGrad

                          Input orientation:                          
 ---------------------------------------------------------------------
 Center     Atomic      Atomic             Coordinates (Angstroms)
 Number     Number       Type             X           Y           Z
 ---------------------------------------------------------------------
      1         42           0       -0.060575    0.842373   -1.728193
      2          6           0       -0.102605   -0.341467   -3.276231
      3          8           0       -0.128046   -1.055678   -4.203312
 ---------------------------------------------------------------------
                    Distance matrix (angstroms):
                    1          2          3
     1  Mo   0.000000
     2  C    1.949273   0.000000
     3  O    3.119834   1.170566   0.000000
 Symmetry turned off by external request.
 Stoichiometry    CMoO(5)
 Framework group  CS[SG(CMoO)]
 Deg. of freedom     3
 Full point group                 CS      NOp   2
 Rotational constants (GHZ):     8145764.9680288           3.1862388           3.1862376
 Basis read from chk: "MoCO_sm5.chk" (5D, 7F)
 Pseudo-potential data read from chk file.
    50 basis functions,   105 primitive gaussians,    54 cartesian basis functions
    16 alpha electrons       12 beta electrons
       nuclear repulsion energy        63.5002781271 Hartrees.
 NAtoms=    3 NActive=    3 NUniq=    3 SFac= 1.00D+00 NAtFMM=   60 NAOKFM=F Big=F
 Integral buffers will be    131072 words long.
 Raffenetti 2 integral format.
 Two-electron integral symmetry is turned off.
 One-electron integrals computed using PRISM.
   1 Symmetry operations used in ECPInt.
 ECPInt:  NShTT=     136 NPrTT=     829 LenC2=     137 LenP2D=     780.
 LDataN:  DoStor=T MaxTD1= 5 Len=  102
 NBasis=    50 RedAO= T EigKep=  1.04D-02  NBF=    50
 NBsUse=    50 1.00D-06 EigRej= -1.00D+00 NBFU=    50
 Defaulting to unpruned grid for atomic number  42.
 Initial guess from the checkpoint file:  "MoCO_sm5.chk"
 B after Tr=     0.000000    0.000000    0.000000
         Rot=    1.000000    0.000000    0.000000    0.000000 Ang=   0.00 deg.
 Initial guess <Sx>= 0.0000 <Sy>= 0.0000 <Sz>= 2.0000 <S**2>= 6.0598 S= 2.0119
 Keep R1 and R2 ints in memory in canonical form, NReq=8641454.
 Requested convergence on RMS density matrix=1.00D-08 within1000 cycles.
 Requested convergence on MAX density matrix=1.00D-06.
 Requested convergence on             energy=1.00D-06.
 No special actions if energy rises.
 Defaulting to unpruned grid for atomic number  42.
 Defaulting to unpruned grid for atomic number  42.
 Defaulting to unpruned grid for atomic number  42.
 Defaulting to unpruned grid for atomic number  42.
 Defaulting to unpruned grid for atomic number  42.
 Defaulting to unpruned grid for atomic number  42.
 Defaulting to unpruned grid for atomic number  42.
 Defaulting to unpruned grid for atomic number  42.
 SCF Done:  E(UB3LYP) =  -180.753706878     A.U. after    2 cycles
            NFock=  2  Conv=0.82D-08     -V/T= 2.3370
 <Sx>= 0.0000 <Sy>= 0.0000 <Sz>= 2.0000 <S**2>= 6.0598 S= 2.0119
 <L.S>=  0.00000000000    
 Annihilation of the first spin contaminant:
 S**2 before annihilation     6.0598,   after     6.0002
 DoSCS=F DFT=T ScalE2(SS,OS)=  1.000000  1.000000
 Range of M.O.s used for correlation:     1    50
 NBasis=    50 NAE=    16 NBE=    12 NFC=     0 NFV=     0
 NROrb=     50 NOA=    16 NOB=    12 NVA=    34 NVB=    38

 **** Warning!!: The smallest beta delta epsilon is  0.69404982D-01

   1 Symmetry operations used in ECPInt.
 ECPInt:  NShTT=     136 NPrTT=     829 LenC2=     137 LenP2D=     780.
 LDataN:  DoStor=T MaxTD1= 6 Len=  172
 Symmetrizing basis deriv contribution to polar:
 IMax=3 JMax=2 DiffMx= 0.00D+00
 G2DrvN: will do     4 centers at a time, making    1 passes.
 Calling FoFCou, ICntrl=  3107 FMM=F I1Cent=   0 AccDes= 0.00D+00.
 Defaulting to unpruned grid for atomic number  42.
 Defaulting to unpruned grid for atomic number  42.
 Defaulting to unpruned grid for atomic number  42.
 Defaulting to unpruned grid for atomic number  42.
 Defaulting to unpruned grid for atomic number  42.
 Defaulting to unpruned grid for atomic number  42.
 Defaulting to unpruned grid for atomic number  42.
 Defaulting to unpruned grid for atomic number  42.
 End of G2Drv F.D. properties file   721 does not exist.
 End of G2Drv F.D. properties file   722 does not exist.
 End of G2Drv F.D. properties file   788 does not exist.
          IDoAtm=111
          Differentiating once with respect to electric field.
                with respect to dipole field.
          Differentiating once with respect to nuclear coordinates.
 Defaulting to unpruned grid for atomic number  42.
 Keep R1 and R2 ints in memory in canonical form, NReq=8616397.
 Defaulting to unpruned grid for atomic number  42.
 Defaulting to unpruned grid for atomic number  42.
 Defaulting to unpruned grid for atomic number  42.
 Defaulting to unpruned grid for atomic number  42.
 Defaulting to unpruned grid for atomic number  42.
 Defaulting to unpruned grid for atomic number  42.
 Defaulting to unpruned grid for atomic number  42.
 Defaulting to unpruned grid for atomic number  42.
          There are    12 degrees of freedom in the 1st order CPHF.  IDoFFX=6 NUNeed=     3.
      9 vectors produced by pass  0 Test12= 8.33D-15 8.33D-09 XBig12= 2.99D+02 1.23D+01.
 AX will form     9 AO Fock derivatives at one time.
      9 vectors produced by pass  1 Test12= 8.33D-15 8.33D-09 XBig12= 2.14D+02 1.02D+01.
      9 vectors produced by pass  2 Test12= 8.33D-15 8.33D-09 XBig12= 2.11D+01 1.51D+00.
      9 vectors produced by pass  3 Test12= 8.33D-15 8.33D-09 XBig12= 1.35D+00 4.44D-01.
      9 vectors produced by pass  4 Test12= 8.33D-15 8.33D-09 XBig12= 7.61D-02 1.24D-01.
      9 vectors produced by pass  5 Test12= 8.33D-15 8.33D-09 XBig12= 2.39D-03 2.99D-02.
      9 vectors produced by pass  6 Test12= 8.33D-15 8.33D-09 XBig12= 3.45D-05 2.14D-03.
      9 vectors produced by pass  7 Test12= 8.33D-15 8.33D-09 XBig12= 4.10D-07 1.47D-04.
      7 vectors produced by pass  8 Test12= 8.33D-15 8.33D-09 XBig12= 3.48D-09 1.52D-05.
      4 vectors produced by pass  9 Test12= 8.33D-15 8.33D-09 XBig12= 1.71D-11 7.28D-07.
      1 vectors produced by pass 10 Test12= 8.33D-15 8.33D-09 XBig12= 1.26D-13 8.66D-08.
      1 vectors produced by pass 11 Test12= 8.33D-15 8.33D-09 XBig12= 1.21D-15 1.36D-08.
 InvSVY:  IOpt=1 It=  1 EMax= 9.99D-16
 Solved reduced A of dimension    85 with     9 vectors.
 Isotropic polarizability for W=    0.000000       73.52 Bohr**3.
 End of Minotr F.D. properties file   721 does not exist.
 End of Minotr F.D. properties file   722 does not exist.
 End of Minotr F.D. properties file   788 does not exist.

 **********************************************************************

            Population analysis using the SCF Density.

 **********************************************************************

 Alpha  occ. eigenvalues --  -19.19462 -10.26217  -2.47181  -1.51559  -1.50520
 Alpha  occ. eigenvalues --   -1.49020  -1.08917  -0.53306  -0.42400  -0.41920
 Alpha  occ. eigenvalues --   -0.40995  -0.23143  -0.21270  -0.20887  -0.20798
 Alpha  occ. eigenvalues --   -0.19161
 Alpha virt. eigenvalues --   -0.07553  -0.05092  -0.04216   0.03303   0.04270
 Alpha virt. eigenvalues --    0.04794   0.10874   0.11828   0.15742   0.22772
 Alpha virt. eigenvalues --    0.29433   0.29457   0.32726   0.33841   0.44327
 Alpha virt. eigenvalues --    0.64191   0.65113   0.70563   0.85758   0.88906
 Alpha virt. eigenvalues --    1.01435   1.02468   1.53353   1.53356   1.54692
 Alpha virt. eigenvalues --    1.55900   1.61068   1.96685   1.96689   2.38698
 Alpha virt. eigenvalues --    2.58755   2.59989   2.95320   6.00529
  Beta  occ. eigenvalues --  -19.19335 -10.26490  -2.38098  -1.42226  -1.39236
  Beta  occ. eigenvalues --   -1.38736  -1.08725  -0.53271  -0.41919  -0.41165
  Beta  occ. eigenvalues --   -0.40903  -0.16730
  Beta virt. eigenvalues --   -0.09789  -0.08647  -0.04910  -0.03523  -0.03250
  Beta virt. eigenvalues --   -0.02358  -0.01794   0.04535   0.05563   0.05675
  Beta virt. eigenvalues --    0.14287   0.14515   0.17292   0.25263   0.34744
  Beta virt. eigenvalues --    0.34917   0.35643   0.36398   0.47032   0.64475
  Beta virt. eigenvalues --    0.64565   0.70979   0.85756   0.88982   1.02044
  Beta virt. eigenvalues --    1.02452   1.52954   1.52982   1.55185   1.55217
  Beta virt. eigenvalues --    1.61476   1.96476   1.96509   2.38528   2.59265
  Beta virt. eigenvalues --    2.59274   2.95450   6.02475
          Condensed to atoms (all electrons):
               1          2          3
     1  Mo  13.534937   0.332150  -0.024037
     2  C    0.332150   4.994288   0.572672
     3  O   -0.024037   0.572672   7.709206
          Atomic-Atomic Spin Densities.
               1          2          3
     1  Mo   4.035642   0.024425  -0.001996
     2  C    0.024425  -0.167755   0.022976
     3  O   -0.001996   0.022976   0.041305
 Mulliken charges and spin densities:
               1          2
     1  Mo   0.156950   4.058071
     2  C    0.100891  -0.120355
     3  O   -0.257840   0.062284
 Sum of Mulliken charges =   0.00000   4.00000
 Mulliken charges and spin densities with hydrogens summed into heavy atoms:
               1          2
     1  Mo   0.156950   4.058071
     2  C    0.100891  -0.120355
     3  O   -0.257840   0.062284
 APT charges:
               1
     1  Mo   0.159649
     2  C    0.547824
     3  O   -0.707474
 Sum of APT charges =   0.00000
 APT charges with hydrogens summed into heavy atoms:
               1
     1  Mo   0.159649
     2  C    0.547824
     3  O   -0.707474
 Electronic spatial extent (au):  <R**2>=           1037.0796
 Charge=              0.0000 electrons
 Dipole moment (field-independent basis, Debye):
    X=              0.0797    Y=              2.2392    Z=              2.9255  Tot=              3.6850
 Quadrupole moment (field-independent basis, Debye-Ang):
   XX=            -33.9896   YY=            -30.6416   ZZ=            -46.1244
   XY=             -0.0047   XZ=             -0.4844   YZ=             -4.4271
 Traceless Quadrupole moment (field-independent basis, Debye-Ang):
   XX=              2.9289   YY=              6.2769   ZZ=             -9.2059
   XY=             -0.0047   XZ=             -0.4844   YZ=             -4.4271
 Octapole moment (field-independent basis, Debye-Ang**2):
  XXX=              7.9713  YYY=            -27.2552  ZZZ=            290.9017  XYY=              2.7071
  XXY=            -11.7903  XXZ=             80.7704  XZZ=              4.6721  YZZ=              5.9894
  YYZ=             79.8311  XYZ=              0.1615
 Hexadecapole moment (field-independent basis, Debye-Ang**3):
 XXXX=            -55.9462 YYYY=           -168.7994 ZZZZ=          -1588.6949 XXXY=              1.0546
 XXXZ=            -21.4382 YYYX=              0.8705 YYYZ=              2.6520 ZZZX=            -29.8549
 ZZZY=            -65.7763 XXYY=            -39.3470 XXZZ=           -239.5071 YYZZ=           -271.3485
 XXYZ=              5.1569 YYXZ=             -7.6123 ZZXY=             -1.1389
 N-N= 6.350027812706D+01 E-N=-5.316472806138D+02  KE= 1.351956304460D+02
  Exact polarizability:      66.964       0.115      73.600       0.492      11.974      79.999
 Approx polarizability:      82.532       0.680     109.767       1.821      44.672     133.776
                          Isotropic Fermi Contact Couplings
        Atom                 a.u.       MegaHertz       Gauss      10(-4) cm-1
     1  Mo(95)             0.00001      -0.00081      -0.00029      -0.00027
     2  C(13)             -0.08629     -24.25257      -8.65392      -8.08979
     3  O(17)              0.00999      -1.51403      -0.54024      -0.50503
 --------------------------------------------------------
       Center         ----  Spin Dipole Couplings  ----
                      3XX-RR        3YY-RR        3ZZ-RR
 --------------------------------------------------------
     1   Atom       -0.037280      0.067473     -0.030192
     2   Atom       -0.218188      0.097502      0.120686
     3   Atom       -0.526434      0.349608      0.176826
 --------------------------------------------------------
                        XY            XZ            YZ
 --------------------------------------------------------
     1   Atom        0.014086     -0.014275     -0.181478
     2   Atom        0.023310     -0.007877      0.039694
     3   Atom        0.079229     -0.048960     -0.337795
 --------------------------------------------------------


 ---------------------------------------------------------------------------------
              Anisotropic Spin Dipole Couplings in Principal Axis System
 ---------------------------------------------------------------------------------

       Atom             a.u.   MegaHertz   Gauss  10(-4) cm-1        Axes

              Baa    -0.1694     5.915     2.111     1.973  0.0211  0.6073  0.7942
     1 Mo(95) Bbb    -0.0388     1.356     0.484     0.452  0.9965 -0.0768  0.0323
              Bcc     0.2082    -7.272    -2.595    -2.426  0.0807  0.7907 -0.6068
 
              Baa    -0.2202   -29.555   -10.546    -9.858  0.9965 -0.0771  0.0320
     2 C(13)  Bbb     0.0696     9.344     3.334     3.117  0.0807  0.7929 -0.6040
              Bcc     0.1506    20.210     7.212     6.741  0.0212  0.6045  0.7963
 
              Baa    -0.5341    38.650    13.791    12.892  0.9965 -0.0771  0.0320
     3 O(17)  Bbb    -0.0852     6.167     2.201     2.057  0.0219  0.6108  0.7915
              Bcc     0.6194   -44.817   -15.992   -14.949  0.0806  0.7880 -0.6104
 

 ---------------------------------------------------------------------------------

   1 Symmetry operations used in ECPInt.
 ECPInt:  NShTT=     136 NPrTT=     829 LenC2=     137 LenP2D=     780.
 LDataN:  DoStor=T MaxTD1= 7 Len=  274
 Calling FoFJK, ICntrl=    100127 FMM=F ISym2X=0 I1Cent= 0 IOpClX= 1 NMat=1 NMatS=1 NMatT=0.
 Defaulting to unpruned grid for atomic number  42.
 Defaulting to unpruned grid for atomic number  42.
 Defaulting to unpruned grid for atomic number  42.
 Defaulting to unpruned grid for atomic number  42.
 Defaulting to unpruned grid for atomic number  42.
 Defaulting to unpruned grid for atomic number  42.
 Defaulting to unpruned grid for atomic number  42.
 Defaulting to unpruned grid for atomic number  42.
 Full mass-weighted force constant matrix:
 Low frequencies ---   -0.0003   -0.0001    0.0003    3.1153    8.3553  328.7622
 Low frequencies ---  347.4970  478.2923 1977.4128
 Diagonal vibrational polarizability:
        0.0025085       2.4446691       3.4728570
 Harmonic frequencies (cm**-1), IR intensities (KM/Mole), Raman scattering
 activities (A**4/AMU), depolarization ratios for plane and unpolarized
 incident light, reduced masses (AMU), force constants (mDyne/A),
 and normal coordinates:
                      1                      2                      3
                      A                      A                      A
 Frequencies --    328.7701               478.2923              1977.4128
 Red. masses --     12.8673                17.4579                13.3406
 Frc consts  --      0.8194                 2.3530                30.7341
 IR Inten    --      3.7422                 1.0461               706.9173
  Atom  AN      X      Y      Z        X      Y      Z        X      Y      Z
     1  42    -0.00  -0.03   0.02    -0.00  -0.12  -0.16    -0.00  -0.00  -0.00
     2   6     0.04   0.72  -0.55     0.01   0.40   0.53     0.02   0.50   0.65
     3   8    -0.02  -0.33   0.26     0.02   0.44   0.57    -0.01  -0.35  -0.46

 -------------------
 - Thermochemistry -
 -------------------
 Temperature   298.150 Kelvin.  Pressure   1.00000 Atm.
 Atom     1 has atomic number 42 and mass  97.90550
 Atom     2 has atomic number  6 and mass  12.00000
 Atom     3 has atomic number  8 and mass  15.99491
 Molecular mass:   125.90041 amu.
 Principal axes and moments of inertia in atomic units:
                           1         2         3
     Eigenvalues --     0.00022 566.41743 566.41765
           X            0.02161   0.04844   0.99859
           Y            0.60817   0.79213  -0.05158
           Z            0.79351  -0.60843   0.01234
 This molecule is an asymmetric top.
 Rotational symmetry number  1.
 Rotational temperatures (Kelvin) 390935.08341     0.15292     0.15292
 Rotational constants (GHZ):      ************     3.18624     3.18624
 Zero-point vibrational energy      16654.9 (Joules/Mol)
                                    3.98061 (Kcal/Mol)
 Warning -- explicit consideration of   2 degrees of freedom as
           vibrations may cause significant error
 Vibrational temperatures:    473.03   688.16  2845.06
          (Kelvin)
 
 Zero-point correction=                           0.006344 (Hartree/Particle)
 Thermal correction to Energy=                    0.009803
 Thermal correction to Enthalpy=                  0.010747
 Thermal correction to Gibbs Free Energy=        -0.016632
 Sum of electronic and zero-point Energies=           -180.747363
 Sum of electronic and thermal Energies=              -180.743904
 Sum of electronic and thermal Enthalpies=            -180.742960
 Sum of electronic and thermal Free Energies=         -180.770339
 
                     E (Thermal)             CV                S
                      KCal/Mol        Cal/Mol-Kelvin    Cal/Mol-Kelvin
 Total                    6.151              8.891             57.625
 Electronic               0.000              0.000              3.198
 Translational            0.889              2.981             40.405
 Rotational               0.889              2.981             12.039
 Vibrational              4.374              2.929              1.982
 Vibration     1          0.712              1.618              1.266
 Vibration     2          0.835              1.298              0.715
                       Q            Log10(Q)             Ln(Q)
 Total Bot       0.447033D+08          7.650339         17.615557
 Total V=0       0.369951D+11         10.568145         24.334052
 Vib (Bot)       0.168714D-02         -2.772849         -6.384721
 Vib (Bot)    1  0.568747D+00         -0.245081         -0.564319
 Vib (Bot)    2  0.350186D+00         -0.455702         -1.049292
 Vib (V=0)       0.139623D+01          0.144956          0.333774
 Vib (V=0)    1  0.125728D+01          0.099432          0.228951
 Vib (V=0)    2  0.111043D+01          0.045493          0.104751
 Electronic      0.500000D+01          0.698970          1.609438
 Translational   0.555258D+08          7.744495         17.832358
 Rotational      0.954385D+02          1.979724          4.558483
 -------------------------------------------------------------------
 Center     Atomic                   Forces (Hartrees/Bohr)
 Number     Number              X              Y              Z
 -------------------------------------------------------------------
      1       42           0.000003953   -0.000073056   -0.000208923
      2        6          -0.000011566   -0.000024637    0.000269959
      3        8           0.000007613    0.000097693   -0.000061036
 -------------------------------------------------------------------
 Cartesian Forces:  Max     0.000269959 RMS     0.000122904
 FormGI is forming the generalized inverse of G from B-inverse, IUseBI=4.

 GradGradGradGradGradGradGradGradGradGradGradGradGradGradGradGradGradGrad
 Berny optimization.
 Internal  Forces:  Max     0.000211857 RMS     0.000106919
 Search for a local minimum.
 Step number   1 out of a maximum of    2
 All quantities printed in internal units (Hartrees-Bohrs-Radians)
 Second derivative matrix not updated -- analytic derivatives used.
 The second derivative matrix:
                          R1        R2        A1        A2
           R1           0.19137
           R2           0.05650   1.01568
           A1           0.00162   0.00677   0.00012
           A2           0.00009   0.00029  -0.00178   0.05009
 ITU=  0
     Eigenvalues ---    0.05015   0.18752   1.01958
 Angle between quadratic step and forces=  18.70 degrees.
 Linear search not attempted -- first point.
 Iteration  1 RMS(Cart)=  0.00044968 RMS(Int)=  0.00025648
 Iteration  2 RMS(Cart)=  0.00000000 RMS(Int)=  0.00025648
 Variable       Old X    -DE/DX   Delta X   Delta X   Delta X     New X
                                 (Linear)    (Quad)   (Total)
    R1        3.68359  -0.00021   0.00000  -0.00112  -0.00112   3.68247
    R2        2.21205  -0.00001   0.00000   0.00005   0.00005   2.21210
    A1        3.14515  -0.00000   0.00000  -0.00003  -0.00007   3.14508
    A2        3.14130   0.00003   0.00000   0.00052   0.00001   3.14131
         Item               Value     Threshold  Converged?
 Maximum Force            0.000212     0.000450     YES
 RMS     Force            0.000107     0.000300     YES
 Maximum Displacement     0.000594     0.001800     YES
 RMS     Displacement     0.000450     0.001200     YES
 Predicted change in Energy=-1.187030D-07
 Optimization completed.
    -- Stationary point found.
                           ----------------------------
                           !   Optimized Parameters   !
                           ! (Angstroms and Degrees)  !
 --------------------------                            --------------------------
 ! Name  Definition              Value          Derivative Info.                !
 --------------------------------------------------------------------------------
 ! R1    R(1,2)                  1.9493         -DE/DX =   -0.0002              !
 ! R2    R(2,3)                  1.1706         -DE/DX =    0.0                 !
 ! A1    L(1,2,3,-1,-1)        180.2037         -DE/DX =    0.0                 !
 ! A2    L(1,2,3,-2,-2)        179.9833         -DE/DX =    0.0                 !
 --------------------------------------------------------------------------------
 GradGradGradGradGradGradGradGradGradGradGradGradGradGradGradGradGradGrad


 ----------------------------------------------------------------------

 Electric dipole moment (input orientation):
 (Debye = 10**-18 statcoulomb cm , SI units = C m)
                  (au)            (Debye)         (10**-30 SI)
   Tot        0.144979D+01      0.368500D+01      0.122918D+02
   x          0.313706D-01      0.797361D-01      0.265971D+00
   y          0.880982D+00      0.223923D+01      0.746928D+01
   z          0.115099D+01      0.292552D+01      0.975849D+01

 Dipole polarizability, Alpha (input orientation).
 (esu units = cm**3 , SI units = C**2 m**2 J**-1)
 Alpha(0;0):
               (au)            (10**-24 esu)      (10**-40 SI)
   iso        0.735210D+02      0.108947D+02      0.121220D+02
   aniso      0.236290D+02      0.350145D+01      0.389589D+01
   xx         0.669639D+02      0.992303D+01      0.110409D+02
   yx         0.114629D+00      0.169862D-01      0.188997D-01
   yy         0.736005D+02      0.109065D+02      0.121351D+02
   zx         0.491712D+00      0.728642D-01      0.810723D-01
   zy         0.119739D+02      0.177435D+01      0.197423D+01
   zz         0.799986D+02      0.118546D+02      0.131900D+02

 ----------------------------------------------------------------------

 Dipole orientation:
    42         -0.05544249          3.24953883         -1.62789729
     6         -0.05514980          3.25110972         -5.31148956
     8         -0.05541314          3.24419364         -7.52352753

 Electric dipole moment (dipole orientation):
 (Debye = 10**-18 statcoulomb cm , SI units = C m)
                  (au)            (Debye)         (10**-30 SI)
   Tot        0.144979D+01      0.368500D+01      0.122918D+02
   x          0.000000D+00      0.000000D+00      0.000000D+00
   y          0.000000D+00      0.000000D+00      0.000000D+00
   z          0.144979D+01      0.368500D+01      0.122918D+02

 Dipole polarizability, Alpha (dipole orientation).
 (esu units = cm**3 , SI units = C**2 m**2 J**-1)
 Alpha(0;0):
               (au)            (10**-24 esu)      (10**-40 SI)
   iso        0.735210D+02      0.108947D+02      0.121220D+02
   aniso      0.236290D+02      0.350145D+01      0.389589D+01
   xx         0.669513D+02      0.992115D+01      0.110388D+02
   yx        -0.227295D+00     -0.336816D-01     -0.374759D-01
   yy         0.644090D+02      0.954442D+01      0.106196D+02
   zx        -0.209331D-01     -0.310196D-02     -0.345140D-02
   zy         0.345413D-01      0.511850D-02      0.569510D-02
   zz         0.892029D+02      0.132185D+02      0.147076D+02

 ----------------------------------------------------------------------
 Unable to Open any file for archive entry.
 1\1\GINC-NODE2\Freq\UB3LYP\Gen\C1Mo1O1(5)\CHEGHO\07-Jul-2023\0\\#N Geo
 m=AllCheck Guess=TCheck SCRF=Check GenChk UB3LYP/ChkBas Freq\\Title Ca
 rd Required\\0,5\Mo,-0.0605751475,0.8423731232,-1.728192787\C,-0.10260
 48631,-0.3414672998,-3.2762307776\O,-0.1280459894,-1.0556778233,-4.203
 3124355\\Version=ES64L-G16RevC.01\HF=-180.7537069\S2=6.059787\S2-1=0.\
 S2A=6.000239\RMSD=8.211e-09\RMSF=1.229e-04\ZeroPoint=0.0063435\Thermal
 =0.0098028\ETot=-180.7439041\HTot=-180.7429599\GTot=-180.7703392\Dipol
 e=0.0313706,0.8809821,1.150989\DipoleDeriv=0.4082109,-0.0143194,-0.010
 1145,-0.0135774,0.1181063,-0.2988221,-0.008343,-0.3008803,-0.0473696,-
 0.4317779,0.0489666,0.0414594,0.04763,0.6980853,1.2613966,0.0384328,1.
 2594259,1.3771656,0.0235669,-0.0346472,-0.0313449,-0.0340526,-0.816191
 6,-0.9625745,-0.0300897,-0.9585456,-1.3297959\Polar=66.9639468,0.11462
 86,73.6004955,0.4917118,11.9738779,79.9986279\Quadrupole=2.1775848,4.6
 667537,-6.8443385,-0.0034675,-0.3601547,-3.2914556\PG=CS [SG(C1Mo1O1)]
 \NImag=0\\0.00607618,0.00243692,0.07396135,0.00318944,0.08975764,0.122
 63875,-0.01584463,-0.00150960,-0.00209340,0.04237594,-0.00148052,-0.05
 854989,-0.05816225,0.01369590,0.43035713,-0.00206912,-0.05828435,-0.09
 031360,0.01825768,0.51043679,0.70069456,0.00976845,-0.00092732,-0.0010
 9605,-0.02653130,-0.01221538,-0.01618856,0.01676285,-0.00095641,-0.015
 41145,-0.03159539,-0.01218630,-0.37180724,-0.45215244,0.01314270,0.387
 21869,-0.00112032,-0.03147329,-0.03232515,-0.01616428,-0.45227454,-0.6
 1038096,0.01728461,0.48374783,0.64270611\\-0.00000395,0.00007306,0.000
 20892,0.00001157,0.00002464,-0.00026996,-0.00000761,-0.00009769,0.0000
 6104\\\@
 The archive entry for this job was punched.


 THE PROGRESS OF RIVERS TO THE SEA IS NOT AS RAPID
 AS THAT OF MAN TO ERROR.
                                              -- VOLTAIRE
 Job cpu time:       0 days  0 hours  0 minutes 45.6 seconds.
 Elapsed time:       0 days  0 hours  0 minutes 12.9 seconds.
 File lengths (MBytes):  RWF=     82 Int=      0 D2E=      0 Chk=      2 Scr=      2
 Normal termination of Gaussian 16 at Fri Jul  7 14:43:26 2023.
