 Entering Gaussian System, Link 0=/apps/GAU16/avx2/g16/g16
 Initial command:
 /apps/GAU16/avx2//g16/l1.exe "/localscratch/chegho/Gau-118905.inp" -scrdir="/localscratch/chegho/"
 Entering Link 1 = /apps/GAU16/avx2//g16/l1.exe PID=    118911.
  
 Copyright (c) 1988-2019, Gaussian, Inc.  All Rights Reserved.
  
 This is part of the Gaussian(R) 16 program.  It is based on
 the Gaussian(R) 09 system (copyright 2009, Gaussian, Inc.),
 the Gaussian(R) 03 system (copyright 2003, Gaussian, Inc.),
 the Gaussian(R) 98 system (copyright 1998, Gaussian, Inc.),
 the Gaussian(R) 94 system (copyright 1995, Gaussian, Inc.),
 the Gaussian 92(TM) system (copyright 1992, Gaussian, Inc.),
 the Gaussian 90(TM) system (copyright 1990, Gaussian, Inc.),
 the Gaussian 88(TM) system (copyright 1988, Gaussian, Inc.),
 the Gaussian 86(TM) system (copyright 1986, Carnegie Mellon
 University), and the Gaussian 82(TM) system (copyright 1983,
 Carnegie Mellon University). Gaussian is a federally registered
 trademark of Gaussian, Inc.
  
 This software contains proprietary and confidential information,
 including trade secrets, belonging to Gaussian, Inc.
  
 This software is provided under written license and may be
 used, copied, transmitted, or stored only in accord with that
 written license.
  
 The following legend is applicable only to US Government
 contracts under FAR:
  
                    RESTRICTED RIGHTS LEGEND
  
 Use, reproduction and disclosure by the US Government is
 subject to restrictions as set forth in subparagraphs (a)
 and (c) of the Commercial Computer Software - Restricted
 Rights clause in FAR 52.227-19.
  
 Gaussian, Inc.
 340 Quinnipiac St., Bldg. 40, Wallingford CT 06492
  
  
 ---------------------------------------------------------------
 Warning -- This program may not be used in any manner that
 competes with the business of Gaussian, Inc. or will provide
 assistance to any competitor of Gaussian, Inc.  The licensee
 of this program is prohibited from giving any competitor of
 Gaussian, Inc. access to this program.  By using this program,
 the user acknowledges that Gaussian, Inc. is engaged in the
 business of creating and licensing software in the field of
 computational chemistry and represents and warrants to the
 licensee that it is not a competitor of Gaussian, Inc. and that
 it will not use this program in any manner prohibited above.
 ---------------------------------------------------------------
  

 Cite this work as:
 Gaussian 16, Revision C.01,
 M. J. Frisch, G. W. Trucks, H. B. Schlegel, G. E. Scuseria, 
 M. A. Robb, J. R. Cheeseman, G. Scalmani, V. Barone, 
 G. A. Petersson, H. Nakatsuji, X. Li, M. Caricato, A. V. Marenich, 
 J. Bloino, B. G. Janesko, R. Gomperts, B. Mennucci, H. P. Hratchian, 
 J. V. Ortiz, A. F. Izmaylov, J. L. Sonnenberg, D. Williams-Young, 
 F. Ding, F. Lipparini, F. Egidi, J. Goings, B. Peng, A. Petrone, 
 T. Henderson, D. Ranasinghe, V. G. Zakrzewski, J. Gao, N. Rega, 
 G. Zheng, W. Liang, M. Hada, M. Ehara, K. Toyota, R. Fukuda, 
 J. Hasegawa, M. Ishida, T. Nakajima, Y. Honda, O. Kitao, H. Nakai, 
 T. Vreven, K. Throssell, J. A. Montgomery, Jr., J. E. Peralta, 
 F. Ogliaro, M. J. Bearpark, J. J. Heyd, E. N. Brothers, K. N. Kudin, 
 V. N. Staroverov, T. A. Keith, R. Kobayashi, J. Normand, 
 K. Raghavachari, A. P. Rendell, J. C. Burant, S. S. Iyengar, 
 J. Tomasi, M. Cossi, J. M. Millam, M. Klene, C. Adamo, R. Cammi, 
 J. W. Ochterski, R. L. Martin, K. Morokuma, O. Farkas, 
 J. B. Foresman, and D. J. Fox, Gaussian, Inc., Wallingford CT, 2019.
 
 ******************************************
 Gaussian 16:  ES64L-G16RevC.01  3-Jul-2019
                19-Sep-2022 
 ******************************************
 %nprocshared=8
 Will use up to    8 processors via shared memory.
 %mem=32GB
 ---------------------------------------
 # opt freq b3lyp/gen nosymm pseudo=read
 ---------------------------------------
 1/18=20,19=15,26=3,38=1/1,3;
 2/9=110,12=2,15=1,17=6,18=5,40=1/2;
 3/5=7,11=2,16=1,17=8,25=1,30=1,71=1,74=-5/1,2,3;
 4//1;
 5/5=2,38=5/2;
 6/7=2,8=2,9=2,10=2,28=1/1;
 7/30=1/1,2,3,16;
 1/18=20,19=15,26=3/3(2);
 2/9=110,15=1/2;
 99//99;
 2/9=110,15=1/2;
 3/5=7,6=1,11=2,16=1,17=8,25=1,30=1,71=1,74=-5,82=7/1,2,3;
 4/5=5,16=3,69=1/1;
 5/5=2,38=5/2;
 7/30=1/1,2,3,16;
 1/18=20,19=15,26=3/3(-5);
 2/9=110,15=1/2;
 6/7=2,8=2,9=2,10=2,19=2,28=1/1;
 99/9=1/99;
 -------------------
 Title Card Required
 -------------------
 Symbolic Z-matrix:
 Charge =  0 Multiplicity = 1
 42                   -0.15928  -0.64373  -0.97236 
 6                    -0.27455  -2.52434  -0.67978 
 6                    -0.14813  -0.98918  -2.8475 
 8                    -0.13964  -1.20571  -4.00034 
 8                    -0.34352  -3.68203  -0.50369 
 

 GradGradGradGradGradGradGradGradGradGradGradGradGradGradGradGradGradGrad
 Berny optimization.
 Initialization pass.
                           ----------------------------
                           !    Initial Parameters    !
                           ! (Angstroms and Degrees)  !
 --------------------------                            --------------------------
 ! Name  Definition              Value          Derivative Info.                !
 --------------------------------------------------------------------------------
 ! R1    R(1,2)                  1.9067         estimate D2E/DX2                !
 ! R2    R(1,3)                  1.9067         estimate D2E/DX2                !
 ! R3    R(2,5)                  1.173          estimate D2E/DX2                !
 ! R4    R(3,4)                  1.173          estimate D2E/DX2                !
 ! A1    A(2,1,3)               88.4281         estimate D2E/DX2                !
 ! A2    L(1,2,5,4,-1)         179.8053         estimate D2E/DX2                !
 ! A3    L(1,3,4,5,-1)         179.8054         estimate D2E/DX2                !
 ! A4    L(1,2,5,4,-2)         179.8917         estimate D2E/DX2                !
 ! A5    L(1,3,4,5,-2)         180.1059         estimate D2E/DX2                !
 --------------------------------------------------------------------------------
 Trust Radius=3.00D-01 FncErr=1.00D-07 GrdErr=1.00D-06 EigMax=2.50D+02 EigMin=1.00D-04
 Number of steps in this run=     20 maximum allowed number of steps=    100.
 GradGradGradGradGradGradGradGradGradGradGradGradGradGradGradGradGradGrad

                          Input orientation:                          
 ---------------------------------------------------------------------
 Center     Atomic      Atomic             Coordinates (Angstroms)
 Number     Number       Type             X           Y           Z
 ---------------------------------------------------------------------
      1         42           0       -0.159279   -0.643731   -0.972363
      2          6           0       -0.274545   -2.524341   -0.679779
      3          6           0       -0.148129   -0.989175   -2.847497
      4          8           0       -0.139642   -1.205712   -4.000338
      5          8           0       -0.343515   -3.682027   -0.503685
 ---------------------------------------------------------------------
                    Distance matrix (angstroms):
                    1          2          3          4          5
     1  Mo   0.000000
     2  C    1.906721   0.000000
     3  C    1.906721   2.659270   0.000000
     4  O    3.079747   3.575345   1.173031   0.000000
     5  O    3.079747   1.173031   3.575344   4.289555   0.000000
 Symmetry turned off by external request.
 Stoichiometry    C2MoO2
 Framework group  C1[X(C2MoO2)]
 Deg. of freedom     9
 Full point group                 C1      NOp   1
 Rotational constants (GHZ):           3.8438405           2.6657008           1.5740787
 General basis read from cards:  (5D, 7F)
 ======================================================================================================
                                       Pseudopotential Parameters
 ======================================================================================================
  Center     Atomic      Valence      Angular      Power
  Number     Number     Electrons     Momentum     of R      Exponent        Coefficient   SO-Coeffient
 ======================================================================================================
    1         42           14
                                      F and up 
                                                     0      537.9667807       -0.04694920    0.00000000
                                                     1      147.8982938      -20.20800840    0.00000000
                                                     2       45.7358898     -106.21163020    0.00000000
                                                     2       13.2911467      -41.81073680    0.00000000
                                                     2        4.7059961       -4.20541030    0.00000000
                                      S - F
                                                     0      110.2991760        2.80637170    0.00000000
                                                     1       23.2014645       44.51620120    0.00000000
                                                     2        5.3530131       82.77852270    0.00000000
                                      P - F
                                                     0       63.2901397        4.94208760    0.00000000
                                                     1       23.3315302       25.86049760    0.00000000
                                                     2       24.6759423      132.47087420    0.00000000
                                                     2        4.6493040       57.31497940    0.00000000
                                      D - F
                                                     0      104.4839977        3.00545910    0.00000000
                                                     1       66.2307245       26.36378510    0.00000000
                                                     2       39.1283176      183.38491990    0.00000000
                                                     2       13.1164437       98.44530680    0.00000000
                                                     2        3.6280263       22.49013770    0.00000000
    2          6
                                   No pseudopotential on this center.
    3          6
                                   No pseudopotential on this center.
    4          8
                                   No pseudopotential on this center.
    5          8
                                   No pseudopotential on this center.
 ======================================================================================================
    78 basis functions,   161 primitive gaussians,    84 cartesian basis functions
    21 alpha electrons       21 beta electrons
       nuclear repulsion energy       157.6894836733 Hartrees.
 NAtoms=    5 NActive=    5 NUniq=    5 SFac= 1.00D+00 NAtFMM=   60 NAOKFM=F Big=F
 Integral buffers will be    131072 words long.
 Raffenetti 2 integral format.
 Two-electron integral symmetry is turned off.
 One-electron integrals computed using PRISM.
   1 Symmetry operations used in ECPInt.
 ECPInt:  NShTT=     300 NPrTT=    1976 LenC2=     296 LenP2D=    1626.
 LDataN:  DoStor=T MaxTD1= 5 Len=  102
 NBasis=    78 RedAO= T EigKep=  9.13D-03  NBF=    78
 NBsUse=    78 1.00D-06 EigRej= -1.00D+00 NBFU=    78
 Defaulting to unpruned grid for atomic number  42.
 ExpMin= 2.47D-02 ExpMax= 5.48D+03 ExpMxC= 8.25D+02 IAcc=3 IRadAn=         5 AccDes= 0.00D+00
 Harris functional with IExCor=  402 and IRadAn=       5 diagonalized for initial guess.
 HarFok:  IExCor=  402 AccDes= 0.00D+00 IRadAn=         5 IDoV= 1 UseB2=F ITyADJ=14
 ICtDFT=  3500011 ScaDFX=  1.000000  1.000000  1.000000  1.000000
 Defaulting to unpruned grid for atomic number  42.
 FoFCou: FMM=F IPFlag=           0 FMFlag=      100000 FMFlg1=           0
         NFxFlg=           0 DoJE=T BraDBF=F KetDBF=T FulRan=T
         wScrn=  0.000000 ICntrl=       500 IOpCl=  0 I1Cent=   200000004 NGrid=           0
         NMat0=    1 NMatS0=      1 NMatT0=    0 NMatD0=    1 NMtDS0=    0 NMtDT0=    0
 Symmetry not used in FoFCou.
 Keep R1 ints in memory in canonical form, NReq=12026937.
 Requested convergence on RMS density matrix=1.00D-08 within 128 cycles.
 Requested convergence on MAX density matrix=1.00D-06.
 Requested convergence on             energy=1.00D-06.
 No special actions if energy rises.
 Defaulting to unpruned grid for atomic number  42.
 Defaulting to unpruned grid for atomic number  42.
 Defaulting to unpruned grid for atomic number  42.
 Defaulting to unpruned grid for atomic number  42.
 Defaulting to unpruned grid for atomic number  42.
 Defaulting to unpruned grid for atomic number  42.
 Defaulting to unpruned grid for atomic number  42.
 Defaulting to unpruned grid for atomic number  42.
 EnCoef did   100 forward-backward iterations
 EnCoef did   100 forward-backward iterations
 SCF Done:  E(RB3LYP) =  -294.120159597     A.U. after   18 cycles
            NFock= 18  Conv=0.14D-08     -V/T= 2.1869

 **********************************************************************

            Population analysis using the SCF Density.

 **********************************************************************

 Alpha  occ. eigenvalues --  -19.17627 -19.17625 -10.25838 -10.25833  -2.43728
 Alpha  occ. eigenvalues --   -1.46981  -1.46549  -1.46435  -1.07467  -1.07418
 Alpha  occ. eigenvalues --   -0.52841  -0.51888  -0.41850  -0.40938  -0.40833
 Alpha  occ. eigenvalues --   -0.40785  -0.40368  -0.39195  -0.21102  -0.20274
 Alpha  occ. eigenvalues --   -0.19907
 Alpha virt. eigenvalues --   -0.11451  -0.07181  -0.06892  -0.05099   0.03627
 Alpha virt. eigenvalues --    0.04219   0.04973   0.05052   0.05958   0.06645
 Alpha virt. eigenvalues --    0.13510   0.14537   0.22085   0.26941   0.28124
 Alpha virt. eigenvalues --    0.32379   0.33963   0.35365   0.46963   0.49665
 Alpha virt. eigenvalues --    0.60607   0.64709   0.66059   0.70769   0.70803
 Alpha virt. eigenvalues --    0.74783   0.84953   0.90164   0.90437   1.02400
 Alpha virt. eigenvalues --    1.03157   1.03335   1.04434   1.15983   1.53753
 Alpha virt. eigenvalues --    1.53965   1.54035   1.54937   1.55749   1.56689
 Alpha virt. eigenvalues --    1.57235   1.59358   1.60916   1.75126   1.97360
 Alpha virt. eigenvalues --    1.97661   1.97909   1.99181   2.39012   2.41727
 Alpha virt. eigenvalues --    2.59802   2.59849   2.60427   2.61475   2.97076
 Alpha virt. eigenvalues --    3.01917   9.05158
          Condensed to atoms (all electrons):
               1          2          3          4          5
     1  Mo  13.132342   0.339866   0.339867  -0.032534  -0.032534
     2  C    0.339866   4.909957  -0.008635  -0.001879   0.586297
     3  C    0.339867  -0.008635   4.909961   0.586296  -0.001879
     4  O   -0.032534  -0.001879   0.586296   7.748955   0.000052
     5  O   -0.032534   0.586297  -0.001879   0.000052   7.748954
 Mulliken charges:
               1
     1  Mo   0.252994
     2  C    0.174394
     3  C    0.174391
     4  O   -0.300889
     5  O   -0.300889
 Sum of Mulliken charges =  -0.00000
 Mulliken charges with hydrogens summed into heavy atoms:
               1
     1  Mo   0.252994
     2  C    0.174394
     3  C    0.174391
     4  O   -0.300889
     5  O   -0.300889
 Electronic spatial extent (au):  <R**2>=           1422.5871
 Charge=             -0.0000 electrons
 Dipole moment (field-independent basis, Debye):
    X=              0.2157    Y=              4.6299    Z=              3.2915  Tot=              5.6848
 Quadrupole moment (field-independent basis, Debye-Ang):
   XX=            -39.5729   YY=            -55.7231   ZZ=            -56.5871
   XY=             -1.4821   XZ=             -0.5169   YZ=             -6.0714
 Traceless Quadrupole moment (field-independent basis, Debye-Ang):
   XX=             11.0548   YY=             -5.0954   ZZ=             -5.9594
   XY=             -1.4821   XZ=             -0.5169   YZ=             -6.0714
 Octapole moment (field-independent basis, Debye-Ang**2):
  XXX=             23.2647  YYY=            226.5967  ZZZ=            253.4192  XYY=             13.0345
  XXY=             57.3685  XXZ=             60.8475  XZZ=             10.0573  YZZ=             77.0513
  YYZ=             72.4549  XYZ=              1.1729
 Hexadecapole moment (field-independent basis, Debye-Ang**3):
 XXXX=            -51.8961 YYYY=          -1008.4988 ZZZZ=          -1229.7402 XXXY=            -42.4154
 XXXZ=            -29.9830 YYYX=            -61.1653 YYYZ=           -243.3178 ZZZX=            -39.7496
 ZZZY=           -297.3118 XXYY=           -144.8767 XXZZ=           -166.5564 YYZZ=           -314.0315
 XXYZ=            -71.5145 YYXZ=            -12.9414 ZZXY=            -16.7019
 N-N= 1.576894836733D+02 E-N=-9.867560472621D+02  KE= 2.478091000735D+02
   1 Symmetry operations used in ECPInt.
 ECPInt:  NShTT=     300 NPrTT=    1976 LenC2=     296 LenP2D=    1626.
 LDataN:  DoStor=T MaxTD1= 6 Len=  172
 Calling FoFJK, ICntrl=      2127 FMM=F ISym2X=0 I1Cent= 0 IOpClX= 0 NMat=1 NMatS=1 NMatT=0.
 Defaulting to unpruned grid for atomic number  42.
 Defaulting to unpruned grid for atomic number  42.
 Defaulting to unpruned grid for atomic number  42.
 Defaulting to unpruned grid for atomic number  42.
 Defaulting to unpruned grid for atomic number  42.
 Defaulting to unpruned grid for atomic number  42.
 Defaulting to unpruned grid for atomic number  42.
 Defaulting to unpruned grid for atomic number  42.
 -------------------------------------------------------------------
 Center     Atomic                   Forces (Hartrees/Bohr)
 Number     Number              X              Y              Z
 -------------------------------------------------------------------
      1       42          -0.000081859    0.000224261    0.000153545
      2        6           0.000083646   -0.000657897    0.000120590
      3        6           0.000122972   -0.000110179   -0.000651414
      4        8          -0.000076806    0.000082708    0.000455189
      5        8          -0.000047953    0.000461108   -0.000077911
 -------------------------------------------------------------------
 Cartesian Forces:  Max     0.000657897 RMS     0.000308487

 GradGradGradGradGradGradGradGradGradGradGradGradGradGradGradGradGradGrad
 Berny optimization.
 FormGI is forming the generalized inverse of G from B-inverse, IUseBI=4.
 Internal  Forces:  Max     0.000463921 RMS     0.000247283
 Search for a local minimum.
 Step number   1 out of a maximum of   20
 All quantities printed in internal units (Hartrees-Bohrs-Radians)
 Mixed Optimization -- En-DIIS/RFO-DIIS
 Second derivative matrix not updated -- first step.
 The second derivative matrix:
                          R1        R2        R3        R4        A1
           R1           0.23447
           R2           0.00000   0.23447
           R3           0.00000   0.00000   1.19632
           R4           0.00000   0.00000   0.00000   1.19632
           A1           0.00000   0.00000   0.00000   0.00000   0.25000
           A2           0.00000   0.00000   0.00000   0.00000   0.00000
           A3           0.00000   0.00000   0.00000   0.00000   0.00000
           A4           0.00000   0.00000   0.00000   0.00000   0.00000
           A5           0.00000   0.00000   0.00000   0.00000   0.00000
                          A2        A3        A4        A5
           A2           0.04694
           A3           0.00000   0.04694
           A4           0.00000   0.00000   0.04694
           A5           0.00000   0.00000   0.00000   0.04694
 ITU=  0
     Eigenvalues ---    0.04694   0.04694   0.04694   0.04694   0.23447
     Eigenvalues ---    0.23447   0.25000   1.19632   1.19632
 RFO step:  Lambda=-1.57496244D-06 EMin= 4.69413890D-02
 Linear search not attempted -- first point.
 Iteration  1 RMS(Cart)=  0.00136595 RMS(Int)=  0.00000193
 Iteration  2 RMS(Cart)=  0.00000282 RMS(Int)=  0.00000000
 Iteration  3 RMS(Cart)=  0.00000000 RMS(Int)=  0.00000000
 Variable       Old X    -DE/DX   Delta X   Delta X   Delta X     New X
                                 (Linear)    (Quad)   (Total)
    R1        3.60318   0.00020   0.00000   0.00085   0.00085   3.60403
    R2        3.60318   0.00020   0.00000   0.00085   0.00085   3.60402
    R3        2.21671  -0.00046   0.00000  -0.00039  -0.00039   2.21632
    R4        2.21671  -0.00046   0.00000  -0.00039  -0.00039   2.21632
    A1        1.54336   0.00003   0.00000   0.00010   0.00010   1.54346
    A2        3.13819  -0.00002   0.00000  -0.00033  -0.00033   3.13786
    A3        3.13820  -0.00002   0.00000  -0.00033  -0.00033   3.13787
    A4        3.13970   0.00015   0.00000   0.00310   0.00310   3.14281
    A5        3.14344  -0.00014   0.00000  -0.00297  -0.00297   3.14047
         Item               Value     Threshold  Converged?
 Maximum Force            0.000464     0.000450     NO 
 RMS     Force            0.000247     0.000300     YES
 Maximum Displacement     0.002166     0.001800     NO 
 RMS     Displacement     0.001366     0.001200     NO 
 Predicted change in Energy=-7.874812D-07
 GradGradGradGradGradGradGradGradGradGradGradGradGradGradGradGradGradGrad

                          Input orientation:                          
 ---------------------------------------------------------------------
 Center     Atomic      Atomic             Coordinates (Angstroms)
 Number     Number       Type             X           Y           Z
 ---------------------------------------------------------------------
      1         42           0       -0.160137   -0.643489   -0.972242
      2          6           0       -0.273399   -2.524644   -0.679457
      3          6           0       -0.147005   -0.989034   -2.847799
      4          8           0       -0.140329   -1.205751   -4.000410
      5          8           0       -0.344239   -3.682068   -0.503753
 ---------------------------------------------------------------------
                    Distance matrix (angstroms):
                    1          2          3          4          5
     1  Mo   0.000000
     2  C    1.907169   0.000000
     3  C    1.907168   2.660034   0.000000
     4  O    3.079989   3.575739   1.172826   0.000000
     5  O    3.079990   1.172826   3.575735   4.289561   0.000000
 Symmetry turned off by external request.
 Stoichiometry    C2MoO2
 Framework group  C1[X(C2MoO2)]
 Deg. of freedom     9
 Full point group                 C1      NOp   1
 Rotational constants (GHZ):           3.8426310           2.6653529           1.5737544
 Basis read from rwf:  (5D, 7F)
 Pseudo-potential data read from rwf file.
    78 basis functions,   161 primitive gaussians,    84 cartesian basis functions
    21 alpha electrons       21 beta electrons
       nuclear repulsion energy       157.6794549152 Hartrees.
 NAtoms=    5 NActive=    5 NUniq=    5 SFac= 1.00D+00 NAtFMM=   60 NAOKFM=F Big=F
 Integral buffers will be    131072 words long.
 Raffenetti 2 integral format.
 Two-electron integral symmetry is turned off.
 One-electron integrals computed using PRISM.
   1 Symmetry operations used in ECPInt.
 ECPInt:  NShTT=     300 NPrTT=    1976 LenC2=     296 LenP2D=    1626.
 LDataN:  DoStor=T MaxTD1= 5 Len=  102
 NBasis=    78 RedAO= T EigKep=  9.12D-03  NBF=    78
 NBsUse=    78 1.00D-06 EigRej= -1.00D+00 NBFU=    78
 Defaulting to unpruned grid for atomic number  42.
 Initial guess from the checkpoint file:  "/localscratch/chegho/Gau-118911.chk"
 B after Tr=    -0.001961    0.000357    0.000138
         Rot=    1.000000    0.000007    0.000089   -0.000124 Ang=   0.02 deg.
 Keep R1 ints in memory in canonical form, NReq=12026937.
 Requested convergence on RMS density matrix=1.00D-08 within 128 cycles.
 Requested convergence on MAX density matrix=1.00D-06.
 Requested convergence on             energy=1.00D-06.
 No special actions if energy rises.
 Defaulting to unpruned grid for atomic number  42.
 Defaulting to unpruned grid for atomic number  42.
 Defaulting to unpruned grid for atomic number  42.
 Defaulting to unpruned grid for atomic number  42.
 Defaulting to unpruned grid for atomic number  42.
 Defaulting to unpruned grid for atomic number  42.
 Defaulting to unpruned grid for atomic number  42.
 Defaulting to unpruned grid for atomic number  42.
 SCF Done:  E(RB3LYP) =  -294.120160172     A.U. after   10 cycles
            NFock= 10  Conv=0.70D-08     -V/T= 2.1869
   1 Symmetry operations used in ECPInt.
 ECPInt:  NShTT=     300 NPrTT=    1976 LenC2=     296 LenP2D=    1626.
 LDataN:  DoStor=T MaxTD1= 6 Len=  172
 Calling FoFJK, ICntrl=      2127 FMM=F ISym2X=0 I1Cent= 0 IOpClX= 0 NMat=1 NMatS=1 NMatT=0.
 Defaulting to unpruned grid for atomic number  42.
 Defaulting to unpruned grid for atomic number  42.
 Defaulting to unpruned grid for atomic number  42.
 Defaulting to unpruned grid for atomic number  42.
 Defaulting to unpruned grid for atomic number  42.
 Defaulting to unpruned grid for atomic number  42.
 Defaulting to unpruned grid for atomic number  42.
 Defaulting to unpruned grid for atomic number  42.
 -------------------------------------------------------------------
 Center     Atomic                   Forces (Hartrees/Bohr)
 Number     Number              X              Y              Z
 -------------------------------------------------------------------
      1       42           0.000058599    0.000044851    0.000035089
      2        6          -0.000083893   -0.000139018   -0.000007635
      3        6          -0.000073894   -0.000049001   -0.000134719
      4        8           0.000044810    0.000029976    0.000112198
      5        8           0.000054378    0.000113192   -0.000004934
 -------------------------------------------------------------------
 Cartesian Forces:  Max     0.000139018 RMS     0.000077631

 GradGradGradGradGradGradGradGradGradGradGradGradGradGradGradGradGradGrad
 Berny optimization.
 Using GEDIIS/GDIIS optimizer.
 FormGI is forming the generalized inverse of G from B-inverse, IUseBI=4.
 Internal  Forces:  Max     0.000115690 RMS     0.000071487
 Search for a local minimum.
 Step number   2 out of a maximum of   20
 All quantities printed in internal units (Hartrees-Bohrs-Radians)
 Mixed Optimization -- En-DIIS/RFO-DIIS
 Swapping is turned off.
 Update second derivatives using D2CorX and points    1    2
 DE= -5.75D-07 DEPred=-7.87D-07 R= 7.31D-01
 Trust test= 7.31D-01 RLast= 4.52D-03 DXMaxT set to 3.00D-01
 The second derivative matrix:
                          R1        R2        R3        R4        A1
           R1           0.22444
           R2          -0.01001   0.22449
           R3           0.02832   0.02826   1.12032
           R4           0.02829   0.02822  -0.07589   1.12052
           A1           0.00184   0.00184  -0.00266  -0.00265   0.25129
           A2          -0.00162  -0.00162   0.00262   0.00261  -0.00096
           A3          -0.00161  -0.00161   0.00261   0.00260  -0.00095
           A4           0.00205   0.00205   0.00185   0.00186   0.00452
           A5          -0.00198  -0.00198  -0.00175  -0.00176  -0.00434
                          A2        A3        A4        A5
           A2           0.04765
           A3           0.00070   0.04763
           A4          -0.00344  -0.00341   0.06125
           A5           0.00330   0.00327  -0.01373   0.06011
 ITU=  0  0
     Eigenvalues ---    0.04664   0.04694   0.04694   0.07567   0.21059
     Eigenvalues ---    0.23447   0.25173   1.04842   1.19632
 En-DIIS/RFO-DIIS/Sim-DIIS IScMMF=       -3 using points:     2    1
 RFO step:  Lambda=-2.52472367D-07.
 DidBck=T Rises=F RFO-DIIS coefs:    0.66453    0.33547
 Iteration  1 RMS(Cart)=  0.00058280 RMS(Int)=  0.00000033
 Iteration  2 RMS(Cart)=  0.00000044 RMS(Int)=  0.00000000
 Variable       Old X    -DE/DX   Delta X   Delta X   Delta X     New X
                                 (Linear)    (Quad)   (Total)
    R1        3.60403   0.00003  -0.00028   0.00046   0.00018   3.60421
    R2        3.60402   0.00003  -0.00028   0.00046   0.00018   3.60420
    R3        2.21632  -0.00012   0.00013  -0.00025  -0.00012   2.21620
    R4        2.21632  -0.00012   0.00013  -0.00025  -0.00012   2.21620
    A1        1.54346  -0.00003  -0.00003  -0.00006  -0.00009   1.54337
    A2        3.13786   0.00003   0.00011   0.00029   0.00040   3.13826
    A3        3.13787   0.00003   0.00011   0.00028   0.00039   3.13826
    A4        3.14281  -0.00009  -0.00104  -0.00013  -0.00117   3.14163
    A5        3.14047   0.00009   0.00100   0.00013   0.00112   3.14159
         Item               Value     Threshold  Converged?
 Maximum Force            0.000116     0.000450     YES
 RMS     Force            0.000071     0.000300     YES
 Maximum Displacement     0.000842     0.001800     YES
 RMS     Displacement     0.000583     0.001200     YES
 Predicted change in Energy=-1.311474D-07
 Optimization completed.
    -- Stationary point found.
                           ----------------------------
                           !   Optimized Parameters   !
                           ! (Angstroms and Degrees)  !
 --------------------------                            --------------------------
 ! Name  Definition              Value          Derivative Info.                !
 --------------------------------------------------------------------------------
 ! R1    R(1,2)                  1.9072         -DE/DX =    0.0                 !
 ! R2    R(1,3)                  1.9072         -DE/DX =    0.0                 !
 ! R3    R(2,5)                  1.1728         -DE/DX =   -0.0001              !
 ! R4    R(3,4)                  1.1728         -DE/DX =   -0.0001              !
 ! A1    A(2,1,3)               88.434          -DE/DX =    0.0                 !
 ! A2    L(1,2,5,4,-1)         179.7862         -DE/DX =    0.0                 !
 ! A3    L(1,3,4,5,-1)         179.7866         -DE/DX =    0.0                 !
 ! A4    L(1,2,5,4,-2)         180.0695         -DE/DX =   -0.0001              !
 ! A5    L(1,3,4,5,-2)         179.9355         -DE/DX =    0.0001              !
 --------------------------------------------------------------------------------
 GradGradGradGradGradGradGradGradGradGradGradGradGradGradGradGradGradGrad

                          Input orientation:                          
 ---------------------------------------------------------------------
 Center     Atomic      Atomic             Coordinates (Angstroms)
 Number     Number       Type             X           Y           Z
 ---------------------------------------------------------------------
      1         42           0       -0.160137   -0.643489   -0.972242
      2          6           0       -0.273399   -2.524644   -0.679457
      3          6           0       -0.147005   -0.989034   -2.847799
      4          8           0       -0.140329   -1.205751   -4.000410
      5          8           0       -0.344239   -3.682068   -0.503753
 ---------------------------------------------------------------------
                    Distance matrix (angstroms):
                    1          2          3          4          5
     1  Mo   0.000000
     2  C    1.907169   0.000000
     3  C    1.907168   2.660034   0.000000
     4  O    3.079989   3.575739   1.172826   0.000000
     5  O    3.079990   1.172826   3.575735   4.289561   0.000000
 Symmetry turned off by external request.
 Stoichiometry    C2MoO2
 Framework group  C1[X(C2MoO2)]
 Deg. of freedom     9
 Full point group                 C1      NOp   1
 Rotational constants (GHZ):           3.8426310           2.6653529           1.5737544

 **********************************************************************

            Population analysis using the SCF Density.

 **********************************************************************

 Alpha  occ. eigenvalues --  -19.17632 -19.17630 -10.25838 -10.25833  -2.43722
 Alpha  occ. eigenvalues --   -1.46973  -1.46542  -1.46429  -1.07483  -1.07434
 Alpha  occ. eigenvalues --   -0.52840  -0.51889  -0.41854  -0.40938  -0.40836
 Alpha  occ. eigenvalues --   -0.40793  -0.40377  -0.39203  -0.21094  -0.20266
 Alpha  occ. eigenvalues --   -0.19901
 Alpha virt. eigenvalues --   -0.11445  -0.07178  -0.06891  -0.05096   0.03630
 Alpha virt. eigenvalues --    0.04220   0.04974   0.05053   0.05957   0.06644
 Alpha virt. eigenvalues --    0.13510   0.14536   0.22079   0.26940   0.28125
 Alpha virt. eigenvalues --    0.32385   0.33968   0.35372   0.46967   0.49661
 Alpha virt. eigenvalues --    0.60599   0.64701   0.66052   0.70779   0.70796
 Alpha virt. eigenvalues --    0.74808   0.84965   0.90158   0.90428   1.02399
 Alpha virt. eigenvalues --    1.03153   1.03333   1.04431   1.15988   1.53747
 Alpha virt. eigenvalues --    1.53960   1.54037   1.54928   1.55755   1.56689
 Alpha virt. eigenvalues --    1.57244   1.59343   1.60926   1.75118   1.97369
 Alpha virt. eigenvalues --    1.97668   1.97915   1.99186   2.39043   2.41754
 Alpha virt. eigenvalues --    2.59822   2.59869   2.60445   2.61494   2.97094
 Alpha virt. eigenvalues --    3.01939   9.04578
          Condensed to atoms (all electrons):
               1          2          3          4          5
     1  Mo  13.132730   0.339800   0.339801  -0.032528  -0.032529
     2  C    0.339800   4.909856  -0.008621  -0.001877   0.586529
     3  C    0.339801  -0.008621   4.909860   0.586528  -0.001877
     4  O   -0.032528  -0.001877   0.586528   7.748499   0.000052
     5  O   -0.032529   0.586529  -0.001877   0.000052   7.748498
 Mulliken charges:
               1
     1  Mo   0.252726
     2  C    0.174313
     3  C    0.174309
     4  O   -0.300674
     5  O   -0.300674
 Sum of Mulliken charges =  -0.00000
 Mulliken charges with hydrogens summed into heavy atoms:
               1
     1  Mo   0.252726
     2  C    0.174313
     3  C    0.174309
     4  O   -0.300674
     5  O   -0.300674
 Electronic spatial extent (au):  <R**2>=           1422.6389
 Charge=             -0.0000 electrons
 Dipole moment (field-independent basis, Debye):
    X=              0.2086    Y=              4.6277    Z=              3.2895  Tot=              5.6815
 Quadrupole moment (field-independent basis, Debye-Ang):
   XX=            -39.5724   YY=            -55.7120   ZZ=            -56.5747
   XY=             -1.4810   XZ=             -0.5130   YZ=             -6.0692
 Traceless Quadrupole moment (field-independent basis, Debye-Ang):
   XX=             11.0473   YY=             -5.0923   ZZ=             -5.9550
   XY=             -1.4810   XZ=             -0.5130   YZ=             -6.0692
 Octapole moment (field-independent basis, Debye-Ang**2):
  XXX=             23.2799  YYY=            226.5382  ZZZ=            253.3559  XYY=             13.0548
  XXY=             57.3661  XXZ=             60.8446  XZZ=             10.0745  YZZ=             77.0344
  YYZ=             72.4473  XYZ=              1.1768
 Hexadecapole moment (field-independent basis, Debye-Ang**3):
 XXXX=            -51.9059 YYYY=          -1008.3185 ZZZZ=          -1229.5224 XXXY=            -42.4108
 XXXZ=            -29.9862 YYYX=            -61.2434 YYYZ=           -243.2739 ZZZX=            -39.8451
 ZZZY=           -297.2296 XXYY=           -144.8891 XXZZ=           -166.5602 YYZZ=           -314.0131
 XXYZ=            -71.5080 YYXZ=            -12.9622 ZZXY=            -16.7309
 N-N= 1.576794549152D+02 E-N=-9.867359401977D+02  KE= 2.478095611887D+02
 Unable to Open any file for archive entry.
 1\1\GINC-NODE2\FOpt\RB3LYP\Gen\C2Mo1O2\CHEGHO\19-Sep-2022\0\\# opt fre
 q b3lyp/gen nosymm pseudo=read\\Title Card Required\\0,1\Mo,-0.1601369
 588,-0.6434887524,-0.9722421641\C,-0.2733989736,-2.5246435995,-0.67945
 71665\C,-0.1470054074,-0.9890342919,-2.8477993356\O,-0.1403294904,-1.2
 057513323,-4.0004099152\O,-0.3442391697,-3.682068024,-0.5037534185\\Ve
 rsion=ES64L-G16RevC.01\HF=-294.1201602\RMSD=6.981e-09\RMSF=7.763e-05\D
 ipole=0.0820716,1.8206749,1.2941753\Quadrupole=8.2133916,-3.7860107,-4
 .4273809,-1.1010761,-0.3814285,-4.5123228\PG=C01 [X(C2Mo1O2)]\\@
 The archive entry for this job was punched.


 We're simply so accustomed to the marvels of everyday thought
 that we never wonder about it.
 -- Marvin Minsky in "Why people think computers are smart"
 Job cpu time:       0 days  0 hours  1 minutes 31.0 seconds.
 Elapsed time:       0 days  0 hours  0 minutes 15.2 seconds.
 File lengths (MBytes):  RWF=     17 Int=      0 D2E=      0 Chk=      2 Scr=      2
 Normal termination of Gaussian 16 at Mon Sep 19 21:10:07 2022.
 Link1:  Proceeding to internal job step number  2.
 ------------------------------------------------------------------
 #N Geom=AllCheck Guess=TCheck SCRF=Check GenChk RB3LYP/ChkBas Freq
 ------------------------------------------------------------------
 1/10=4,29=7,30=1,38=1,40=1/1,3;
 2/12=2,15=1,40=1/2;
 3/5=7,6=2,11=2,14=-4,16=1,17=8,25=1,30=1,67=1,70=2,71=2,74=-5,82=7,116=1,140=1/1,2,3;
 4/5=101/1;
 5/5=2,38=6,98=1/2;
 8/6=4,10=90,11=11/1;
 11/6=1,8=1,9=11,15=111,16=1,31=1/1,2,10;
 10/6=1,31=1/2;
 6/7=2,8=2,9=2,10=2,28=1/1;
 7/8=1,10=1,25=1,30=1/1,2,3,16;
 1/10=4,30=1/3;
 99//99;
 Structure from the checkpoint file:  "/localscratch/chegho/Gau-118911.chk"
 -------------------
 Title Card Required
 -------------------
 Charge =  0 Multiplicity = 1
 Redundant internal coordinates found in file.  (old form).
 Mo,0,-0.1601369588,-0.6434887524,-0.9722421641
 C,0,-0.2733989736,-2.5246435995,-0.6794571665
 C,0,-0.1470054074,-0.9890342919,-2.8477993356
 O,0,-0.1403294904,-1.2057513323,-4.0004099152
 O,0,-0.3442391697,-3.682068024,-0.5037534185
 Recover connectivity data from disk.

 GradGradGradGradGradGradGradGradGradGradGradGradGradGradGradGradGradGrad
 Berny optimization.
 Initialization pass.
                           ----------------------------
                           !    Initial Parameters    !
                           ! (Angstroms and Degrees)  !
 --------------------------                            --------------------------
 ! Name  Definition              Value          Derivative Info.                !
 --------------------------------------------------------------------------------
 ! R1    R(1,2)                  1.9072         calculate D2E/DX2 analytically  !
 ! R2    R(1,3)                  1.9072         calculate D2E/DX2 analytically  !
 ! R3    R(2,5)                  1.1728         calculate D2E/DX2 analytically  !
 ! R4    R(3,4)                  1.1728         calculate D2E/DX2 analytically  !
 ! A1    A(2,1,3)               88.434          calculate D2E/DX2 analytically  !
 ! A2    L(1,2,5,4,-1)         179.7862         calculate D2E/DX2 analytically  !
 ! A3    L(1,3,4,5,-1)         179.7866         calculate D2E/DX2 analytically  !
 ! A4    L(1,2,5,4,-2)         180.0695         calculate D2E/DX2 analytically  !
 ! A5    L(1,3,4,5,-2)         179.9355         calculate D2E/DX2 analytically  !
 --------------------------------------------------------------------------------
 Trust Radius=3.00D-01 FncErr=1.00D-07 GrdErr=1.00D-07 EigMax=2.50D+02 EigMin=1.00D-04
 Number of steps in this run=      2 maximum allowed number of steps=      2.
 GradGradGradGradGradGradGradGradGradGradGradGradGradGradGradGradGradGrad

                          Input orientation:                          
 ---------------------------------------------------------------------
 Center     Atomic      Atomic             Coordinates (Angstroms)
 Number     Number       Type             X           Y           Z
 ---------------------------------------------------------------------
      1         42           0       -0.160137   -0.643489   -0.972242
      2          6           0       -0.273399   -2.524644   -0.679457
      3          6           0       -0.147005   -0.989034   -2.847799
      4          8           0       -0.140329   -1.205751   -4.000410
      5          8           0       -0.344239   -3.682068   -0.503753
 ---------------------------------------------------------------------
                    Distance matrix (angstroms):
                    1          2          3          4          5
     1  Mo   0.000000
     2  C    1.907169   0.000000
     3  C    1.907168   2.660034   0.000000
     4  O    3.079989   3.575739   1.172826   0.000000
     5  O    3.079990   1.172826   3.575735   4.289561   0.000000
 Symmetry turned off by external request.
 Stoichiometry    C2MoO2
 Framework group  C1[X(C2MoO2)]
 Deg. of freedom     9
 Full point group                 C1      NOp   1
 Rotational constants (GHZ):           3.8426310           2.6653529           1.5737544
 Basis read from chk: "/localscratch/chegho/Gau-118911.chk" (5D, 7F)
 Pseudo-potential data read from chk file.
    78 basis functions,   161 primitive gaussians,    84 cartesian basis functions
    21 alpha electrons       21 beta electrons
       nuclear repulsion energy       157.6794549152 Hartrees.
 NAtoms=    5 NActive=    5 NUniq=    5 SFac= 1.00D+00 NAtFMM=   60 NAOKFM=F Big=F
 Integral buffers will be    131072 words long.
 Raffenetti 2 integral format.
 Two-electron integral symmetry is turned off.
 One-electron integrals computed using PRISM.
   1 Symmetry operations used in ECPInt.
 ECPInt:  NShTT=     300 NPrTT=    1976 LenC2=     296 LenP2D=    1626.
 LDataN:  DoStor=T MaxTD1= 5 Len=  102
 NBasis=    78 RedAO= T EigKep=  9.12D-03  NBF=    78
 NBsUse=    78 1.00D-06 EigRej= -1.00D+00 NBFU=    78
 Defaulting to unpruned grid for atomic number  42.
 Initial guess from the checkpoint file:  "/localscratch/chegho/Gau-118911.chk"
 B after Tr=     0.000000    0.000000    0.000000
         Rot=    1.000000    0.000000    0.000000    0.000000 Ang=   0.00 deg.
 Keep R1 ints in memory in canonical form, NReq=12026937.
 Requested convergence on RMS density matrix=1.00D-08 within 128 cycles.
 Requested convergence on MAX density matrix=1.00D-06.
 Requested convergence on             energy=1.00D-06.
 No special actions if energy rises.
 Defaulting to unpruned grid for atomic number  42.
 Defaulting to unpruned grid for atomic number  42.
 Defaulting to unpruned grid for atomic number  42.
 Defaulting to unpruned grid for atomic number  42.
 Defaulting to unpruned grid for atomic number  42.
 Defaulting to unpruned grid for atomic number  42.
 Defaulting to unpruned grid for atomic number  42.
 Defaulting to unpruned grid for atomic number  42.
 SCF Done:  E(RB3LYP) =  -294.120160172     A.U. after    1 cycles
            NFock=  1  Conv=0.84D-08     -V/T= 2.1869
 DoSCS=F DFT=T ScalE2(SS,OS)=  1.000000  1.000000
 Range of M.O.s used for correlation:     1    78
 NBasis=    78 NAE=    21 NBE=    21 NFC=     0 NFV=     0
 NROrb=     78 NOA=    21 NOB=    21 NVA=    57 NVB=    57

 **** Warning!!: The smallest alpha delta epsilon is  0.84554596D-01

   1 Symmetry operations used in ECPInt.
 ECPInt:  NShTT=     300 NPrTT=    1976 LenC2=     296 LenP2D=    1626.
 LDataN:  DoStor=T MaxTD1= 6 Len=  172
 Symmetrizing basis deriv contribution to polar:
 IMax=3 JMax=2 DiffMx= 0.00D+00
 G2DrvN: will do     6 centers at a time, making    1 passes.
 Calling FoFCou, ICntrl=  3107 FMM=F I1Cent=   0 AccDes= 0.00D+00.
 Defaulting to unpruned grid for atomic number  42.
 Defaulting to unpruned grid for atomic number  42.
 Defaulting to unpruned grid for atomic number  42.
 Defaulting to unpruned grid for atomic number  42.
 Defaulting to unpruned grid for atomic number  42.
 Defaulting to unpruned grid for atomic number  42.
 Defaulting to unpruned grid for atomic number  42.
 Defaulting to unpruned grid for atomic number  42.
 End of G2Drv F.D. properties file   721 does not exist.
 End of G2Drv F.D. properties file   722 does not exist.
 End of G2Drv F.D. properties file   788 does not exist.
          IDoAtm=11111
          Differentiating once with respect to electric field.
                with respect to dipole field.
          Differentiating once with respect to nuclear coordinates.
 Defaulting to unpruned grid for atomic number  42.
 Keep R1 ints in memory in canonical form, NReq=12003659.
 Defaulting to unpruned grid for atomic number  42.
 Defaulting to unpruned grid for atomic number  42.
 Defaulting to unpruned grid for atomic number  42.
 Defaulting to unpruned grid for atomic number  42.
 Defaulting to unpruned grid for atomic number  42.
 Defaulting to unpruned grid for atomic number  42.
 Defaulting to unpruned grid for atomic number  42.
 Defaulting to unpruned grid for atomic number  42.
          There are    18 degrees of freedom in the 1st order CPHF.  IDoFFX=6 NUNeed=     3.
     15 vectors produced by pass  0 Test12= 6.65D-15 5.56D-09 XBig12= 2.12D+02 6.67D+00.
 AX will form    15 AO Fock derivatives at one time.
     15 vectors produced by pass  1 Test12= 6.65D-15 5.56D-09 XBig12= 1.36D+02 3.70D+00.
     15 vectors produced by pass  2 Test12= 6.65D-15 5.56D-09 XBig12= 6.24D+00 6.09D-01.
     15 vectors produced by pass  3 Test12= 6.65D-15 5.56D-09 XBig12= 7.57D-02 6.87D-02.
     15 vectors produced by pass  4 Test12= 6.65D-15 5.56D-09 XBig12= 1.04D-03 6.76D-03.
     15 vectors produced by pass  5 Test12= 6.65D-15 5.56D-09 XBig12= 9.16D-06 1.22D-03.
     15 vectors produced by pass  6 Test12= 6.65D-15 5.56D-09 XBig12= 3.16D-08 4.20D-05.
      6 vectors produced by pass  7 Test12= 6.65D-15 5.56D-09 XBig12= 5.88D-11 2.46D-06.
      3 vectors produced by pass  8 Test12= 6.65D-15 5.56D-09 XBig12= 8.23D-14 6.19D-08.
 InvSVY:  IOpt=1 It=  1 EMax= 1.33D-15
 Solved reduced A of dimension   114 with    15 vectors.
 Isotropic polarizability for W=    0.000000       61.67 Bohr**3.
 End of Minotr F.D. properties file   721 does not exist.
 End of Minotr F.D. properties file   722 does not exist.
 End of Minotr F.D. properties file   788 does not exist.

 **********************************************************************

            Population analysis using the SCF Density.

 **********************************************************************

 Alpha  occ. eigenvalues --  -19.17632 -19.17630 -10.25838 -10.25833  -2.43722
 Alpha  occ. eigenvalues --   -1.46973  -1.46542  -1.46429  -1.07483  -1.07434
 Alpha  occ. eigenvalues --   -0.52840  -0.51889  -0.41854  -0.40938  -0.40836
 Alpha  occ. eigenvalues --   -0.40793  -0.40377  -0.39203  -0.21094  -0.20266
 Alpha  occ. eigenvalues --   -0.19901
 Alpha virt. eigenvalues --   -0.11445  -0.07178  -0.06891  -0.05096   0.03630
 Alpha virt. eigenvalues --    0.04220   0.04974   0.05053   0.05957   0.06644
 Alpha virt. eigenvalues --    0.13510   0.14536   0.22079   0.26940   0.28125
 Alpha virt. eigenvalues --    0.32385   0.33968   0.35372   0.46967   0.49661
 Alpha virt. eigenvalues --    0.60599   0.64701   0.66052   0.70779   0.70796
 Alpha virt. eigenvalues --    0.74808   0.84965   0.90158   0.90428   1.02399
 Alpha virt. eigenvalues --    1.03153   1.03333   1.04431   1.15988   1.53747
 Alpha virt. eigenvalues --    1.53960   1.54037   1.54928   1.55755   1.56689
 Alpha virt. eigenvalues --    1.57244   1.59343   1.60926   1.75118   1.97369
 Alpha virt. eigenvalues --    1.97668   1.97915   1.99186   2.39043   2.41754
 Alpha virt. eigenvalues --    2.59822   2.59869   2.60445   2.61494   2.97094
 Alpha virt. eigenvalues --    3.01939   9.04578
          Condensed to atoms (all electrons):
               1          2          3          4          5
     1  Mo  13.132730   0.339800   0.339801  -0.032528  -0.032529
     2  C    0.339800   4.909856  -0.008621  -0.001877   0.586529
     3  C    0.339801  -0.008621   4.909860   0.586528  -0.001877
     4  O   -0.032528  -0.001877   0.586528   7.748501   0.000052
     5  O   -0.032529   0.586529  -0.001877   0.000052   7.748498
 Mulliken charges:
               1
     1  Mo   0.252726
     2  C    0.174313
     3  C    0.174309
     4  O   -0.300675
     5  O   -0.300673
 Sum of Mulliken charges =  -0.00000
 Mulliken charges with hydrogens summed into heavy atoms:
               1
     1  Mo   0.252726
     2  C    0.174313
     3  C    0.174309
     4  O   -0.300675
     5  O   -0.300673
 APT charges:
               1
     1  Mo   0.061113
     2  C    0.680062
     3  C    0.680055
     4  O   -0.710611
     5  O   -0.710619
 Sum of APT charges =  -0.00000
 APT charges with hydrogens summed into heavy atoms:
               1
     1  Mo   0.061113
     2  C    0.680062
     3  C    0.680055
     4  O   -0.710611
     5  O   -0.710619
 Electronic spatial extent (au):  <R**2>=           1422.6389
 Charge=             -0.0000 electrons
 Dipole moment (field-independent basis, Debye):
    X=              0.2086    Y=              4.6277    Z=              3.2895  Tot=              5.6815
 Quadrupole moment (field-independent basis, Debye-Ang):
   XX=            -39.5724   YY=            -55.7120   ZZ=            -56.5748
   XY=             -1.4810   XZ=             -0.5130   YZ=             -6.0692
 Traceless Quadrupole moment (field-independent basis, Debye-Ang):
   XX=             11.0473   YY=             -5.0923   ZZ=             -5.9550
   XY=             -1.4810   XZ=             -0.5130   YZ=             -6.0692
 Octapole moment (field-independent basis, Debye-Ang**2):
  XXX=             23.2799  YYY=            226.5381  ZZZ=            253.3562  XYY=             13.0548
  XXY=             57.3661  XXZ=             60.8446  XZZ=             10.0745  YZZ=             77.0345
  YYZ=             72.4473  XYZ=              1.1768
 Hexadecapole moment (field-independent basis, Debye-Ang**3):
 XXXX=            -51.9059 YYYY=          -1008.3182 ZZZZ=          -1229.5233 XXXY=            -42.4108
 XXXZ=            -29.9862 YYYX=            -61.2434 YYYZ=           -243.2739 ZZZX=            -39.8451
 ZZZY=           -297.2298 XXYY=           -144.8891 XXZZ=           -166.5602 YYZZ=           -314.0132
 XXYZ=            -71.5080 YYXZ=            -12.9622 ZZXY=            -16.7309
 N-N= 1.576794549152D+02 E-N=-9.867359403436D+02  KE= 2.478095614623D+02
  Exact polarizability:      37.482       2.070      70.243      -1.263      -9.864      77.279
 Approx polarizability:      48.212       7.458     173.636      -3.010     -11.477     182.153
   1 Symmetry operations used in ECPInt.
 ECPInt:  NShTT=     300 NPrTT=    1976 LenC2=     296 LenP2D=    1626.
 LDataN:  DoStor=T MaxTD1= 7 Len=  274
 Calling FoFJK, ICntrl=    100127 FMM=F ISym2X=0 I1Cent= 0 IOpClX= 0 NMat=1 NMatS=1 NMatT=0.
 Defaulting to unpruned grid for atomic number  42.
 Defaulting to unpruned grid for atomic number  42.
 Defaulting to unpruned grid for atomic number  42.
 Defaulting to unpruned grid for atomic number  42.
 Defaulting to unpruned grid for atomic number  42.
 Defaulting to unpruned grid for atomic number  42.
 Defaulting to unpruned grid for atomic number  42.
 Defaulting to unpruned grid for atomic number  42.
 Full mass-weighted force constant matrix:
 Low frequencies ---    0.0008    0.0008    0.0008    2.9938    3.8074    4.5440
 Low frequencies ---   94.4571  381.1321  397.4581
 Diagonal vibrational polarizability:
        2.9928731       8.6956261       9.6455417
 Harmonic frequencies (cm**-1), IR intensities (KM/Mole), Raman scattering
 activities (A**4/AMU), depolarization ratios for plane and unpolarized
 incident light, reduced masses (AMU), force constants (mDyne/A),
 and normal coordinates:
                      1                      2                      3
                      A                      A                      A
 Frequencies --     94.4571               381.1321               397.4581
 Red. masses --     17.2128                12.7108                13.0132
 Frc consts  --      0.0905                 1.0879                 1.2112
 IR Inten    --      1.4645                 0.0001                17.4253
  Atom  AN      X      Y      Z        X      Y      Z        X      Y      Z
     1  42    -0.01  -0.11  -0.08    -0.00   0.00  -0.00    -0.06   0.00  -0.00
     2   6    -0.01  -0.07   0.20    -0.64   0.04  -0.01     0.64  -0.04   0.01
     3   6     0.01   0.17  -0.14     0.64  -0.04   0.01     0.64  -0.04   0.01
     4   8     0.04   0.63  -0.22    -0.30   0.02  -0.00    -0.30   0.02  -0.00
     5   8    -0.01  -0.00   0.67     0.30  -0.02   0.01    -0.30   0.02  -0.01
                      4                      5                      6
                      A                      A                      A
 Frequencies --    403.3613               513.5123               517.8979
 Red. masses --     12.8058                17.3530                15.8575
 Frc consts  --      1.2276                 2.6960                 2.5060
 IR Inten    --      5.5333                11.9763                 2.5951
  Atom  AN      X      Y      Z        X      Y      Z        X      Y      Z
     1  42    -0.00  -0.02   0.03    -0.01  -0.11   0.16    -0.01  -0.13  -0.09
     2   6     0.01  -0.12  -0.63     0.03   0.47  -0.08     0.03   0.38  -0.35
     3   6     0.04   0.63  -0.10     0.00  -0.08  -0.47    -0.02  -0.20   0.47
     4   8    -0.02  -0.29   0.08     0.00  -0.09  -0.50     0.00   0.17   0.44
     5   8    -0.01   0.02   0.30     0.03   0.50  -0.08     0.03   0.47   0.01
                      7                      8                      9
                      A                      A                      A
 Frequencies --    651.0615              1936.8419              2007.9629
 Red. masses --     13.6745                13.3497                13.3078
 Frc consts  --      3.4151                29.5059                31.6132
 IR Inten    --      0.5600              1178.3433               458.7452
  Atom  AN      X      Y      Z        X      Y      Z        X      Y      Z
     1  42    -0.00  -0.10  -0.07    -0.00  -0.00   0.00    -0.00  -0.01  -0.00
     2   6     0.00   0.21   0.63     0.03   0.57  -0.08     0.03   0.57  -0.08
     3   6     0.04   0.66  -0.01     0.00  -0.11  -0.57    -0.00   0.11   0.57
     4   8    -0.01  -0.16   0.17    -0.00   0.08   0.40     0.00  -0.08  -0.40
     5   8     0.01   0.11  -0.20    -0.02  -0.41   0.06    -0.02  -0.40   0.06

 -------------------
 - Thermochemistry -
 -------------------
 Temperature   298.150 Kelvin.  Pressure   1.00000 Atm.
 Atom     1 has atomic number 42 and mass  97.90550
 Atom     2 has atomic number  6 and mass  12.00000
 Atom     3 has atomic number  6 and mass  12.00000
 Atom     4 has atomic number  8 and mass  15.99491
 Atom     5 has atomic number  8 and mass  15.99491
 Molecular mass:   153.89533 amu.
 Principal axes and moments of inertia in atomic units:
                           1         2         3
     Eigenvalues --   469.66289 677.111531146.77435
           X           -0.04753   0.03707   0.99818
           Y           -0.57729   0.81450  -0.05774
           Z            0.81515   0.57898   0.01731
 This molecule is an asymmetric top.
 Rotational symmetry number  1.
 Warning -- assumption of classical behavior for rotation
           may cause significant error
 Rotational temperatures (Kelvin)      0.18442     0.12792     0.07553
 Rotational constants (GHZ):           3.84263     2.66535     1.57375
 Zero-point vibrational energy      41293.2 (Joules/Mol)
                                    9.86931 (Kcal/Mol)
 Warning -- explicit consideration of   6 degrees of freedom as
           vibrations may cause significant error
 Vibrational temperatures:    135.90   548.36   571.85   580.35   738.83
          (Kelvin)            745.14   936.73  2786.68  2889.01
 
 Zero-point correction=                           0.015728 (Hartree/Particle)
 Thermal correction to Energy=                    0.020812
 Thermal correction to Enthalpy=                  0.021757
 Thermal correction to Gibbs Free Energy=        -0.014605
 Sum of electronic and zero-point Energies=           -294.104432
 Sum of electronic and thermal Energies=              -294.099348
 Sum of electronic and thermal Enthalpies=            -294.098403
 Sum of electronic and thermal Free Energies=         -294.134765
 
                     E (Thermal)             CV                S
                      KCal/Mol        Cal/Mol-Kelvin    Cal/Mol-Kelvin
 Total                   13.060             15.746             76.530
 Electronic               0.000              0.000              0.000
 Translational            0.889              2.981             41.003
 Rotational               0.889              2.981             27.391
 Vibrational             11.283              9.785              8.136
 Vibration     1          0.603              1.953              3.566
 Vibration     2          0.751              1.510              1.035
 Vibration     3          0.764              1.476              0.972
 Vibration     4          0.769              1.463              0.950
 Vibration     5          0.869              1.220              0.625
 Vibration     6          0.873              1.210              0.615
                       Q            Log10(Q)             Ln(Q)
 Total Bot       0.522262D+07          6.717888         15.468509
 Total V=0       0.895665D+14         13.952145         32.126002
 Vib (Bot)       0.321950D-06         -6.492212        -14.948870
 Vib (Bot)    1  0.217497D+01          0.337453          0.777015
 Vib (Bot)    2  0.474014D+00         -0.324208         -0.746518
 Vib (Bot)    3  0.449273D+00         -0.347490         -0.800125
 Vib (Bot)    4  0.440787D+00         -0.355771         -0.819193
 Vib (Bot)    5  0.316198D+00         -0.500041         -1.151386
 Vib (Bot)    6  0.312271D+00         -0.505468         -1.163884
 Vib (V=0)       0.552135D+01          0.742046          1.708623
 Vib (V=0)    1  0.273170D+01          0.436433          1.004925
 Vib (V=0)    2  0.118898D+01          0.075174          0.173093
 Vib (V=0)    3  0.117219D+01          0.069000          0.158878
 Vib (V=0)    4  0.116655D+01          0.066905          0.154054
 Vib (V=0)    5  0.109159D+01          0.038060          0.087637
 Vib (V=0)    6  0.108950D+01          0.037228          0.085721
 Electronic      0.100000D+01          0.000000          0.000000
 Translational   0.750399D+08          7.875292         18.133530
 Rotational      0.216176D+06          5.334808         12.283849
 -------------------------------------------------------------------
 Center     Atomic                   Forces (Hartrees/Bohr)
 Number     Number              X              Y              Z
 -------------------------------------------------------------------
      1       42           0.000058626    0.000044858    0.000035027
      2        6          -0.000083911   -0.000139258   -0.000007601
      3        6          -0.000073917   -0.000048904   -0.000134221
      4        8           0.000044814    0.000029889    0.000111756
      5        8           0.000054388    0.000113414   -0.000004961
 -------------------------------------------------------------------
 Cartesian Forces:  Max     0.000139258 RMS     0.000077578
 FormGI is forming the generalized inverse of G from B-inverse, IUseBI=4.

 GradGradGradGradGradGradGradGradGradGradGradGradGradGradGradGradGradGrad
 Berny optimization.
 Internal  Forces:  Max     0.000115913 RMS     0.000071449
 Search for a local minimum.
 Step number   1 out of a maximum of    2
 All quantities printed in internal units (Hartrees-Bohrs-Radians)
 Second derivative matrix not updated -- analytic derivatives used.
 The second derivative matrix:
                          R1        R2        R3        R4        A1
           R1           0.22923
           R2           0.00794   0.22923
           R3           0.07201  -0.00930   1.01592
           R4          -0.00930   0.07201   0.02262   1.01592
           A1          -0.00676  -0.00675  -0.00277  -0.00277   0.25384
           A2           0.00806   0.00063  -0.00385  -0.00029  -0.06248
           A3           0.00063   0.00806  -0.00029  -0.00386  -0.06251
           A4          -0.00005   0.00001  -0.00006   0.00001  -0.00019
           A5          -0.00001   0.00004  -0.00000   0.00006   0.00018
                          A2        A3        A4        A5
           A2           0.11973
           A3           0.01287   0.11976
           A4          -0.00002  -0.00001   0.07386
           A5           0.00001   0.00003  -0.00215   0.07383
 ITU=  0
     Eigenvalues ---    0.07170   0.07599   0.08594   0.10631   0.21338
     Eigenvalues ---    0.23021   0.30256   1.00178   1.04345
 Angle between quadratic step and forces=  46.22 degrees.
 Linear search not attempted -- first point.
 Iteration  1 RMS(Cart)=  0.00051594 RMS(Int)=  0.00000028
 Iteration  2 RMS(Cart)=  0.00000041 RMS(Int)=  0.00000000
 Variable       Old X    -DE/DX   Delta X   Delta X   Delta X     New X
                                 (Linear)    (Quad)   (Total)
    R1        3.60403   0.00003   0.00000   0.00013   0.00013   3.60416
    R2        3.60402   0.00003   0.00000   0.00013   0.00013   3.60416
    R3        2.21632  -0.00012   0.00000  -0.00012  -0.00012   2.21620
    R4        2.21632  -0.00012   0.00000  -0.00012  -0.00012   2.21620
    A1        1.54346  -0.00003   0.00000  -0.00005  -0.00005   1.54342
    A2        3.13786   0.00003   0.00000   0.00016   0.00016   3.13802
    A3        3.13787   0.00003   0.00000   0.00016   0.00016   3.13803
    A4        3.14281  -0.00009   0.00000  -0.00119  -0.00119   3.14162
    A5        3.14047   0.00009   0.00000   0.00114   0.00114   3.14160
         Item               Value     Threshold  Converged?
 Maximum Force            0.000116     0.000450     YES
 RMS     Force            0.000071     0.000300     YES
 Maximum Displacement     0.000848     0.001800     YES
 RMS     Displacement     0.000516     0.001200     YES
 Predicted change in Energy=-1.243108D-07
 Optimization completed.
    -- Stationary point found.
                           ----------------------------
                           !   Optimized Parameters   !
                           ! (Angstroms and Degrees)  !
 --------------------------                            --------------------------
 ! Name  Definition              Value          Derivative Info.                !
 --------------------------------------------------------------------------------
 ! R1    R(1,2)                  1.9072         -DE/DX =    0.0                 !
 ! R2    R(1,3)                  1.9072         -DE/DX =    0.0                 !
 ! R3    R(2,5)                  1.1728         -DE/DX =   -0.0001              !
 ! R4    R(3,4)                  1.1728         -DE/DX =   -0.0001              !
 ! A1    A(2,1,3)               88.434          -DE/DX =    0.0                 !
 ! A2    L(1,2,5,4,-1)         179.7862         -DE/DX =    0.0                 !
 ! A3    L(1,3,4,5,-1)         179.7866         -DE/DX =    0.0                 !
 ! A4    L(1,2,5,4,-2)         180.0695         -DE/DX =   -0.0001              !
 ! A5    L(1,3,4,5,-2)         179.9355         -DE/DX =    0.0001              !
 --------------------------------------------------------------------------------
 GradGradGradGradGradGradGradGradGradGradGradGradGradGradGradGradGradGrad


 ----------------------------------------------------------------------

 Electric dipole moment (input orientation):
 (Debye = 10**-18 statcoulomb cm , SI units = C m)
                  (au)            (Debye)         (10**-30 SI)
   Tot        0.223528D+01      0.568152D+01      0.189515D+02
   x          0.820713D-01      0.208604D+00      0.695830D+00
   y          0.182067D+01      0.462769D+01      0.154363D+02
   z          0.129418D+01      0.328948D+01      0.109725D+02

 Dipole polarizability, Alpha (input orientation).
 (esu units = cm**3 , SI units = C**2 m**2 J**-1)
 Alpha(0;0):
               (au)            (10**-24 esu)      (10**-40 SI)
   iso        0.616680D+02      0.913826D+01      0.101677D+02
   aniso      0.407782D+02      0.604271D+01      0.672342D+01
   xx         0.374816D+02      0.555420D+01      0.617988D+01
   yx         0.207046D+01      0.306810D+00      0.341372D+00
   yy         0.702431D+02      0.104090D+02      0.115815D+02
   zx        -0.126255D+01     -0.187090D+00     -0.208166D+00
   zy        -0.986362D+01     -0.146164D+01     -0.162629D+01
   zz         0.772794D+02      0.114516D+02      0.127417D+02

 ----------------------------------------------------------------------

 Dipole orientation:
    42         -0.21186735          0.79713224         -2.06531671
     6         -0.37870378         -1.71069827         -4.64833192
     6         -0.04457270          3.30491954         -4.64834006
     8          0.05576126          4.84133041         -6.24253356
     8         -0.48322297         -3.24682561         -6.24252914

 Electric dipole moment (dipole orientation):
 (Debye = 10**-18 statcoulomb cm , SI units = C m)
                  (au)            (Debye)         (10**-30 SI)
   Tot        0.223528D+01      0.568152D+01      0.189515D+02
   x          0.000000D+00      0.000000D+00      0.000000D+00
   y          0.000000D+00      0.000000D+00      0.000000D+00
   z          0.223528D+01      0.568152D+01      0.189515D+02

 Dipole polarizability, Alpha (dipole orientation).
 (esu units = cm**3 , SI units = C**2 m**2 J**-1)
 Alpha(0;0):
               (au)            (10**-24 esu)      (10**-40 SI)
   iso        0.616680D+02      0.913826D+01      0.101677D+02
   aniso      0.407782D+02      0.604271D+01      0.672342D+01
   xx         0.375475D+02      0.556397D+01      0.619075D+01
   yx         0.311507D+01      0.461606D+00      0.513606D+00
   yy         0.841319D+02      0.124671D+02      0.138715D+02
   zx         0.659111D-02      0.976702D-03      0.108673D-02
   zy         0.842876D-03      0.124901D-03      0.138971D-03
   zz         0.633247D+02      0.938375D+01      0.104408D+02

 ----------------------------------------------------------------------
 Unable to Open any file for archive entry.
 1\1\GINC-NODE2\Freq\RB3LYP\Gen\C2Mo1O2\CHEGHO\19-Sep-2022\0\\#N Geom=A
 llCheck Guess=TCheck SCRF=Check GenChk RB3LYP/ChkBas Freq\\Title Card 
 Required\\0,1\Mo,-0.1601369588,-0.6434887524,-0.9722421641\C,-0.273398
 9736,-2.5246435995,-0.6794571665\C,-0.1470054074,-0.9890342919,-2.8477
 993356\O,-0.1403294904,-1.2057513323,-4.0004099152\O,-0.3442391697,-3.
 682068024,-0.5037534185\\Version=ES64L-G16RevC.01\HF=-294.1201602\RMSD
 =8.436e-09\RMSF=7.758e-05\ZeroPoint=0.0157278\Thermal=0.0208125\ETot=-
 294.0993477\HTot=-294.0984035\GTot=-294.1347653\Dipole=0.0820713,1.820
 6738,1.2941807\DipoleDeriv=0.8055009,-0.0641974,0.0214328,-0.064281,-0
 .302037,0.0203128,0.0211615,0.0203504,-0.3201244,-0.3487549,0.165809,-
 0.0665838,0.1795003,2.4266683,-1.0463308,-0.01951,-0.2341155,-0.037728
 5,-0.3588812,0.0132833,-0.0114796,-0.0008122,-0.1680066,0.6756513,-0.0
 584518,-0.1365794,2.5670529,-0.0454973,-0.0046786,0.0097726,0.0043239,
 -0.0901663,-0.4002413,0.0408792,0.1278471,-1.9961683,-0.0523675,-0.110
 2163,0.0468579,-0.1187311,-1.8664583,0.750608,0.0159211,0.2224974,-0.2
 130317\Polar=37.4815933,2.0704552,70.2431125,-1.2625452,-9.8636172,77.
 2794433\Quadrupole=8.2134022,-3.785989,-4.4274133,-1.1010742,-0.381429
 8,-4.5123329\PG=C01 [X(C2Mo1O2)]\NImag=0\\0.01666709,0.01474620,0.2872
 7973,-0.00139147,0.04881585,0.25404343,-0.02114572,-0.00780386,0.00029
 048,0.05652462,-0.00827883,-0.16669689,-0.00529222,0.06225891,1.077883
 08,-0.00115261,-0.03083562,-0.05432117,-0.00939919,-0.13773749,0.12784
 148,-0.02079866,-0.00262437,-0.00135810,0.00147533,0.00017992,0.003067
 01,0.05292627,-0.00216427,-0.07773449,-0.06203599,0.00010317,0.0184579
 5,0.04877439,0.00215634,0.14553541,0.00007269,-0.03649089,-0.14362735,
 0.00297481,0.04620160,-0.01478038,-0.00606482,0.18912146,1.06378384,0.
 01280574,0.00076697,0.00117646,-0.00088109,0.00009912,-0.00074732,-0.0
 3272524,0.00006457,0.00495012,0.02027991,0.00070351,0.02369130,-0.0049
 2675,-0.00022173,-0.00802582,-0.01063101,0.00011393,-0.07921275,-0.168
 03423,-0.00080122,0.05890332,0.00101551,-0.00819339,-0.07333093,-0.001
 91824,-0.03045564,0.00745784,0.00511053,-0.16488607,-0.91184822,-0.005
 55985,0.18167416,0.98139809,0.01247155,-0.00508494,0.00128262,-0.03597
 315,-0.05425912,0.00823212,-0.00087770,-0.00015981,-0.00193280,0.00052
 068,0.00020551,0.00135205,0.02385861,-0.00500662,-0.06653965,0.0234391
 2,-0.05433650,-0.92161832,0.13042973,0.00017419,-0.00704612,-0.0307979
 3,-0.00012944,0.00464395,0.02186093,0.05929836,0.99056014,0.00145589,0
 .02670405,0.01723602,0.00805213,0.12728375,-0.06619777,-0.00075462,-0.
 01097378,0.00647211,0.00018059,0.00191783,-0.00367679,-0.00893398,-0.1
 4493184,0.04616644\\-0.00005863,-0.00004486,-0.00003503,0.00008391,0.0
 0013926,0.00000760,0.00007392,0.00004890,0.00013422,-0.00004481,-0.000
 02989,-0.00011176,-0.00005439,-0.00011341,0.00000496\\\@
 The archive entry for this job was punched.


 THE ONLY DIFFERENCE BETWEEN ECCENTRICS AND JOGGERS
 IS THAT JOGGERS WEAR SWEATBANDS WHEN THEY RUN IN THE RAIN.
 Job cpu time:       0 days  0 hours  1 minutes 34.8 seconds.
 Elapsed time:       0 days  0 hours  0 minutes 14.2 seconds.
 File lengths (MBytes):  RWF=     22 Int=      0 D2E=      0 Chk=      2 Scr=      2
 Normal termination of Gaussian 16 at Mon Sep 19 21:10:22 2022.
