       N       E                     dE             d eps       ncg     rms          rms(c)
DAV:   1     0.192748525094E+05    0.19275E+05   -0.78457E+05  5952   0.105E+03
DAV:   2     0.288967923779E+03   -0.18986E+05   -0.18239E+05  8064   0.277E+02
DAV:   3    -0.304223570560E+04   -0.33312E+04   -0.33130E+04  6912   0.123E+02
DAV:   4    -0.313279147560E+04   -0.90556E+02   -0.90172E+02  7296   0.236E+01
DAV:   5    -0.313467236072E+04   -0.18809E+01   -0.18778E+01  7488   0.314E+00    0.194E+02
DAV:   6    -0.152259033626E+04    0.16121E+04   -0.31267E+03  6720   0.440E+01    0.897E+01
DAV:   7    -0.166612096405E+04   -0.14353E+03   -0.30452E+02  7200   0.126E+01    0.582E+01
DAV:   8    -0.168656801475E+04   -0.20447E+02   -0.65482E+01  7104   0.550E+00    0.446E+01
DAV:   9    -0.183004127562E+04   -0.14347E+03   -0.66692E+01  7488   0.544E+00    0.377E+01
DAV:  10    -0.199291026231E+04   -0.16287E+03   -0.73013E+01  7488   0.526E+00    0.326E+01
DAV:  11    -0.219210416375E+04   -0.19919E+03   -0.78232E+01  7104   0.596E+00    0.272E+01
DAV:  12    -0.245420646275E+04   -0.26210E+03   -0.12620E+02  7200   0.798E+00    0.218E+01
DAV:  13    -0.274018153272E+04   -0.28598E+03   -0.21526E+02  7008   0.950E+00    0.163E+01
DAV:  14    -0.287011349468E+04   -0.12993E+03   -0.10438E+02  7008   0.603E+00    0.119E+01
DAV:  15    -0.291568159880E+04   -0.45568E+02   -0.24974E+01  7104   0.308E+00    0.951E+00
DAV:  16    -0.293476282699E+04   -0.19081E+02   -0.53679E+00  6816   0.166E+00    0.763E+00
DAV:  17    -0.294637263892E+04   -0.11610E+02   -0.28582E+00  6912   0.122E+00    0.625E+00
DAV:  18    -0.295313932180E+04   -0.67667E+01   -0.17211E+00  6816   0.943E-01    0.521E+00
DAV:  19    -0.295792394097E+04   -0.47846E+01   -0.13458E+00  6912   0.784E-01    0.401E+00
DAV:  20    -0.296235302676E+04   -0.44291E+01   -0.12243E+00  6720   0.684E-01    0.278E+00
DAV:  21    -0.296511860463E+04   -0.27656E+01   -0.62577E-01  6816   0.501E-01    0.162E+00
DAV:  22    -0.296573952175E+04   -0.62092E+00   -0.15148E-01  6816   0.309E-01    0.103E+00
DAV:  23    -0.296753381377E+04   -0.17943E+01   -0.62571E-02  6720   0.258E-01    0.637E-01
DAV:  24    -0.296928117963E+04   -0.17474E+01   -0.37391E-02  7008   0.182E-01    0.398E-01
DAV:  25    -0.297056969239E+04   -0.12885E+01   -0.25656E-02  6816   0.146E-01    0.230E-01
DAV:  26    -0.297112406378E+04   -0.55437E+00   -0.95065E-03  7104   0.931E-02    0.134E-01
DAV:  27    -0.297135421304E+04   -0.23015E+00   -0.43402E-03  7104   0.658E-02    0.807E-02
DAV:  28    -0.297141572707E+04   -0.61514E-01   -0.11216E-03  7008   0.359E-02    0.513E-02
DAV:  29    -0.297143277267E+04   -0.17046E-01   -0.36919E-04  6912   0.204E-02    0.344E-02
DAV:  30    -0.297144345507E+04   -0.10682E-01   -0.22657E-04  7104   0.145E-02    0.206E-02
DAV:  31    -0.297144758509E+04   -0.41300E-02   -0.74430E-05  6624   0.969E-03    0.135E-02
DAV:  32    -0.297144983470E+04   -0.22496E-02   -0.34734E-05  6240   0.682E-03    0.971E-03
DAV:  33    -0.297145255700E+04   -0.27223E-02   -0.31061E-05  6240   0.572E-03    0.685E-03
DAV:  34    -0.297145377479E+04   -0.12178E-02   -0.97219E-06  5856   0.359E-03    0.488E-03
DAV:  35    -0.297145491997E+04   -0.11452E-02   -0.10250E-05  5760   0.312E-03    0.330E-03
DAV:  36    -0.297145522839E+04   -0.30843E-03   -0.98136E-07  5184   0.198E-03    0.273E-03
DAV:  37    -0.297145535679E+04   -0.12840E-03    0.10282E-06  5184   0.124E-03    0.248E-03
DAV:  38    -0.297145543397E+04   -0.77186E-04    0.15886E-06  5184   0.101E-03    0.235E-03
DAV:  39    -0.297145545737E+04   -0.23397E-04    0.22190E-06  5088   0.639E-04    0.231E-03
DAV:  40    -0.297145547197E+04   -0.14600E-04    0.24841E-06  5088   0.407E-04    0.228E-03
DAV:  41    -0.297145547816E+04   -0.61896E-05    0.25986E-06  5088   0.279E-04
   1 F= -.30084970E+04 E0= -.30084970E+04  d E =-.300850E+04  mag=    -0.0000
       N       E                     dE             d eps       ncg     rms          rms(c)
DAV:   1    -0.297145535816E+04    0.11381E-03   -0.77422E-03  5952   0.210E-02    0.515E-02
DAV:   2    -0.297145535978E+04   -0.16232E-05   -0.59119E-05  6336   0.204E-03
   2 F= -.30084969E+04 E0= -.30084969E+04  d E =0.650210E-04  mag=    -0.0000
       N       E                     dE             d eps       ncg     rms          rms(c)
DAV:   1    -0.297145545709E+04   -0.98925E-04   -0.15398E-02  5568   0.295E-02    0.501E-02
DAV:   2    -0.297145546472E+04   -0.76370E-05   -0.98081E-05  6336   0.253E-03
   3 F= -.30084970E+04 E0= -.30084970E+04  d E =-.233436E-04  mag=    -0.0000
       N       E                     dE             d eps       ncg     rms          rms(c)
DAV:   1    -0.297145521313E+04    0.24396E-03   -0.15793E-02  5568   0.298E-02    0.841E-02
DAV:   2    -0.297145521088E+04    0.22539E-05   -0.17215E-04  6336   0.403E-03    0.299E-02
DAV:   3    -0.297145521625E+04   -0.53742E-05   -0.14413E-04  6528   0.413E-03    0.286E-02
DAV:   4    -0.297145520597E+04    0.10279E-04   -0.83525E-05  6528   0.313E-03    0.139E-02
DAV:   5    -0.297145520571E+04    0.25635E-06   -0.29939E-06  5376   0.834E-04
   4 F= -.30084967E+04 E0= -.30084967E+04  d E =0.284808E-03  mag=    -0.0000
       N       E                     dE             d eps       ncg     rms          rms(c)
DAV:   1    -0.297145527064E+04   -0.64665E-04   -0.16378E-02  5760   0.373E-02    0.145E-01
DAV:   2    -0.297145524554E+04    0.25100E-04   -0.23433E-04  6336   0.504E-03    0.352E-02
DAV:   3    -0.297145524049E+04    0.50445E-05   -0.37221E-05  6048   0.262E-03
   5 F= -.30084968E+04 E0= -.30084968E+04  d E =-.122009E-03  mag=    -0.0000
       N       E                     dE             d eps       ncg     rms          rms(c)
DAV:   1    -0.297145539635E+04   -0.15082E-03   -0.16177E-02  5568   0.378E-02    0.931E-02
DAV:   2    -0.297145538914E+04    0.72154E-05   -0.19399E-04  6336   0.480E-03    0.270E-02
DAV:   3    -0.297145538936E+04   -0.22404E-06   -0.68253E-05  6528   0.330E-03
   6 F= -.30084970E+04 E0= -.30084970E+04  d E =-.190390E-03  mag=    -0.0000
       N       E                     dE             d eps       ncg     rms          rms(c)
DAV:   1    -0.297145545135E+04   -0.62213E-04   -0.15747E-02  5568   0.370E-02    0.514E-02
DAV:   2    -0.297145545937E+04   -0.80192E-05   -0.13105E-04  5952   0.380E-03    0.233E-02
DAV:   3    -0.297145546218E+04   -0.28081E-05   -0.85109E-05  6528   0.314E-03
   7 F= -.30084969E+04 E0= -.30084969E+04  d E =0.412841E-04  mag=    -0.0000
       N       E                     dE             d eps       ncg     rms          rms(c)
DAV:   1    -0.297145547530E+04   -0.15935E-04   -0.16017E-02  6144   0.458E-02    0.910E-02
DAV:   2    -0.297145547668E+04   -0.13789E-05   -0.15685E-04  6336   0.468E-03    0.261E-02
DAV:   3    -0.297145547745E+04   -0.76706E-06   -0.52787E-05  6336   0.276E-03
   8 F= -.30084970E+04 E0= -.30084970E+04  d E =-.986656E-05  mag=    -0.0000
       N       E                     dE             d eps       ncg     rms          rms(c)
DAV:   1    -0.297145543269E+04    0.43997E-04   -0.15922E-02  6144   0.446E-02    0.597E-02
DAV:   2    -0.297145543805E+04   -0.53674E-05   -0.14210E-04  6336   0.467E-03    0.244E-02
DAV:   3    -0.297145544156E+04   -0.35077E-05   -0.10328E-04  6528   0.365E-03    0.237E-02
DAV:   4    -0.297145543446E+04    0.71022E-05   -0.57348E-05  6144   0.258E-03
   9 F= -.30084970E+04 E0= -.30084970E+04  d E =-.364355E-04  mag=    -0.0000
       N       E                     dE             d eps       ncg     rms          rms(c)
DAV:   1    -0.297145530601E+04    0.13555E-03   -0.16060E-02  6144   0.445E-02    0.727E-02
DAV:   2    -0.297145530712E+04   -0.11079E-05   -0.10934E-04  6336   0.439E-03    0.252E-02
DAV:   3    -0.297145530867E+04   -0.15505E-05   -0.42462E-05  6528   0.272E-03
  10 F= -.30084968E+04 E0= -.30084968E+04  d E =0.187207E-03  mag=    -0.0000
       N       E                     dE             d eps       ncg     rms          rms(c)
DAV:   1    -0.297145553698E+04   -0.22986E-03   -0.16132E-02  6144   0.473E-02    0.962E-02
DAV:   2    -0.297145553813E+04   -0.11489E-05   -0.19942E-04  6336   0.531E-03    0.260E-02
DAV:   3    -0.297145553994E+04   -0.18170E-05   -0.97463E-05  6528   0.356E-03
  11 F= -.30084970E+04 E0= -.30084970E+04  d E =-.222894E-03  mag=    -0.0000
       N       E                     dE             d eps       ncg     rms          rms(c)
DAV:   1    -0.297145533934E+04    0.19878E-03   -0.16197E-02  5568   0.442E-02    0.105E-01
DAV:   2    -0.297145533703E+04    0.23100E-05   -0.24146E-04  6144   0.499E-03    0.274E-02
DAV:   3    -0.297145533683E+04    0.19855E-06   -0.69279E-05  5952   0.310E-03
  12 F= -.30084969E+04 E0= -.30084969E+04  d E =0.173245E-03  mag=    -0.0000
       N       E                     dE             d eps       ncg     rms          rms(c)
DAV:   1    -0.297145536993E+04   -0.32896E-04   -0.15927E-02  5568   0.433E-02    0.520E-02
DAV:   2    -0.297145537844E+04   -0.85098E-05   -0.13085E-04  6144   0.391E-03    0.245E-02
DAV:   3    -0.297145538064E+04   -0.22065E-05   -0.74928E-05  6336   0.299E-03
  13 F= -.30084969E+04 E0= -.30084969E+04  d E =-.236480E-04  mag=    -0.0000
       N       E                     dE             d eps       ncg     rms          rms(c)
DAV:   1    -0.297145542813E+04   -0.49693E-04   -0.81352E-02  5760   0.966E-02    0.126E-01
DAV:   2    -0.297145541925E+04    0.88828E-05   -0.49474E-04  5952   0.959E-03    0.527E-02
DAV:   3    -0.297145540650E+04    0.12752E-04   -0.70758E-05  6336   0.372E-03    0.304E-02
DAV:   4    -0.297145540529E+04    0.12107E-05   -0.88101E-05  6144   0.384E-03
  14 F= -.30084967E+04 E0= -.30084967E+04  d E =0.164975E-03  mag=    -0.0000
       N       E                     dE             d eps       ncg     rms          rms(c)
DAV:   1    -0.297145530300E+04    0.10350E-03   -0.14572E-01  5760   0.122E-01    0.116E-01
DAV:   2    -0.297145529906E+04    0.39384E-05   -0.89230E-04  5952   0.124E-02    0.758E-02
DAV:   3    -0.297145528335E+04    0.15713E-04   -0.53684E-04  6336   0.836E-03    0.554E-02
DAV:   4    -0.297145525665E+04    0.26701E-04   -0.32618E-04  5952   0.615E-03    0.314E-02
DAV:   5    -0.297145524671E+04    0.99377E-05   -0.82301E-05  6144   0.338E-03
  15 F= -.30084967E+04 E0= -.30084967E+04  d E =0.253691E-04  mag=    -0.0000
       N       E                     dE             d eps       ncg     rms          rms(c)
DAV:   1    -0.297145541978E+04   -0.16313E-03   -0.14508E-01  5760   0.121E-01    0.123E-01
DAV:   2    -0.297145540796E+04    0.11819E-04   -0.65497E-04  5952   0.109E-02    0.694E-02
DAV:   3    -0.297145540555E+04    0.24039E-05   -0.37106E-04  5952   0.684E-03    0.574E-02
DAV:   4    -0.297145538291E+04    0.22643E-04   -0.33839E-04  6144   0.620E-03    0.287E-02
DAV:   5    -0.297145537474E+04    0.81690E-05   -0.86939E-05  5952   0.339E-03
  16 F= -.30084967E+04 E0= -.30084967E+04  d E =0.197680E-06  mag=    -0.0000
       N       E                     dE             d eps       ncg     rms          rms(c)
DAV:   1    -0.297145503432E+04    0.34859E-03   -0.14730E-01  5760   0.125E-01    0.120E-01
DAV:   2    -0.297145501847E+04    0.15851E-04   -0.83493E-04  5952   0.123E-02    0.641E-02
DAV:   3    -0.297145500668E+04    0.11784E-04   -0.33296E-04  6336   0.709E-03    0.568E-02
DAV:   4    -0.297145498274E+04    0.23944E-04   -0.20391E-04  6240   0.524E-03    0.242E-02
DAV:   5    -0.297145497769E+04    0.50455E-05   -0.47381E-05  6144   0.289E-03
  17 F= -.30084968E+04 E0= -.30084968E+04  d E =-.681330E-04  mag=    -0.0000
       N       E                     dE             d eps       ncg     rms          rms(c)
DAV:   1    -0.297145542923E+04   -0.44649E-03   -0.14721E-01  5760   0.123E-01    0.131E-01
DAV:   2    -0.297145541282E+04    0.16414E-04   -0.90343E-04  5952   0.124E-02    0.788E-02
DAV:   3    -0.297145540155E+04    0.11264E-04   -0.60478E-04  6336   0.890E-03    0.663E-02
DAV:   4    -0.297145536291E+04    0.38647E-04   -0.37073E-04  6336   0.658E-03    0.307E-02
DAV:   5    -0.297145535257E+04    0.10336E-04   -0.75706E-05  6144   0.345E-03    0.130E-02
DAV:   6    -0.297145535143E+04    0.11451E-05   -0.71370E-06  5760   0.136E-03
  18 F= -.30084967E+04 E0= -.30084967E+04  d E =0.629916E-04  mag=    -0.0000
       N       E                     dE             d eps       ncg     rms          rms(c)
DAV:   1    -0.297145540025E+04   -0.47682E-04   -0.14454E-01  5760   0.125E-01    0.120E-01
DAV:   2    -0.297145539514E+04    0.51128E-05   -0.82207E-04  5952   0.118E-02    0.760E-02
DAV:   3    -0.297145538867E+04    0.64697E-05   -0.62139E-04  6240   0.884E-03    0.606E-02
DAV:   4    -0.297145535219E+04    0.36477E-04   -0.37723E-04  5952   0.661E-03    0.289E-02
DAV:   5    -0.297145534489E+04    0.73044E-05   -0.62036E-05  5952   0.319E-03
  19 F= -.30084966E+04 E0= -.30084966E+04  d E =0.674122E-04  mag=    -0.0000
       N       E                     dE             d eps       ncg     rms          rms(c)
DAV:   1    -0.297145654719E+04   -0.11950E-02   -0.14213E-01  5760   0.128E-01    0.113E-01
DAV:   2    -0.297145653420E+04    0.12991E-04   -0.69724E-04  5952   0.117E-02    0.645E-02
DAV:   3    -0.297145651564E+04    0.18568E-04   -0.14558E-04  6336   0.493E-03    0.378E-02
DAV:   4    -0.297145651300E+04    0.26347E-05   -0.19081E-04  6144   0.512E-03    0.357E-02
DAV:   5    -0.297145649900E+04    0.14000E-04   -0.99390E-05  6336   0.359E-03    0.111E-02
DAV:   6    -0.297145649796E+04    0.10438E-05   -0.70313E-06  5952   0.130E-03
  20 F= -.30084965E+04 E0= -.30084965E+04  d E =0.115859E-03  mag=    -0.0000
       N       E                     dE             d eps       ncg     rms          rms(c)
DAV:   1    -0.297145542535E+04    0.10736E-02   -0.14280E-01  5568   0.124E-01    0.116E-01
DAV:   2    -0.297145540621E+04    0.19143E-04   -0.69160E-04  5952   0.112E-02    0.694E-02
DAV:   3    -0.297145538868E+04    0.17530E-04   -0.26524E-04  6240   0.613E-03    0.459E-02
DAV:   4    -0.297145537662E+04    0.12058E-04   -0.26988E-04  6336   0.576E-03    0.336E-02
DAV:   5    -0.297145536381E+04    0.12817E-04   -0.88029E-05  6144   0.356E-03    0.124E-02
DAV:   6    -0.297145536290E+04    0.90443E-06   -0.50034E-06  5568   0.125E-03
  21 F= -.30084966E+04 E0= -.30084966E+04  d E =-.104603E-03  mag=    -0.0000
       N       E                     dE             d eps       ncg     rms          rms(c)
DAV:   1    -0.297145552276E+04   -0.15896E-03   -0.13741E-01  5568   0.123E-01    0.114E-01
DAV:   2    -0.297145550693E+04    0.15831E-04   -0.57367E-04  5952   0.104E-02    0.646E-02
DAV:   3    -0.297145548691E+04    0.20019E-04   -0.59998E-05  6144   0.345E-03    0.338E-02
DAV:   4    -0.297145548385E+04    0.30666E-05   -0.83291E-05  6336   0.391E-03
  22 F= -.30084967E+04 E0= -.30084967E+04  d E =-.128341E-03  mag=    -0.0000
       N       E                     dE             d eps       ncg     rms          rms(c)
DAV:   1    -0.297145402080E+04    0.14661E-02   -0.14315E-01  5760   0.127E-01    0.113E-01
DAV:   2    -0.297145398974E+04    0.31062E-04   -0.98524E-04  5952   0.120E-02    0.607E-02
DAV:   3    -0.297145396892E+04    0.20816E-04   -0.17712E-04  6144   0.484E-03    0.401E-02
DAV:   4    -0.297145396302E+04    0.58975E-05   -0.21462E-04  6528   0.509E-03    0.348E-02
DAV:   5    -0.297145394768E+04    0.15342E-04   -0.10084E-04  6336   0.347E-03    0.102E-02
DAV:   6    -0.297145394709E+04    0.58592E-06   -0.62149E-06  5952   0.129E-03
  23 F= -.30084964E+04 E0= -.30084964E+04  d E =0.304624E-03  mag=    -0.0000
       N       E                     dE             d eps       ncg     rms          rms(c)
DAV:   1    -0.297145509511E+04   -0.11474E-02   -0.14669E-01  5568   0.119E-01    0.115E-01
DAV:   2    -0.297145506923E+04    0.25874E-04   -0.92244E-04  5952   0.115E-02    0.762E-02
DAV:   3    -0.297145504675E+04    0.22483E-04   -0.51086E-04  6336   0.772E-03    0.497E-02
DAV:   4    -0.297145501921E+04    0.27543E-04   -0.35844E-04  6144   0.631E-03    0.351E-02
DAV:   5    -0.297145500706E+04    0.12146E-04   -0.81651E-05  6144   0.319E-03    0.102E-02
DAV:   6    -0.297145500626E+04    0.79861E-06   -0.74262E-06  5568   0.125E-03
  24 F= -.30084967E+04 E0= -.30084967E+04  d E =-.277187E-03  mag=    -0.0000
       N       E                     dE             d eps       ncg     rms          rms(c)
DAV:   1    -0.297145519848E+04   -0.19142E-03   -0.13505E-01  5568   0.120E-01    0.114E-01
DAV:   2    -0.297145518094E+04    0.17542E-04   -0.83764E-04  5952   0.115E-02    0.803E-02
DAV:   3    -0.297145516417E+04    0.16765E-04   -0.34938E-04  6336   0.691E-03    0.458E-02
DAV:   4    -0.297145515152E+04    0.12654E-04   -0.29472E-04  6144   0.604E-03    0.375E-02
DAV:   5    -0.297145513809E+04    0.13428E-04   -0.11035E-04  6336   0.368E-03    0.134E-02
DAV:   6    -0.297145513675E+04    0.13433E-05   -0.11133E-05  5952   0.147E-03
  25 F= -.30084967E+04 E0= -.30084967E+04  d E =0.586768E-04  mag=    -0.0000
       N       E                     dE             d eps       ncg     rms          rms(c)
DAV:   1    -0.297145568883E+04   -0.55074E-03   -0.97648E-02  5568   0.104E-01    0.920E-02
DAV:   2    -0.297145570396E+04   -0.15127E-04   -0.71521E-04  5952   0.130E-02    0.597E-02
DAV:   3    -0.297145569278E+04    0.11181E-04   -0.80245E-05  6144   0.347E-03    0.342E-02
DAV:   4    -0.297145569815E+04   -0.53673E-05   -0.17275E-04  5952   0.472E-03    0.353E-02
DAV:   5    -0.297145568281E+04    0.15333E-04   -0.10361E-04  6336   0.350E-03    0.872E-03
DAV:   6    -0.297145568226E+04    0.55571E-06   -0.27379E-06  5376   0.101E-03
  26 F= -.30084969E+04 E0= -.30084969E+04  d E =-.259964E-03  mag=    -0.0000
       N       E                     dE             d eps       ncg     rms          rms(c)
DAV:   1    -0.297145532716E+04    0.35565E-03   -0.50750E-02  5760   0.703E-02    0.580E-02
DAV:   2    -0.297145537161E+04   -0.44449E-04   -0.64668E-04  6144   0.138E-02    0.735E-02
DAV:   3    -0.297145536184E+04    0.97680E-05   -0.25679E-05  5856   0.207E-03
  27 F= -.30084969E+04 E0= -.30084969E+04  d E =0.191719E-04  mag=    -0.0000
       N       E                     dE             d eps       ncg     rms          rms(c)
DAV:   1    -0.297145541179E+04   -0.40184E-04   -0.51456E-02  5952   0.724E-02    0.753E-02
DAV:   2    -0.297145549391E+04   -0.82120E-04   -0.14636E-03  6144   0.177E-02    0.988E-02
DAV:   3    -0.297145542988E+04    0.64033E-04   -0.29835E-04  6336   0.605E-03    0.501E-02
DAV:   4    -0.297145544273E+04   -0.12848E-04   -0.60350E-05  6528   0.272E-03    0.433E-02
DAV:   5    -0.297145543166E+04    0.11070E-04   -0.88533E-05  6528   0.333E-03    0.139E-02
DAV:   6    -0.297145542952E+04    0.21377E-05   -0.12443E-05  5952   0.144E-03
  28 F= -.30084967E+04 E0= -.30084967E+04  d E =0.146673E-03  mag=    -0.0000
       N       E                     dE             d eps       ncg     rms          rms(c)
DAV:   1    -0.297145535221E+04    0.79444E-04   -0.51986E-02  5952   0.748E-02    0.856E-02
DAV:   2    -0.297145539888E+04   -0.46672E-04   -0.81902E-04  5952   0.163E-02    0.718E-02
DAV:   3    -0.297145538895E+04    0.99386E-05   -0.11345E-04  5952   0.414E-03    0.390E-02
DAV:   4    -0.297145540295E+04   -0.14007E-04   -0.19546E-04  6336   0.479E-03    0.464E-02
DAV:   5    -0.297145538303E+04    0.19925E-04   -0.13364E-04  6144   0.378E-03    0.119E-02
DAV:   6    -0.297145538162E+04    0.14087E-05   -0.58079E-06  6144   0.122E-03
  29 F= -.30084970E+04 E0= -.30084970E+04  d E =-.213694E-03  mag=    -0.0000
       N       E                     dE             d eps       ncg     rms          rms(c)
DAV:   1    -0.297145563102E+04   -0.24799E-03   -0.51310E-02  5568   0.665E-02    0.653E-02
DAV:   2    -0.297145566192E+04   -0.30907E-04   -0.69474E-04  5952   0.138E-02    0.761E-02
DAV:   3    -0.297145564370E+04    0.18223E-04   -0.80070E-05  6336   0.320E-03    0.477E-02
DAV:   4    -0.297145566147E+04   -0.17770E-04   -0.10814E-04  6336   0.353E-03    0.473E-02
DAV:   5    -0.297145563965E+04    0.21822E-04   -0.11053E-04  6336   0.359E-03    0.125E-02
DAV:   6    -0.297145563828E+04    0.13678E-05   -0.44702E-06  5760   0.112E-03
  30 F= -.30084969E+04 E0= -.30084969E+04  d E =0.926790E-04  mag=    -0.0000
       N       E                     dE             d eps       ncg     rms          rms(c)
DAV:   1    -0.297145537400E+04    0.26564E-03   -0.53903E-02  5568   0.697E-02    0.104E-01
DAV:   2    -0.297145542211E+04   -0.48104E-04   -0.11404E-03  6144   0.180E-02    0.116E-01
DAV:   3    -0.297145538884E+04    0.33264E-04   -0.18124E-04  6336   0.507E-03    0.710E-02
DAV:   4    -0.297145544588E+04   -0.57039E-04   -0.32390E-04  6528   0.616E-03    0.760E-02
DAV:   5    -0.297145538970E+04    0.56179E-04   -0.29834E-04  6624   0.590E-03    0.191E-02
DAV:   6    -0.297145538760E+04    0.21065E-05   -0.10317E-05  6144   0.161E-03
  31 F= -.30084968E+04 E0= -.30084968E+04  d E =0.453911E-04  mag=    -0.0000
       N       E                     dE             d eps       ncg     rms          rms(c)
DAV:   1    -0.297145532349E+04    0.66217E-04   -0.51085E-02  5568   0.729E-02    0.783E-02
DAV:   2    -0.297145539107E+04   -0.67586E-04   -0.99681E-04  6144   0.161E-02    0.890E-02
DAV:   3    -0.297145537000E+04    0.21069E-04   -0.10981E-04  6144   0.402E-03    0.531E-02
DAV:   4    -0.297145539666E+04   -0.26656E-04   -0.15577E-04  6336   0.430E-03    0.580E-02
DAV:   5    -0.297145536751E+04    0.29150E-04   -0.16082E-04  5952   0.438E-03    0.117E-02
DAV:   6    -0.297145536632E+04    0.11916E-05   -0.60279E-06  6144   0.116E-03
  32 F= -.30084969E+04 E0= -.30084969E+04  d E =-.637477E-04  mag=    -0.0000
       N       E                     dE             d eps       ncg     rms          rms(c)
DAV:   1    -0.297145536456E+04    0.29547E-05   -0.50342E-02  5568   0.671E-02    0.563E-02
DAV:   2    -0.297145541244E+04   -0.47885E-04   -0.67600E-04  5952   0.131E-02    0.769E-02
DAV:   3    -0.297145540408E+04    0.83644E-05   -0.15203E-05  5952   0.171E-03
  33 F= -.30084968E+04 E0= -.30084968E+04  d E =0.450890E-04  mag=    -0.0000
       N       E                     dE             d eps       ncg     rms          rms(c)
DAV:   1    -0.297145539785E+04    0.14585E-04   -0.51714E-02  5568   0.694E-02    0.903E-02
DAV:   2    -0.297145548646E+04   -0.88605E-04   -0.13721E-03  6144   0.171E-02    0.105E-01
DAV:   3    -0.297145544351E+04    0.42945E-04   -0.21631E-04  6144   0.534E-03    0.637E-02
DAV:   4    -0.297145547135E+04   -0.27838E-04   -0.16618E-04  5952   0.435E-03    0.558E-02
DAV:   5    -0.297145544093E+04    0.30420E-04   -0.17558E-04  6336   0.453E-03    0.125E-02
DAV:   6    -0.297145543914E+04    0.17887E-05   -0.54519E-06  5952   0.125E-03
  34 F= -.30084967E+04 E0= -.30084967E+04  d E =0.149231E-03  mag=    -0.0000
       N       E                     dE             d eps       ncg     rms          rms(c)
DAV:   1    -0.297145552016E+04   -0.79231E-04   -0.52836E-02  5376   0.719E-02    0.105E-01
DAV:   2    -0.297145558840E+04   -0.68233E-04   -0.96108E-04  6144   0.159E-02    0.723E-02
DAV:   3    -0.297145558487E+04    0.35286E-05   -0.12510E-04  6336   0.401E-03    0.413E-02
DAV:   4    -0.297145560473E+04   -0.19857E-04   -0.28893E-04  6336   0.564E-03    0.501E-02
DAV:   5    -0.297145557940E+04    0.25325E-04   -0.16394E-04  6144   0.413E-03    0.962E-03
DAV:   6    -0.297145557895E+04    0.44773E-06   -0.39585E-06  5760   0.109E-03
  35 F= -.30084969E+04 E0= -.30084969E+04  d E =-.192495E-03  mag=    -0.0000
       N       E                     dE             d eps       ncg     rms          rms(c)
DAV:   1    -0.297145558852E+04   -0.91232E-05   -0.52628E-02  5184   0.688E-02    0.592E-02
DAV:   2    -0.297145562103E+04   -0.32508E-04   -0.68993E-04  6144   0.140E-02    0.764E-02
DAV:   3    -0.297145560676E+04    0.14271E-04   -0.36534E-05  5952   0.236E-03    0.556E-02
DAV:   4    -0.297145561102E+04   -0.42571E-05   -0.37250E-05  5952   0.233E-03
  36 F= -.30084969E+04 E0= -.30084969E+04  d E =-.276618E-04  mag=    -0.0000
       N       E                     dE             d eps       ncg     rms          rms(c)
DAV:   1    -0.297145549008E+04    0.11668E-03   -0.51625E-02  5184   0.644E-02    0.464E-02
DAV:   2    -0.297145552630E+04   -0.36217E-04   -0.61814E-04  5952   0.122E-02    0.486E-02
DAV:   3    -0.297145551422E+04    0.12081E-04   -0.53264E-05  5952   0.304E-03    0.242E-02
DAV:   4    -0.297145551595E+04   -0.17330E-05   -0.23001E-05  6336   0.196E-03
  37 F= -.30084969E+04 E0= -.30084969E+04  d E =0.257707E-04  mag=    -0.0000
       N       E                     dE             d eps       ncg     rms          rms(c)
DAV:   1    -0.297145502049E+04    0.49373E-03   -0.52057E-02  5376   0.673E-02    0.918E-02
DAV:   2    -0.297145509886E+04   -0.78377E-04   -0.12568E-03  6144   0.158E-02    0.832E-02
DAV:   3    -0.297145507766E+04    0.21200E-04   -0.21364E-04  6144   0.545E-03    0.421E-02
DAV:   4    -0.297145509478E+04   -0.17111E-04   -0.20733E-04  6336   0.496E-03    0.515E-02
DAV:   5    -0.297145507466E+04    0.20111E-04   -0.12298E-04  6336   0.388E-03    0.167E-02
DAV:   6    -0.297145507305E+04    0.16117E-05   -0.96403E-06  6336   0.146E-03
  38 F= -.30084969E+04 E0= -.30084969E+04  d E =0.863514E-05  mag=    -0.0000
       N       E                     dE             d eps       ncg     rms          rms(c)
DAV:   1    -0.297145554838E+04   -0.47372E-03   -0.52708E-02  5376   0.603E-02    0.652E-02
DAV:   2    -0.297145560012E+04   -0.51738E-04   -0.10058E-03  6144   0.134E-02    0.855E-02
DAV:   3    -0.297145557539E+04    0.24726E-04   -0.80002E-05  6336   0.341E-03    0.562E-02
DAV:   4    -0.297145558815E+04   -0.12760E-04   -0.59201E-05  5760   0.283E-03    0.476E-02
DAV:   5    -0.297145556898E+04    0.19177E-04   -0.10552E-04  6336   0.362E-03    0.150E-02
DAV:   6    -0.297145556679E+04    0.21902E-05   -0.78912E-06  5568   0.131E-03
  39 F= -.30084970E+04 E0= -.30084970E+04  d E =-.808260E-04  mag=    -0.0000
       N       E                     dE             d eps       ncg     rms          rms(c)
DAV:   1    -0.297145529325E+04    0.27573E-03   -0.50559E-02  5568   0.525E-02    0.780E-02
DAV:   2    -0.297145530827E+04   -0.15017E-04   -0.54831E-04  6144   0.908E-03    0.444E-02
DAV:   3    -0.297145530962E+04   -0.13546E-05   -0.12180E-04  6144   0.405E-03    0.269E-02
DAV:   4    -0.297145530755E+04    0.20714E-05   -0.12436E-04  6336   0.387E-03    0.231E-02
DAV:   5    -0.297145530350E+04    0.40436E-05   -0.35871E-05  6336   0.211E-03
  40 F= -.30084966E+04 E0= -.30084966E+04  d E =0.333221E-03  mag=    -0.0000
       N       E                     dE             d eps       ncg     rms          rms(c)
DAV:   1    -0.297145514421E+04    0.16334E-03   -0.49746E-02  5952   0.698E-02    0.104E-01
DAV:   2    -0.297145516836E+04   -0.24150E-04   -0.99357E-04  6336   0.162E-02    0.870E-02
DAV:   3    -0.297145515072E+04    0.17639E-04   -0.16410E-04  6336   0.541E-03    0.451E-02
DAV:   4    -0.297145516587E+04   -0.15153E-04   -0.16554E-04  6144   0.471E-03    0.426E-02
DAV:   5    -0.297145515078E+04    0.15087E-04   -0.12487E-04  6528   0.393E-03    0.142E-02
DAV:   6    -0.297145514887E+04    0.19121E-05   -0.10958E-05  5760   0.153E-03
  41 F= -.30084969E+04 E0= -.30084969E+04  d E =-.278704E-03  mag=    -0.0000
       N       E                     dE             d eps       ncg     rms          rms(c)
DAV:   1    -0.297145515674E+04   -0.59571E-05   -0.51596E-02  5952   0.779E-02    0.605E-02
DAV:   2    -0.297145519522E+04   -0.38485E-04   -0.72483E-04  6528   0.157E-02    0.833E-02
DAV:   3    -0.297145518345E+04    0.11774E-04   -0.21913E-05  5952   0.205E-03    0.681E-02
DAV:   4    -0.297145517705E+04    0.64030E-05   -0.27486E-05  5952   0.216E-03
  42 F= -.30084968E+04 E0= -.30084968E+04  d E =0.662523E-04  mag=    -0.0000
       N       E                     dE             d eps       ncg     rms          rms(c)
DAV:   1    -0.297145535778E+04   -0.17433E-03   -0.50917E-02  5952   0.718E-02    0.450E-02
DAV:   2    -0.297145539356E+04   -0.35782E-04   -0.63171E-04  6528   0.138E-02    0.598E-02
DAV:   3    -0.297145537676E+04    0.16799E-04   -0.59506E-05  5952   0.300E-03    0.351E-02
DAV:   4    -0.297145538089E+04   -0.41287E-05   -0.21887E-05  5952   0.185E-03
  43 F= -.30084968E+04 E0= -.30084968E+04  d E =0.241248E-04  mag=    -0.0000
       N       E                     dE             d eps       ncg     rms          rms(c)
DAV:   1    -0.297145513117E+04    0.24559E-03   -0.50313E-02  5952   0.711E-02    0.130E-01
DAV:   2    -0.297145516677E+04   -0.35599E-04   -0.86291E-04  6336   0.147E-02    0.601E-02
DAV:   3    -0.297145516080E+04    0.59756E-05   -0.12781E-04  6336   0.448E-03    0.331E-02
DAV:   4    -0.297145516717E+04   -0.63774E-05   -0.17315E-04  6528   0.478E-03    0.347E-02
DAV:   5    -0.297145515459E+04    0.12588E-04   -0.87097E-05  6336   0.326E-03    0.104E-02
DAV:   6    -0.297145515376E+04    0.82463E-06   -0.73859E-06  5952   0.134E-03
  44 F= -.30084968E+04 E0= -.30084968E+04  d E =0.453783E-04  mag=    -0.0000
       N       E                     dE             d eps       ncg     rms          rms(c)
DAV:   1    -0.297145493056E+04    0.22403E-03   -0.52094E-02  5376   0.592E-02    0.105E-01
DAV:   2    -0.297145496711E+04   -0.36557E-04   -0.61809E-04  5952   0.108E-02    0.570E-02
DAV:   3    -0.297145496891E+04   -0.17933E-05   -0.16661E-04  6432   0.462E-03    0.300E-02
DAV:   4    -0.297145497278E+04   -0.38710E-05   -0.24406E-04  6720   0.526E-03    0.372E-02
DAV:   5    -0.297145495967E+04    0.13106E-04   -0.79620E-05  6336   0.310E-03    0.770E-03
DAV:   6    -0.297145495917E+04    0.50192E-06   -0.22064E-06  5568   0.943E-04
  45 F= -.30084969E+04 E0= -.30084969E+04  d E =-.883476E-04  mag=    -0.0000
       N       E                     dE             d eps       ncg     rms          rms(c)
DAV:   1    -0.297145558261E+04   -0.62294E-03   -0.53745E-02  5376   0.603E-02    0.774E-02
DAV:   2    -0.297145562176E+04   -0.39157E-04   -0.83942E-04  5952   0.125E-02    0.807E-02
DAV:   3    -0.297145559964E+04    0.22129E-04   -0.13472E-04  6336   0.422E-03    0.443E-02
DAV:   4    -0.297145562006E+04   -0.20428E-04   -0.17016E-04  6144   0.439E-03    0.517E-02
DAV:   5    -0.297145559546E+04    0.24606E-04   -0.13145E-04  6336   0.392E-03    0.163E-02
DAV:   6    -0.297145559279E+04    0.26638E-05   -0.91988E-06  5952   0.145E-03
  46 F= -.30084969E+04 E0= -.30084969E+04  d E =-.365793E-04  mag=    -0.0000
       N       E                     dE             d eps       ncg     rms          rms(c)
DAV:   1    -0.297145561019E+04   -0.14732E-04   -0.51791E-02  5472   0.616E-02    0.601E-02
DAV:   2    -0.297145564038E+04   -0.30194E-04   -0.66640E-04  5952   0.123E-02    0.564E-02
DAV:   3    -0.297145562962E+04    0.10768E-04   -0.76234E-05  5952   0.359E-03    0.274E-02
DAV:   4    -0.297145563368E+04   -0.40681E-05   -0.42060E-05  6144   0.265E-03
  47 F= -.30084970E+04 E0= -.30084970E+04  d E =-.151358E-03  mag=    -0.0000
       N       E                     dE             d eps       ncg     rms          rms(c)
DAV:   1    -0.297145510538E+04    0.52424E-03   -0.51425E-02  5376   0.604E-02    0.602E-02
DAV:   2    -0.297145514973E+04   -0.44350E-04   -0.58896E-04  5952   0.109E-02    0.446E-02
DAV:   3    -0.297145514601E+04    0.37248E-05   -0.97962E-05  6336   0.349E-03
  48 F= -.30084969E+04 E0= -.30084969E+04  d E =0.128289E-03  mag=    -0.0000
       N       E                     dE             d eps       ncg     rms          rms(c)
DAV:   1    -0.297145561015E+04   -0.46042E-03   -0.54833E-02  5376   0.636E-02    0.104E-01
DAV:   2    -0.297145569247E+04   -0.82318E-04   -0.21262E-03  5952   0.197E-02    0.135E-01
DAV:   3    -0.297145559809E+04    0.94386E-04   -0.40069E-04  6144   0.722E-03    0.675E-02
DAV:   4    -0.297145563096E+04   -0.32875E-04   -0.19520E-04  6144   0.478E-03    0.712E-02
DAV:   5    -0.297145559687E+04    0.34090E-04   -0.23649E-04  6336   0.502E-03    0.303E-02
DAV:   6    -0.297145558836E+04    0.85079E-05   -0.31957E-05  6528   0.228E-03
  49 F= -.30084969E+04 E0= -.30084969E+04  d E =0.649288E-04  mag=    -0.0000
       N       E                     dE             d eps       ncg     rms          rms(c)
DAV:   1    -0.297145545040E+04    0.14647E-03   -0.52659E-02  5472   0.645E-02    0.881E-02
DAV:   2    -0.297145548407E+04   -0.33664E-04   -0.62594E-04  5760   0.118E-02    0.438E-02
DAV:   3    -0.297145548180E+04    0.22658E-05   -0.71567E-05  6528   0.345E-03
  50 F= -.30084968E+04 E0= -.30084968E+04  d E =0.641618E-05  mag=    -0.0000
       N       E                     dE             d eps       ncg     rms          rms(c)
DAV:   1    -0.297145532559E+04    0.15848E-03   -0.53954E-02  5472   0.567E-02    0.759E-02
DAV:   2    -0.297145536382E+04   -0.38230E-04   -0.52560E-04  5952   0.100E-02    0.459E-02
DAV:   3    -0.297145536354E+04    0.27480E-06   -0.30884E-05  6528   0.217E-03
  51 F= -.30084970E+04 E0= -.30084970E+04  d E =-.138624E-03  mag=    -0.0000
       N       E                     dE             d eps       ncg     rms          rms(c)
DAV:   1    -0.297145539429E+04   -0.30474E-04   -0.53912E-02  5568   0.505E-02    0.631E-02
DAV:   2    -0.297145544062E+04   -0.46326E-04   -0.91493E-04  6144   0.117E-02    0.630E-02
DAV:   3    -0.297145540839E+04    0.32221E-04   -0.27848E-04  6528   0.561E-03    0.296E-02
DAV:   4    -0.297145540772E+04    0.67841E-06   -0.52680E-05  6144   0.262E-03
  52 F= -.30084967E+04 E0= -.30084967E+04  d E =0.238884E-03  mag=    -0.0000
       N       E                     dE             d eps       ncg     rms          rms(c)
DAV:   1    -0.297145557559E+04   -0.16720E-03   -0.53701E-02  5376   0.623E-02    0.105E-01
DAV:   2    -0.297145562955E+04   -0.53953E-04   -0.16342E-03  5952   0.171E-02    0.114E-01
DAV:   3    -0.297145557822E+04    0.51326E-04   -0.24479E-04  6144   0.612E-03    0.576E-02
DAV:   4    -0.297145560067E+04   -0.22446E-04   -0.15251E-04  6144   0.452E-03    0.575E-02
DAV:   5    -0.297145557660E+04    0.24064E-04   -0.15749E-04  6720   0.433E-03    0.213E-02
DAV:   6    -0.297145557209E+04    0.45123E-05   -0.22851E-05  6336   0.192E-03
  53 F= -.30084969E+04 E0= -.30084969E+04  d E =-.180870E-03  mag=    -0.0000
       N       E                     dE             d eps       ncg     rms          rms(c)
DAV:   1    -0.297145525416E+04    0.32244E-03   -0.52735E-02  4992   0.583E-02    0.102E-01
DAV:   2    -0.297145529953E+04   -0.45366E-04   -0.72628E-04  5760   0.115E-02    0.618E-02
DAV:   3    -0.297145529908E+04    0.44541E-06   -0.17612E-04  6528   0.480E-03    0.309E-02
DAV:   4    -0.297145530138E+04   -0.22973E-05   -0.21389E-04  6336   0.501E-03    0.359E-02
DAV:   5    -0.297145529092E+04    0.10460E-04   -0.76638E-05  6720   0.295E-03    0.110E-02
DAV:   6    -0.297145528961E+04    0.13145E-05   -0.48398E-06  5184   0.106E-03
  54 F= -.30084968E+04 E0= -.30084968E+04  d E =0.113429E-03  mag=    -0.0000
       N       E                     dE             d eps       ncg     rms          rms(c)
DAV:   1    -0.297145539643E+04   -0.10551E-03   -0.52521E-02  5184   0.528E-02    0.437E-02
DAV:   2    -0.297145542528E+04   -0.28852E-04   -0.38093E-04  5952   0.806E-03    0.387E-02
DAV:   3    -0.297145542192E+04    0.33645E-05   -0.25491E-05  6528   0.202E-03
  55 F= -.30084968E+04 E0= -.30084968E+04  d E =-.259412E-04  mag=    -0.0000
