       N       E                     dE             d eps       ncg     rms          rms(c)
DAV:   1     0.184961133096E+05    0.18496E+05   -0.77207E+05  6000   0.107E+03
DAV:   2     0.347953451536E+03   -0.18148E+05   -0.17395E+05  7536   0.282E+02
DAV:   3    -0.299107336636E+04   -0.33390E+04   -0.33193E+04  6656   0.126E+02
DAV:   4    -0.308845509473E+04   -0.97382E+02   -0.96925E+02  6752   0.248E+01
DAV:   5    -0.309067119791E+04   -0.22161E+01   -0.22124E+01  7232   0.340E+00    0.191E+02
DAV:   6    -0.149860066195E+04    0.15921E+04   -0.30227E+03  6336   0.451E+01    0.871E+01
DAV:   7    -0.164054767365E+04   -0.14195E+03   -0.25486E+02  6608   0.124E+01    0.559E+01
DAV:   8    -0.167474028527E+04   -0.34193E+02   -0.31601E+01  6688   0.529E+00    0.426E+01
DAV:   9    -0.182796793763E+04   -0.15323E+03   -0.32653E+01  6672   0.485E+00    0.349E+01
DAV:  10    -0.207543028285E+04   -0.24746E+03   -0.70369E+01  6720   0.636E+00    0.288E+01
DAV:  11    -0.232107084049E+04   -0.24564E+03   -0.10489E+02  6592   0.754E+00    0.230E+01
DAV:  12    -0.270196045045E+04   -0.38089E+03   -0.32006E+02  6384   0.119E+01    0.148E+01
DAV:  13    -0.283983109286E+04   -0.13787E+03   -0.11444E+02  6688   0.634E+00    0.107E+01
DAV:  14    -0.287522672880E+04   -0.35396E+02   -0.14827E+01  6688   0.273E+00    0.872E+00
DAV:  15    -0.289293731059E+04   -0.17711E+02   -0.45959E+00  6656   0.169E+00    0.704E+00
DAV:  16    -0.290216770316E+04   -0.92304E+01   -0.20532E+00  6528   0.117E+00    0.566E+00
DAV:  17    -0.290893953279E+04   -0.67718E+01   -0.20155E+00  6560   0.107E+00    0.425E+00
DAV:  18    -0.291340638342E+04   -0.44669E+01   -0.12053E+00  6448   0.815E-01    0.301E+00
DAV:  19    -0.291683225116E+04   -0.34259E+01   -0.77108E-01  6368   0.714E-01    0.167E+00
DAV:  20    -0.291671937431E+04    0.11288E+00   -0.17257E-01  6272   0.431E-01    0.111E+00
DAV:  21    -0.291887346531E+04   -0.21541E+01   -0.96483E-02  6288   0.406E-01    0.671E-01
DAV:  22    -0.292098387773E+04   -0.21104E+01   -0.51314E-02  6448   0.283E-01    0.453E-01
DAV:  23    -0.292228218149E+04   -0.12983E+01   -0.28904E-02  6672   0.196E-01    0.268E-01
DAV:  24    -0.292300827750E+04   -0.72610E+00   -0.15238E-02  6704   0.151E-01    0.157E-01
DAV:  25    -0.292327314169E+04   -0.26486E+00   -0.53681E-03  6768   0.939E-02    0.934E-02
DAV:  26    -0.292334520750E+04   -0.72066E-01   -0.21391E-03  6784   0.588E-02    0.589E-02
DAV:  27    -0.292338152037E+04   -0.36313E-01   -0.11584E-03  6720   0.436E-02    0.303E-02
DAV:  28    -0.292338769163E+04   -0.61713E-02   -0.39493E-04  6688   0.261E-02    0.209E-02
DAV:  29    -0.292338973633E+04   -0.20447E-02   -0.99830E-05  6704   0.129E-02    0.164E-02
DAV:  30    -0.292339226278E+04   -0.25265E-02   -0.47161E-05  5856   0.869E-03    0.896E-03
DAV:  31    -0.292339300769E+04   -0.74491E-03   -0.27482E-05  5792   0.674E-03    0.622E-03
DAV:  32    -0.292339430836E+04   -0.13007E-02   -0.18600E-05  5328   0.540E-03    0.448E-03
DAV:  33    -0.292339494302E+04   -0.63466E-03   -0.85476E-06  4896   0.341E-03    0.305E-03
DAV:  34    -0.292339527739E+04   -0.33437E-03   -0.61237E-06  4800   0.272E-03    0.200E-03
DAV:  35    -0.292339552920E+04   -0.25181E-03   -0.53842E-06  4784   0.240E-03    0.161E-03
DAV:  36    -0.292339558840E+04   -0.59195E-04   -0.18322E-06  4832   0.126E-03    0.131E-03
DAV:  37    -0.292339561687E+04   -0.28470E-04   -0.67620E-07  4880   0.812E-04    0.760E-04
DAV:  38    -0.292339563782E+04   -0.20950E-04   -0.40911E-07  4816   0.643E-04    0.633E-04
DAV:  39    -0.292339564919E+04   -0.11374E-04   -0.15754E-07  4848   0.422E-04    0.392E-04
DAV:  40    -0.292339565893E+04   -0.97394E-05   -0.81331E-08  4784   0.342E-04
   1 F= -.29582641E+04 E0= -.29582641E+04  d E =-.295826E+04  mag=    -0.0000
       N       E                     dE             d eps       ncg     rms          rms(c)
DAV:   1    -0.292335332963E+04    0.42320E-01   -0.72059E+00  5568   0.238E+00    0.105E+00
DAV:   2    -0.292336764480E+04   -0.14315E-01   -0.21157E-01  6624   0.380E-01    0.669E-01
DAV:   3    -0.292336366113E+04    0.39837E-02   -0.80640E-03  6944   0.110E-01    0.504E-01
DAV:   4    -0.292336244460E+04    0.12165E-02   -0.44336E-03  6624   0.858E-02    0.147E-01
DAV:   5    -0.292336213564E+04    0.30896E-03   -0.19671E-03  6592   0.495E-02    0.138E-01
DAV:   6    -0.292336209701E+04    0.38631E-04   -0.36873E-04  6688   0.218E-02    0.604E-02
DAV:   7    -0.292336211863E+04   -0.21628E-04   -0.85373E-05  6560   0.129E-02    0.355E-02
DAV:   8    -0.292336216926E+04   -0.50630E-04   -0.20117E-05  5520   0.102E-02    0.216E-02
DAV:   9    -0.292336222866E+04   -0.59393E-04   -0.13560E-05  5200   0.101E-02    0.706E-03
DAV:  10    -0.292336230126E+04   -0.72598E-04   -0.16156E-05  5280   0.947E-03    0.423E-03
DAV:  11    -0.292336235807E+04   -0.56813E-04   -0.15777E-05  5376   0.612E-03    0.488E-03
DAV:  12    -0.292336237366E+04   -0.15592E-04   -0.35236E-06  4832   0.194E-03    0.496E-03
DAV:  13    -0.292336238599E+04   -0.12326E-04   -0.59637E-07  4720   0.833E-04    0.371E-03
DAV:  14    -0.292336241739E+04   -0.31402E-04   -0.16583E-06  4672   0.150E-03    0.182E-03
DAV:  15    -0.292336242484E+04   -0.74545E-05   -0.45957E-07  4784   0.911E-04
   2 F= -.29582302E+04 E0= -.29582302E+04  d E =0.339172E-01  mag=    -0.0000
       N       E                     dE             d eps       ncg     rms          rms(c)
DAV:   1    -0.292339711039E+04   -0.34693E-01   -0.37823E+00  5568   0.172E+00    0.768E-01
DAV:   2    -0.292340443472E+04   -0.73243E-02   -0.10880E-01  6624   0.276E-01    0.484E-01
DAV:   3    -0.292340236989E+04    0.20648E-02   -0.41537E-03  6864   0.799E-02    0.359E-01
DAV:   4    -0.292340178657E+04    0.58332E-03   -0.24122E-03  6624   0.638E-02    0.109E-01
DAV:   5    -0.292340159586E+04    0.19071E-03   -0.10722E-03  6752   0.356E-02    0.985E-02
DAV:   6    -0.292340155556E+04    0.40295E-04   -0.18928E-04  6656   0.150E-02    0.444E-02
DAV:   7    -0.292340154982E+04    0.57388E-05   -0.41205E-05  5792   0.935E-03
   3 F= -.29582698E+04 E0= -.29582698E+04  d E =-.570233E-02  mag=    -0.0000
       N       E                     dE             d eps       ncg     rms          rms(c)
DAV:   1    -0.292339743828E+04    0.41173E-02   -0.42575E+00  5568   0.180E+00    0.552E-01
DAV:   2    -0.292340565670E+04   -0.82184E-02   -0.10508E-01  6720   0.258E-01    0.294E-01
DAV:   3    -0.292340435718E+04    0.12995E-02   -0.26352E-03  6848   0.557E-02    0.170E-01
DAV:   4    -0.292340402251E+04    0.33468E-03   -0.16304E-03  6592   0.416E-02    0.102E-01
DAV:   5    -0.292340400205E+04    0.20460E-04   -0.38327E-04  6736   0.191E-02    0.393E-02
DAV:   6    -0.292340401952E+04   -0.17469E-04   -0.11582E-04  6400   0.128E-02    0.218E-02
DAV:   7    -0.292340403887E+04   -0.19354E-04   -0.19607E-05  5760   0.511E-03    0.130E-02
DAV:   8    -0.292340406176E+04   -0.22891E-04   -0.59919E-06  5024   0.305E-03    0.783E-03
DAV:   9    -0.292340408936E+04   -0.27594E-04   -0.26360E-06  4800   0.271E-03    0.228E-03
DAV:  10    -0.292340411681E+04   -0.27456E-04   -0.18903E-06  4640   0.209E-03    0.274E-03
DAV:  11    -0.292340413533E+04   -0.18514E-04   -0.91081E-07  4736   0.127E-03    0.194E-03
DAV:  12    -0.292340414950E+04   -0.14178E-04   -0.40158E-07  4704   0.778E-04    0.109E-03
DAV:  13    -0.292340416950E+04   -0.19996E-04   -0.63582E-07  4704   0.934E-04    0.590E-04
DAV:  14    -0.292340417611E+04   -0.66111E-05   -0.24766E-07  4800   0.498E-04
   4 F= -.29582720E+04 E0= -.29582720E+04  d E =-.222747E-02  mag=    -0.0000
       N       E                     dE             d eps       ncg     rms          rms(c)
DAV:   1    -0.292340642674E+04   -0.22572E-02   -0.81148E-01  5568   0.783E-01    0.245E-01
DAV:   2    -0.292340794343E+04   -0.15167E-02   -0.19700E-02  6560   0.113E-01    0.126E-01
DAV:   3    -0.292340770121E+04    0.24222E-03   -0.49713E-04  6784   0.241E-02    0.718E-02
DAV:   4    -0.292340763478E+04    0.66431E-04   -0.31149E-04  6592   0.184E-02    0.373E-02
DAV:   5    -0.292340763284E+04    0.19416E-05   -0.63608E-05  6624   0.804E-03
   5 F= -.29582757E+04 E0= -.29582757E+04  d E =-.585840E-02  mag=    -0.0000
       N       E                     dE             d eps       ncg     rms          rms(c)
DAV:   1    -0.292341254831E+04   -0.49135E-02   -0.23401E+00  5568   0.135E+00    0.332E-01
DAV:   2    -0.292341668732E+04   -0.41390E-02   -0.49416E-02  6720   0.182E-01    0.193E-01
DAV:   3    -0.292341631286E+04    0.37446E-03   -0.89308E-04  6960   0.323E-02    0.124E-01
DAV:   4    -0.292341619017E+04    0.12269E-03   -0.69031E-04  6560   0.327E-02    0.311E-02
DAV:   5    -0.292341620747E+04   -0.17301E-04   -0.21849E-04  6720   0.158E-02    0.296E-02
DAV:   6    -0.292341620809E+04   -0.62387E-06   -0.33676E-05  6272   0.585E-03
   6 F= -.29582841E+04 E0= -.29582841E+04  d E =-.839768E-02  mag=    -0.0000
       N       E                     dE             d eps       ncg     rms          rms(c)
DAV:   1    -0.292341663933E+04   -0.43185E-03   -0.90239E-01  5568   0.840E-01    0.217E-01
DAV:   2    -0.292341825413E+04   -0.16148E-02   -0.19329E-02  6720   0.114E-01    0.118E-01
DAV:   3    -0.292341811108E+04    0.14305E-03   -0.35619E-04  6976   0.213E-02    0.770E-02
DAV:   4    -0.292341807238E+04    0.38699E-04   -0.27210E-04  6496   0.215E-02    0.208E-02
DAV:   5    -0.292341807811E+04   -0.57290E-05   -0.93035E-05  6688   0.105E-02
   7 F= -.29582858E+04 E0= -.29582858E+04  d E =-.101576E-01  mag=    -0.0000
       N       E                     dE             d eps       ncg     rms          rms(c)
DAV:   1    -0.292342109583E+04   -0.30235E-02   -0.26232E+00  5568   0.141E+00    0.369E-01
DAV:   2    -0.292342595944E+04   -0.48636E-02   -0.57907E-02  6560   0.195E-01    0.189E-01
DAV:   3    -0.292342549237E+04    0.46707E-03   -0.93026E-04  6752   0.342E-02    0.127E-01
DAV:   4    -0.292342534581E+04    0.14656E-03   -0.71319E-04  6560   0.313E-02    0.455E-02
DAV:   5    -0.292342534057E+04    0.52461E-05   -0.21833E-04  6752   0.157E-02    0.333E-02
DAV:   6    -0.292342533963E+04    0.93726E-06   -0.47076E-05  6592   0.760E-03
   8 F= -.29582932E+04 E0= -.29582932E+04  d E =-.738820E-02  mag=    -0.0000
       N       E                     dE             d eps       ncg     rms          rms(c)
DAV:   1    -0.292342533368E+04    0.68870E-05   -0.13571E-01  5568   0.321E-01    0.896E-02
DAV:   2    -0.292342558259E+04   -0.24891E-03   -0.30171E-03  6688   0.448E-02    0.430E-02
DAV:   3    -0.292342555925E+04    0.23341E-04   -0.50234E-05  6704   0.850E-03    0.303E-02
DAV:   4    -0.292342555689E+04    0.23582E-05   -0.31797E-05  5888   0.735E-03    0.111E-02
DAV:   5    -0.292342556154E+04   -0.46418E-05   -0.13091E-05  5184   0.466E-03
   9 F= -.29582935E+04 E0= -.29582935E+04  d E =-.763916E-02  mag=    -0.0000
       N       E                     dE             d eps       ncg     rms          rms(c)
DAV:   1    -0.292342593485E+04   -0.37796E-03   -0.25532E+00  5568   0.135E+00    0.355E-01
DAV:   2    -0.292343101412E+04   -0.50793E-02   -0.58965E-02  6496   0.184E-01    0.199E-01
DAV:   3    -0.292343055154E+04    0.46258E-03   -0.83869E-04  6784   0.311E-02    0.133E-01
DAV:   4    -0.292343038680E+04    0.16474E-03   -0.84512E-04  6592   0.310E-02    0.461E-02
DAV:   5    -0.292343038163E+04    0.51734E-05   -0.21348E-04  6784   0.145E-02    0.313E-02
DAV:   6    -0.292343038065E+04    0.97969E-06   -0.45447E-05  6528   0.723E-03
  10 F= -.29582985E+04 E0= -.29582985E+04  d E =-.504410E-02  mag=    -0.0000
       N       E                     dE             d eps       ncg     rms          rms(c)
DAV:   1    -0.292343037574E+04    0.58898E-05   -0.37210E-03  6432   0.516E-02    0.209E-02
DAV:   2    -0.292343038729E+04   -0.11555E-04   -0.93895E-05  6624   0.767E-03    0.829E-03
DAV:   3    -0.292343039265E+04   -0.53576E-05   -0.15840E-06  4800   0.218E-03    0.623E-03
DAV:   4    -0.292343039985E+04   -0.72010E-05   -0.11393E-06  4736   0.193E-03    0.268E-03
DAV:   5    -0.292343040757E+04   -0.77249E-05   -0.75666E-07  4736   0.168E-03
  11 F= -.29582985E+04 E0= -.29582985E+04  d E =-.507958E-02  mag=    -0.0000
       N       E                     dE             d eps       ncg     rms          rms(c)
DAV:   1    -0.292343337866E+04   -0.29788E-02   -0.11931E+00  5568   0.926E-01    0.230E-01
DAV:   2    -0.292343560466E+04   -0.22260E-02   -0.25421E-02  6496   0.125E-01    0.120E-01
DAV:   3    -0.292343545805E+04    0.14661E-03   -0.38880E-04  6816   0.206E-02    0.757E-02
DAV:   4    -0.292343543318E+04    0.24877E-04   -0.27875E-04  6576   0.193E-02    0.290E-02
DAV:   5    -0.292343544144E+04   -0.82662E-05   -0.77646E-05  6688   0.875E-03
  12 F= -.29583038E+04 E0= -.29583038E+04  d E =-.521717E-02  mag=    -0.0000
       N       E                     dE             d eps       ncg     rms          rms(c)
DAV:   1    -0.292343097919E+04    0.44540E-02   -0.49548E+00  5504   0.189E+00    0.475E-01
DAV:   2    -0.292344027066E+04   -0.92915E-02   -0.10632E-01  6432   0.258E-01    0.245E-01
DAV:   3    -0.292343966654E+04    0.60412E-03   -0.16664E-03  6848   0.425E-02    0.154E-01
DAV:   4    -0.292343953772E+04    0.12882E-03   -0.11703E-03  6624   0.399E-02    0.603E-02
DAV:   5    -0.292343956281E+04   -0.25091E-04   -0.32222E-04  6720   0.181E-02    0.384E-02
DAV:   6    -0.292343956131E+04    0.14997E-05   -0.71660E-05  6560   0.921E-03
  13 F= -.29583082E+04 E0= -.29583082E+04  d E =-.971221E-02  mag=    -0.0000
       N       E                     dE             d eps       ncg     rms          rms(c)
DAV:   1    -0.292344290062E+04   -0.33378E-02   -0.15061E+00  5568   0.102E+00    0.260E-01
DAV:   2    -0.292344554867E+04   -0.26481E-02   -0.30513E-02  6464   0.141E-01    0.140E-01
DAV:   3    -0.292344536021E+04    0.18846E-03   -0.50064E-04  6816   0.245E-02    0.855E-02
DAV:   4    -0.292344534599E+04    0.14225E-04   -0.39356E-04  6560   0.235E-02    0.381E-02
DAV:   5    -0.292344535350E+04   -0.75102E-05   -0.10750E-04  6720   0.107E-02    0.219E-02
DAV:   6    -0.292344535470E+04   -0.12052E-05   -0.28559E-05  6080   0.611E-03
  14 F= -.29583143E+04 E0= -.29583143E+04  d E =-.603403E-02  mag=    -0.0000
       N       E                     dE             d eps       ncg     rms          rms(c)
DAV:   1    -0.292344378055E+04    0.15729E-02   -0.21936E+00  5536   0.124E+00    0.314E-01
DAV:   2    -0.292344783573E+04   -0.40552E-02   -0.46474E-02  6432   0.170E-01    0.171E-01
DAV:   3    -0.292344754041E+04    0.29532E-03   -0.72899E-04  6912   0.297E-02    0.106E-01
DAV:   4    -0.292344749296E+04    0.47451E-04   -0.57765E-04  6592   0.289E-02    0.478E-02
DAV:   5    -0.292344750100E+04   -0.80410E-05   -0.17311E-04  6688   0.137E-02    0.269E-02
DAV:   6    -0.292344749953E+04    0.14709E-05   -0.43177E-05  6432   0.752E-03
  15 F= -.29583167E+04 E0= -.29583167E+04  d E =-.846969E-02  mag=    -0.0000
       N       E                     dE             d eps       ncg     rms          rms(c)
DAV:   1    -0.292344978209E+04   -0.22811E-02   -0.99515E-01  5568   0.813E-01    0.204E-01
DAV:   2    -0.292345168176E+04   -0.18997E-02   -0.21315E-02  6336   0.109E-01    0.128E-01
DAV:   3    -0.292345156545E+04    0.11631E-03   -0.29192E-04  6784   0.170E-02    0.824E-02
DAV:   4    -0.292345156048E+04    0.49673E-05   -0.31953E-04  6496   0.197E-02    0.209E-02
DAV:   5    -0.292345156569E+04   -0.52149E-05   -0.71230E-05  6640   0.890E-03
  16 F= -.29583210E+04 E0= -.29583210E+04  d E =-.426313E-02  mag=    -0.0000
       N       E                     dE             d eps       ncg     rms          rms(c)
DAV:   1    -0.292345050410E+04    0.10564E-02   -0.15896E+00  5536   0.103E+00    0.258E-01
DAV:   2    -0.292345357302E+04   -0.30689E-02   -0.34432E-02  6368   0.138E-01    0.164E-01
DAV:   3    -0.292345338707E+04    0.18595E-03   -0.46557E-04  6752   0.214E-02    0.105E-01
DAV:   4    -0.292345336388E+04    0.23185E-04   -0.51162E-04  6528   0.251E-02    0.268E-02
DAV:   5    -0.292345337047E+04   -0.65882E-05   -0.11114E-04  6784   0.112E-02    0.219E-02
DAV:   6    -0.292345337337E+04   -0.28944E-05   -0.24102E-05  5888   0.494E-03
  17 F= -.29583230E+04 E0= -.29583230E+04  d E =-.632054E-02  mag=    -0.0000
       N       E                     dE             d eps       ncg     rms          rms(c)
DAV:   1    -0.292345683985E+04   -0.34694E-02   -0.11978E+00  5568   0.891E-01    0.231E-01
DAV:   2    -0.292345898611E+04   -0.21463E-02   -0.24428E-02  6400   0.121E-01    0.125E-01
DAV:   3    -0.292345883840E+04    0.14771E-03   -0.36785E-04  6720   0.206E-02    0.865E-02
DAV:   4    -0.292345882522E+04    0.13188E-04   -0.23688E-04  6528   0.173E-02    0.319E-02
DAV:   5    -0.292345883016E+04   -0.49431E-05   -0.72182E-05  6624   0.920E-03
  18 F= -.29583288E+04 E0= -.29583288E+04  d E =-.579567E-02  mag=    -0.0000
       N       E                     dE             d eps       ncg     rms          rms(c)
DAV:   1    -0.292345938234E+04   -0.55712E-03   -0.13656E+00  5536   0.951E-01    0.253E-01
DAV:   2    -0.292346195730E+04   -0.25750E-02   -0.29259E-02  6464   0.130E-01    0.134E-01
DAV:   3    -0.292346177976E+04    0.17754E-03   -0.42976E-04  6752   0.225E-02    0.966E-02
DAV:   4    -0.292346175199E+04    0.27769E-04   -0.24604E-04  6528   0.177E-02    0.360E-02
DAV:   5    -0.292346175606E+04   -0.40680E-05   -0.81457E-05  6624   0.108E-02
  19 F= -.29583321E+04 E0= -.29583321E+04  d E =-.908447E-02  mag=    -0.0000
       N       E                     dE             d eps       ncg     rms          rms(c)
DAV:   1    -0.292345036519E+04    0.11387E-01   -0.54608E+00  5504   0.191E+00    0.505E-01
DAV:   2    -0.292346094517E+04   -0.10580E-01   -0.11969E-01  6368   0.260E-01    0.270E-01
DAV:   3    -0.292346021261E+04    0.73256E-03   -0.16883E-03  6912   0.444E-02    0.194E-01
DAV:   4    -0.292346007316E+04    0.13944E-03   -0.10047E-03  6592   0.354E-02    0.737E-02
DAV:   5    -0.292346008347E+04   -0.10306E-04   -0.34084E-04  6624   0.212E-02    0.426E-02
DAV:   6    -0.292346008643E+04   -0.29563E-05   -0.10277E-04  6624   0.119E-02    0.220E-02
DAV:   7    -0.292346008978E+04   -0.33536E-05   -0.11744E-05  5312   0.391E-03
  20 F= -.29583312E+04 E0= -.29583312E+04  d E =-.814627E-02  mag=    -0.0000
       N       E                     dE             d eps       ncg     rms          rms(c)
DAV:   1    -0.292345860916E+04    0.14773E-02   -0.21109E+00  5504   0.118E+00    0.306E-01
DAV:   2    -0.292346264403E+04   -0.40349E-02   -0.45538E-02  6464   0.161E-01    0.170E-01
DAV:   3    -0.292346237530E+04    0.26873E-03   -0.64637E-04  6752   0.269E-02    0.118E-01
DAV:   4    -0.292346234737E+04    0.27936E-04   -0.43882E-04  6528   0.231E-02    0.421E-02
DAV:   5    -0.292346236001E+04   -0.12641E-04   -0.13188E-04  6624   0.119E-02    0.275E-02
DAV:   6    -0.292346236102E+04   -0.10121E-05   -0.30925E-05  6080   0.615E-03
  21 F= -.29583330E+04 E0= -.29583330E+04  d E =-.996414E-02  mag=    -0.0000
       N       E                     dE             d eps       ncg     rms          rms(c)
DAV:   1    -0.292346463087E+04   -0.22709E-02   -0.20993E+00  5504   0.116E+00    0.290E-01
DAV:   2    -0.292346853993E+04   -0.39091E-02   -0.44169E-02  6432   0.157E-01    0.163E-01
DAV:   3    -0.292346828734E+04    0.25259E-03   -0.61884E-04  6688   0.246E-02    0.109E-01
DAV:   4    -0.292346823862E+04    0.48722E-04   -0.36916E-04  6560   0.213E-02    0.439E-02
DAV:   5    -0.292346824776E+04   -0.91371E-05   -0.12250E-04  6656   0.112E-02    0.236E-02
DAV:   6    -0.292346824753E+04    0.22468E-06   -0.28931E-05  5888   0.614E-03
  22 F= -.29583396E+04 E0= -.29583396E+04  d E =-.657958E-02  mag=    -0.0000
       N       E                     dE             d eps       ncg     rms          rms(c)
DAV:   1    -0.292346077000E+04    0.74778E-02   -0.64274E+00  5504   0.204E+00    0.514E-01
DAV:   2    -0.292347257117E+04   -0.11801E-01   -0.13328E-01  6400   0.273E-01    0.281E-01
DAV:   3    -0.292347183045E+04    0.74073E-03   -0.19129E-03  6720   0.434E-02    0.189E-01
DAV:   4    -0.292347170142E+04    0.12903E-03   -0.10751E-03  6592   0.362E-02    0.792E-02
DAV:   5    -0.292347172915E+04   -0.27733E-04   -0.36169E-04  6592   0.197E-02    0.410E-02
DAV:   6    -0.292347173242E+04   -0.32667E-05   -0.91979E-05  6592   0.110E-02
  23 F= -.29583443E+04 E0= -.29583443E+04  d E =-.112797E-01  mag=    -0.0000
       N       E                     dE             d eps       ncg     rms          rms(c)
DAV:   1    -0.292347252695E+04   -0.79780E-03   -0.31788E+00  5504   0.144E+00    0.356E-01
DAV:   2    -0.292347861156E+04   -0.60846E-02   -0.67957E-02  6400   0.193E-01    0.207E-01
DAV:   3    -0.292347823603E+04    0.37554E-03   -0.86439E-04  6848   0.297E-02    0.133E-01
DAV:   4    -0.292347818504E+04    0.50981E-04   -0.58569E-04  6496   0.265E-02    0.644E-02
DAV:   5    -0.292347820685E+04   -0.21809E-04   -0.20828E-04  6624   0.150E-02    0.270E-02
DAV:   6    -0.292347821089E+04   -0.40387E-05   -0.46315E-05  6432   0.747E-03
  24 F= -.29583515E+04 E0= -.29583515E+04  d E =-.725082E-02  mag=    -0.0000
       N       E                     dE             d eps       ncg     rms          rms(c)
DAV:   1    -0.292347232571E+04    0.58811E-02   -0.48467E+00  5504   0.177E+00    0.433E-01
DAV:   2    -0.292348065495E+04   -0.83292E-02   -0.94497E-02  6400   0.235E-01    0.250E-01
DAV:   3    -0.292348009247E+04    0.56248E-03   -0.12932E-03  6944   0.367E-02    0.160E-01
DAV:   4    -0.292348000258E+04    0.89888E-04   -0.84272E-04  6512   0.328E-02    0.771E-02
DAV:   5    -0.292348002885E+04   -0.26267E-04   -0.30642E-04  6624   0.186E-02    0.333E-02
DAV:   6    -0.292348003208E+04   -0.32281E-05   -0.70273E-05  6688   0.924E-03
  25 F= -.29583543E+04 E0= -.29583543E+04  d E =-.100269E-01  mag=    -0.0000
       N       E                     dE             d eps       ncg     rms          rms(c)
DAV:   1    -0.292348136226E+04   -0.13334E-02   -0.16284E+00  5536   0.101E+00    0.239E-01
DAV:   2    -0.292348434871E+04   -0.29865E-02   -0.33339E-02  6432   0.136E-01    0.156E-01
DAV:   3    -0.292348419727E+04    0.15144E-03   -0.40366E-04  6752   0.193E-02    0.946E-02
DAV:   4    -0.292348419157E+04    0.57030E-05   -0.31289E-04  6512   0.205E-02    0.455E-02
DAV:   5    -0.292348421087E+04   -0.19297E-04   -0.10379E-04  6624   0.978E-03    0.192E-02
DAV:   6    -0.292348421377E+04   -0.29044E-05   -0.21853E-05  5632   0.549E-03
  26 F= -.29583589E+04 E0= -.29583589E+04  d E =-.463834E-02  mag=    -0.0000
       N       E                     dE             d eps       ncg     rms          rms(c)
DAV:   1    -0.292348155233E+04    0.26585E-02   -0.36143E+00  5504   0.151E+00    0.350E-01
DAV:   2    -0.292348786750E+04   -0.63152E-02   -0.71230E-02  6432   0.202E-01    0.233E-01
DAV:   3    -0.292348751389E+04    0.35361E-03   -0.91028E-04  6784   0.289E-02    0.141E-01
DAV:   4    -0.292348746868E+04    0.45206E-04   -0.69053E-04  6496   0.303E-02    0.706E-02
DAV:   5    -0.292348749702E+04   -0.28337E-04   -0.22762E-04  6688   0.143E-02    0.285E-02
DAV:   6    -0.292348749827E+04   -0.12471E-05   -0.50277E-05  6464   0.825E-03
  27 F= -.29583629E+04 E0= -.29583629E+04  d E =-.860476E-02  mag=    -0.0000
       N       E                     dE             d eps       ncg     rms          rms(c)
DAV:   1    -0.292346014361E+04    0.27353E-01   -0.14463E+01  5504   0.304E+00    0.704E-01
DAV:   2    -0.292348529957E+04   -0.25156E-01   -0.28357E-01  6400   0.403E-01    0.466E-01
DAV:   3    -0.292348393206E+04    0.13675E-02   -0.36943E-03  6848   0.584E-02    0.281E-01
DAV:   4    -0.292348362968E+04    0.30238E-03   -0.26918E-03  6560   0.593E-02    0.155E-01
DAV:   5    -0.292348372450E+04   -0.94820E-04   -0.91356E-04  6560   0.289E-02    0.570E-02
DAV:   6    -0.292348372316E+04    0.13326E-05   -0.20608E-04  6624   0.168E-02    0.398E-02
DAV:   7    -0.292348374343E+04   -0.20262E-04   -0.41383E-05  6112   0.611E-03    0.201E-02
DAV:   8    -0.292348377089E+04   -0.27467E-04   -0.92702E-06  5152   0.487E-03    0.724E-03
DAV:   9    -0.292348379604E+04   -0.25149E-04   -0.59467E-06  4864   0.367E-03    0.506E-03
DAV:  10    -0.292348381065E+04   -0.14613E-04   -0.22859E-06  4704   0.178E-03    0.316E-03
DAV:  11    -0.292348381914E+04   -0.84878E-05   -0.44367E-07  4736   0.709E-04
  28 F= -.29583606E+04 E0= -.29583606E+04  d E =-.629608E-02  mag=    -0.0000
       N       E                     dE             d eps       ncg     rms          rms(c)
DAV:   1    -0.292347884814E+04    0.49625E-02   -0.59341E+00  5504   0.195E+00    0.441E-01
DAV:   2    -0.292348845644E+04   -0.96083E-02   -0.10908E-01  6432   0.258E-01    0.294E-01
DAV:   3    -0.292348788387E+04    0.57257E-03   -0.14539E-03  6816   0.371E-02    0.175E-01
DAV:   4    -0.292348779256E+04    0.91317E-04   -0.11808E-03  6528   0.392E-02    0.800E-02
DAV:   5    -0.292348783632E+04   -0.43762E-04   -0.34724E-04  6752   0.177E-02    0.354E-02
DAV:   6    -0.292348783085E+04    0.54660E-05   -0.75742E-05  6720   0.999E-03
  29 F= -.29583637E+04 E0= -.29583637E+04  d E =-.942919E-02  mag=    -0.0000
       N       E                     dE             d eps       ncg     rms          rms(c)
DAV:   1    -0.292349025835E+04   -0.24220E-02   -0.19747E+00  5504   0.112E+00    0.272E-01
DAV:   2    -0.292349382298E+04   -0.35646E-02   -0.40445E-02  6432   0.151E-01    0.167E-01
DAV:   3    -0.292349358739E+04    0.23559E-03   -0.55827E-04  6656   0.236E-02    0.101E-01
DAV:   4    -0.292349354484E+04    0.42551E-04   -0.32254E-04  6560   0.198E-02    0.567E-02
DAV:   5    -0.292349355797E+04   -0.13129E-04   -0.13116E-04  6656   0.124E-02    0.194E-02
DAV:   6    -0.292349355788E+04    0.80618E-07   -0.34942E-05  6400   0.667E-03
  30 F= -.29583700E+04 E0= -.29583700E+04  d E =-.621275E-02  mag=    -0.0000
       N       E                     dE             d eps       ncg     rms          rms(c)
DAV:   1    -0.292349195381E+04    0.16042E-02   -0.30851E+00  5504   0.140E+00    0.344E-01
DAV:   2    -0.292349746148E+04   -0.55077E-02   -0.62402E-02  6432   0.189E-01    0.205E-01
DAV:   3    -0.292349711903E+04    0.34245E-03   -0.86308E-04  6816   0.296E-02    0.122E-01
DAV:   4    -0.292349706497E+04    0.54067E-04   -0.51529E-04  6592   0.254E-02    0.676E-02
DAV:   5    -0.292349708648E+04   -0.21516E-04   -0.18835E-04  6720   0.149E-02    0.252E-02
DAV:   6    -0.292349708649E+04   -0.11700E-07   -0.52539E-05  6752   0.825E-03
  31 F= -.29583741E+04 E0= -.29583741E+04  d E =-.103497E-01  mag=    -0.0000
       N       E                     dE             d eps       ncg     rms          rms(c)
DAV:   1    -0.292347282458E+04    0.24262E-01   -0.12345E+01  5504   0.280E+00    0.692E-01
DAV:   2    -0.292349575218E+04   -0.22928E-01   -0.25729E-01  6400   0.376E-01    0.415E-01
DAV:   3    -0.292349435402E+04    0.13982E-02   -0.34651E-03  6912   0.592E-02    0.248E-01
DAV:   4    -0.292349401478E+04    0.33924E-03   -0.20916E-03  6560   0.502E-02    0.142E-01
DAV:   5    -0.292349408259E+04   -0.67812E-04   -0.79025E-04  6624   0.302E-02    0.497E-02
DAV:   6    -0.292349408458E+04   -0.19873E-05   -0.21723E-04  6720   0.167E-02    0.349E-02
DAV:   7    -0.292349409252E+04   -0.79420E-05   -0.35914E-05  6048   0.584E-03
  32 F= -.29583723E+04 E0= -.29583723E+04  d E =-.857731E-02  mag=    -0.0000
       N       E                     dE             d eps       ncg     rms          rms(c)
DAV:   1    -0.292348876206E+04    0.53225E-02   -0.49192E+00  5504   0.176E+00    0.433E-01
DAV:   2    -0.292349821217E+04   -0.94501E-02   -0.10630E-01  6400   0.239E-01    0.264E-01
DAV:   3    -0.292349766185E+04    0.55032E-03   -0.14008E-03  6816   0.367E-02    0.160E-01
DAV:   4    -0.292349756526E+04    0.96593E-04   -0.85542E-04  6496   0.321E-02    0.836E-02
DAV:   5    -0.292349761280E+04   -0.47540E-04   -0.30539E-04  6624   0.178E-02    0.323E-02
DAV:   6    -0.292349761312E+04   -0.32742E-06   -0.77442E-05  6688   0.977E-03
  33 F= -.29583751E+04 E0= -.29583751E+04  d E =-.113249E-01  mag=    -0.0000
       N       E                     dE             d eps       ncg     rms          rms(c)
DAV:   1    -0.292349769868E+04   -0.85882E-04   -0.38919E+00  5504   0.156E+00    0.381E-01
DAV:   2    -0.292350516304E+04   -0.74644E-02   -0.84503E-02  6432   0.210E-01    0.271E-01
DAV:   3    -0.292350468513E+04    0.47791E-03   -0.10894E-03  6816   0.309E-02    0.168E-01
DAV:   4    -0.292350455133E+04    0.13380E-03   -0.88391E-04  6560   0.318E-02    0.845E-02
DAV:   5    -0.292350457225E+04   -0.20922E-04   -0.27848E-04  6624   0.166E-02    0.302E-02
DAV:   6    -0.292350457377E+04   -0.15181E-05   -0.68773E-05  6592   0.915E-03
  34 F= -.29583830E+04 E0= -.29583830E+04  d E =-.790366E-02  mag=    -0.0000
       N       E                     dE             d eps       ncg     rms          rms(c)
DAV:   1    -0.292349905634E+04    0.55159E-02   -0.43073E+00  5504   0.164E+00    0.404E-01
DAV:   2    -0.292350667241E+04   -0.76161E-02   -0.86874E-02  6432   0.221E-01    0.277E-01
DAV:   3    -0.292350619543E+04    0.47698E-03   -0.12028E-03  6880   0.328E-02    0.169E-01
DAV:   4    -0.292350609660E+04    0.98826E-04   -0.97411E-04  6496   0.336E-02    0.852E-02
DAV:   5    -0.292350612148E+04   -0.24876E-04   -0.28012E-04  6592   0.172E-02    0.319E-02
DAV:   6    -0.292350612940E+04   -0.79149E-05   -0.76710E-05  6528   0.971E-03
  35 F= -.29583855E+04 E0= -.29583855E+04  d E =-.104532E-01  mag=    -0.0000
       N       E                     dE             d eps       ncg     rms          rms(c)
DAV:   1    -0.292350679328E+04   -0.67180E-03   -0.29589E+00  5504   0.134E+00    0.336E-01
DAV:   2    -0.292351191095E+04   -0.51177E-02   -0.57675E-02  6432   0.178E-01    0.197E-01
DAV:   3    -0.292351163168E+04    0.27926E-03   -0.77872E-04  6784   0.265E-02    0.120E-01
DAV:   4    -0.292351160040E+04    0.31287E-04   -0.37178E-04  6592   0.214E-02    0.620E-02
DAV:   5    -0.292351163641E+04   -0.36018E-04   -0.17194E-04  6592   0.140E-02    0.246E-02
DAV:   6    -0.292351164304E+04   -0.66271E-05   -0.45573E-05  6400   0.745E-03
  36 F= -.29583920E+04 E0= -.29583920E+04  d E =-.645036E-02  mag=    -0.0000
       N       E                     dE             d eps       ncg     rms          rms(c)
DAV:   1    -0.292349899562E+04    0.12641E-01   -0.99823E+00  5504   0.245E+00    0.616E-01
DAV:   2    -0.292351632509E+04   -0.17329E-01   -0.19528E-01  6368   0.327E-01    0.364E-01
DAV:   3    -0.292351531953E+04    0.10056E-02   -0.26692E-03  6784   0.490E-02    0.224E-01
DAV:   4    -0.292351509778E+04    0.22174E-03   -0.12732E-03  6592   0.394E-02    0.116E-01
DAV:   5    -0.292351517372E+04   -0.75939E-04   -0.60355E-04  6624   0.260E-02    0.447E-02
DAV:   6    -0.292351518271E+04   -0.89855E-05   -0.15798E-04  6656   0.137E-02    0.253E-02
DAV:   7    -0.292351519416E+04   -0.11452E-04   -0.24822E-05  5760   0.477E-03    0.151E-02
DAV:   8    -0.292351521234E+04   -0.18180E-04   -0.44741E-06  4928   0.404E-03    0.630E-03
DAV:   9    -0.292351522997E+04   -0.17631E-04   -0.43938E-06  4832   0.341E-03    0.235E-03
DAV:  10    -0.292351524338E+04   -0.13411E-04   -0.21800E-06  4736   0.220E-03    0.240E-03
DAV:  11    -0.292351524970E+04   -0.63134E-05   -0.66415E-07  4768   0.926E-04
  37 F= -.29583973E+04 E0= -.29583973E+04  d E =-.117815E-01  mag=    -0.0000
       N       E                     dE             d eps       ncg     rms          rms(c)
DAV:   1    -0.292351971662E+04   -0.44732E-02   -0.99447E-01  5504   0.812E-01    0.234E-01
DAV:   2    -0.292352158808E+04   -0.18715E-02   -0.21976E-02  6432   0.115E-01    0.121E-01
DAV:   3    -0.292352142946E+04    0.15862E-03   -0.37795E-04  6752   0.209E-02    0.766E-02
DAV:   4    -0.292352139907E+04    0.30386E-04   -0.16144E-04  6592   0.142E-02    0.371E-02
DAV:   5    -0.292352140473E+04   -0.56598E-05   -0.64100E-05  6528   0.982E-03
  38 F= -.29584039E+04 E0= -.29584039E+04  d E =-.655176E-02  mag=    -0.0000
       N       E                     dE             d eps       ncg     rms          rms(c)
DAV:   1    -0.292352271568E+04   -0.13166E-02   -0.78007E-01  5504   0.720E-01    0.211E-01
DAV:   2    -0.292352416741E+04   -0.14517E-02   -0.17090E-02  6464   0.102E-01    0.106E-01
DAV:   3    -0.292352404486E+04    0.12254E-03   -0.30191E-04  6848   0.189E-02    0.676E-02
DAV:   4    -0.292352402085E+04    0.24017E-04   -0.12507E-04  6592   0.129E-02    0.325E-02
DAV:   5    -0.292352402415E+04   -0.32978E-05   -0.48038E-05  6176   0.924E-03
  39 F= -.29584068E+04 E0= -.29584068E+04  d E =-.952276E-02  mag=    -0.0000
       N       E                     dE             d eps       ncg     rms          rms(c)
DAV:   1    -0.292351747011E+04    0.65507E-02   -0.31212E+00  5504   0.144E+00    0.416E-01
DAV:   2    -0.292352298957E+04   -0.55195E-02   -0.65560E-02  6432   0.203E-01    0.211E-01
DAV:   3    -0.292352249507E+04    0.49450E-03   -0.11910E-03  6944   0.375E-02    0.134E-01
DAV:   4    -0.292352239089E+04    0.10418E-03   -0.49816E-04  6560   0.255E-02    0.643E-02
DAV:   5    -0.292352239714E+04   -0.62509E-05   -0.19170E-04  6592   0.179E-02    0.281E-02
DAV:   6    -0.292352240368E+04   -0.65428E-05   -0.70489E-05  6624   0.974E-03
  40 F= -.29584059E+04 E0= -.29584059E+04  d E =-.860717E-02  mag=    -0.0000
       N       E                     dE             d eps       ncg     rms          rms(c)
DAV:   1    -0.292352247210E+04   -0.74959E-04   -0.11855E+00  5504   0.888E-01    0.250E-01
DAV:   2    -0.292352470129E+04   -0.22292E-02   -0.26155E-02  6432   0.126E-01    0.134E-01
DAV:   3    -0.292352451963E+04    0.18166E-03   -0.46733E-04  6720   0.226E-02    0.844E-02
DAV:   4    -0.292352448827E+04    0.31356E-04   -0.19599E-04  6624   0.152E-02    0.410E-02
DAV:   5    -0.292352450044E+04   -0.12170E-04   -0.77377E-05  6592   0.100E-02    0.172E-02
DAV:   6    -0.292352450392E+04   -0.34759E-05   -0.22206E-05  5520   0.525E-03
  41 F= -.29584076E+04 E0= -.29584076E+04  d E =-.102723E-01  mag=    -0.0000
       N       E                     dE             d eps       ncg     rms          rms(c)
DAV:   1    -0.292352766927E+04   -0.31688E-02   -0.14188E+00  5504   0.970E-01    0.248E-01
DAV:   2    -0.292353030810E+04   -0.26388E-02   -0.30737E-02  6432   0.132E-01    0.188E-01
DAV:   3    -0.292353010332E+04    0.20479E-03   -0.47612E-04  6720   0.203E-02    0.116E-01
DAV:   4    -0.292353003214E+04    0.71173E-04   -0.40884E-04  6592   0.220E-02    0.530E-02
DAV:   5    -0.292353003568E+04   -0.35412E-05   -0.11053E-04  6688   0.111E-02    0.196E-02
DAV:   6    -0.292353003724E+04   -0.15598E-05   -0.31469E-05  6144   0.649E-03
  42 F= -.29584135E+04 E0= -.29584135E+04  d E =-.592294E-02  mag=    -0.0000
       N       E                     dE             d eps       ncg     rms          rms(c)
DAV:   1    -0.292352980477E+04    0.23092E-03   -0.12274E+00  5504   0.901E-01    0.235E-01
DAV:   2    -0.292353213164E+04   -0.23269E-02   -0.27026E-02  6464   0.124E-01    0.173E-01
DAV:   3    -0.292353196149E+04    0.17015E-03   -0.39825E-04  6880   0.190E-02    0.106E-01
DAV:   4    -0.292353190582E+04    0.55671E-04   -0.36606E-04  6528   0.207E-02    0.473E-02
DAV:   5    -0.292353191010E+04   -0.42891E-05   -0.90139E-05  6592   0.105E-02
  43 F= -.29584157E+04 E0= -.29584157E+04  d E =-.815916E-02  mag=    -0.0000
       N       E                     dE             d eps       ncg     rms          rms(c)
DAV:   1    -0.292353580907E+04   -0.39033E-02   -0.10990E+00  5504   0.852E-01    0.223E-01
DAV:   2    -0.292353776179E+04   -0.19527E-02   -0.22538E-02  6432   0.116E-01    0.125E-01
DAV:   3    -0.292353762904E+04    0.13275E-03   -0.35166E-04  6752   0.195E-02    0.744E-02
DAV:   4    -0.292353761296E+04    0.16088E-04   -0.17232E-04  6592   0.147E-02    0.411E-02
DAV:   5    -0.292353762297E+04   -0.10013E-04   -0.66288E-05  6656   0.945E-03    0.152E-02
DAV:   6    -0.292353762583E+04   -0.28556E-05   -0.19402E-05  5504   0.521E-03
  44 F= -.29584218E+04 E0= -.29584218E+04  d E =-.606404E-02  mag=    -0.0000
       N       E                     dE             d eps       ncg     rms          rms(c)
DAV:   1    -0.292353219239E+04    0.54306E-02   -0.68301E+00  5504   0.212E+00    0.556E-01
DAV:   2    -0.292354437525E+04   -0.12183E-01   -0.14102E-01  6464   0.289E-01    0.317E-01
DAV:   3    -0.292354346925E+04    0.90600E-03   -0.21967E-03  6784   0.483E-02    0.191E-01
DAV:   4    -0.292354326419E+04    0.20506E-03   -0.10126E-03  6560   0.350E-02    0.105E-01
DAV:   5    -0.292354330251E+04   -0.38323E-04   -0.45147E-04  6624   0.245E-02    0.360E-02
DAV:   6    -0.292354330925E+04   -0.67385E-05   -0.13264E-04  6752   0.128E-02    0.239E-02
DAV:   7    -0.292354331374E+04   -0.44910E-05   -0.20948E-05  5600   0.452E-03
  45 F= -.29584284E+04 E0= -.29584284E+04  d E =-.126229E-01  mag=    -0.0000
       N       E                     dE             d eps       ncg     rms          rms(c)
DAV:   1    -0.292354569044E+04   -0.23812E-02   -0.21076E+00  5504   0.117E+00    0.299E-01
DAV:   2    -0.292354931917E+04   -0.36287E-02   -0.42151E-02  6432   0.158E-01    0.200E-01
DAV:   3    -0.292354906025E+04    0.25892E-03   -0.60761E-04  6720   0.237E-02    0.112E-01
DAV:   4    -0.292354900967E+04    0.50574E-04   -0.33680E-04  6592   0.211E-02    0.664E-02
DAV:   5    -0.292354902374E+04   -0.14064E-04   -0.15718E-04  6624   0.133E-02    0.206E-02
DAV:   6    -0.292354902740E+04   -0.36598E-05   -0.37973E-05  6176   0.691E-03
  46 F= -.29584346E+04 E0= -.29584346E+04  d E =-.620520E-02  mag=    -0.0000
       N       E                     dE             d eps       ncg     rms          rms(c)
DAV:   1    -0.292354595863E+04    0.30651E-02   -0.29517E+00  5504   0.139E+00    0.358E-01
DAV:   2    -0.292355151846E+04   -0.55598E-02   -0.63817E-02  6496   0.187E-01    0.237E-01
DAV:   3    -0.292355114590E+04    0.37256E-03   -0.82393E-04  6880   0.280E-02    0.135E-01
DAV:   4    -0.292355105905E+04    0.86850E-04   -0.48884E-04  6528   0.254E-02    0.788E-02
DAV:   5    -0.292355107320E+04   -0.14150E-04   -0.22195E-04  6592   0.160E-02    0.249E-02
DAV:   6    -0.292355107891E+04   -0.57036E-05   -0.56303E-05  6496   0.834E-03
  47 F= -.29584372E+04 E0= -.29584372E+04  d E =-.884091E-02  mag=    -0.0000
       N       E                     dE             d eps       ncg     rms          rms(c)
DAV:   1    -0.292355323915E+04   -0.21659E-02   -0.17095E+00  5504   0.107E+00    0.306E-01
DAV:   2    -0.292355643388E+04   -0.31947E-02   -0.38456E-02  6496   0.150E-01    0.203E-01
DAV:   3    -0.292355612945E+04    0.30444E-03   -0.63212E-04  6880   0.255E-02    0.121E-01
DAV:   4    -0.292355605268E+04    0.76761E-04   -0.52312E-04  6528   0.242E-02    0.609E-02
DAV:   5    -0.292355605421E+04   -0.15227E-05   -0.15295E-04  6592   0.146E-02    0.236E-02
DAV:   6    -0.292355605845E+04   -0.42436E-05   -0.46398E-05  6336   0.754E-03
  48 F= -.29584426E+04 E0= -.29584426E+04  d E =-.536557E-02  mag=    -0.0000
       N       E                     dE             d eps       ncg     rms          rms(c)
DAV:   1    -0.292355602288E+04    0.31327E-04   -0.20390E-01  5568   0.368E-01    0.109E-01
DAV:   2    -0.292355638561E+04   -0.36273E-03   -0.44426E-03  6496   0.520E-02    0.685E-02
DAV:   3    -0.292355635197E+04    0.33645E-04   -0.77336E-05  6624   0.915E-03    0.404E-02
DAV:   4    -0.292355634434E+04    0.76214E-05   -0.55385E-05  6016   0.855E-03    0.207E-02
DAV:   5    -0.292355634573E+04   -0.13872E-05   -0.18843E-05  5376   0.598E-03
  49 F= -.29584430E+04 E0= -.29584430E+04  d E =-.578630E-02  mag=    -0.0000
       N       E                     dE             d eps       ncg     rms          rms(c)
DAV:   1    -0.292355893832E+04   -0.25940E-02   -0.13300E+00  5504   0.955E-01    0.281E-01
DAV:   2    -0.292356132547E+04   -0.23871E-02   -0.28516E-02  6432   0.133E-01    0.152E-01
DAV:   3    -0.292356112373E+04    0.20175E-03   -0.49937E-04  6720   0.233E-02    0.893E-02
DAV:   4    -0.292356108016E+04    0.43570E-04   -0.22165E-04  6592   0.168E-02    0.483E-02
DAV:   5    -0.292356108581E+04   -0.56530E-05   -0.95567E-05  6528   0.115E-02
  50 F= -.29584481E+04 E0= -.29584481E+04  d E =-.507419E-02  mag=    -0.0000
       N       E                     dE             d eps       ncg     rms          rms(c)
DAV:   1    -0.292356136043E+04   -0.28027E-03   -0.78104E-01  5504   0.733E-01    0.219E-01
DAV:   2    -0.292356274161E+04   -0.13812E-02   -0.16603E-02  6464   0.102E-01    0.116E-01
DAV:   3    -0.292356261979E+04    0.12182E-03   -0.29271E-04  6752   0.181E-02    0.683E-02
DAV:   4    -0.292356259432E+04    0.25469E-04   -0.13427E-04  6592   0.132E-02    0.364E-02
DAV:   5    -0.292356259617E+04   -0.18473E-05   -0.53110E-05  6528   0.900E-03
  51 F= -.29584498E+04 E0= -.29584498E+04  d E =-.684082E-02  mag=    -0.0000
       N       E                     dE             d eps       ncg     rms          rms(c)
DAV:   1    -0.292356243749E+04    0.15683E-03   -0.16787E-01  5568   0.341E-01    0.103E-01
DAV:   2    -0.292356273539E+04   -0.29790E-03   -0.35772E-03  6688   0.476E-02    0.532E-02
DAV:   3    -0.292356270926E+04    0.26125E-04   -0.62831E-05  6624   0.853E-03    0.317E-02
DAV:   4    -0.292356270544E+04    0.38283E-05   -0.29097E-05  5792   0.628E-03    0.166E-02
DAV:   5    -0.292356270783E+04   -0.23905E-05   -0.11809E-05  5152   0.455E-03
  52 F= -.29584501E+04 E0= -.29584501E+04  d E =-.707133E-02  mag=    -0.0000
       N       E                     dE             d eps       ncg     rms          rms(c)
DAV:   1    -0.292356446971E+04   -0.17643E-02   -0.17958E+00  5504   0.112E+00    0.302E-01
DAV:   2    -0.292356760560E+04   -0.31359E-02   -0.37701E-02  6464   0.155E-01    0.209E-01
DAV:   3    -0.292356735208E+04    0.25353E-03   -0.62491E-04  6784   0.253E-02    0.115E-01
DAV:   4    -0.292356729388E+04    0.58201E-04   -0.36763E-04  6592   0.231E-02    0.701E-02
DAV:   5    -0.292356730272E+04   -0.88423E-05   -0.15487E-04  6592   0.148E-02    0.218E-02
DAV:   6    -0.292356730518E+04   -0.24600E-05   -0.47123E-05  6432   0.781E-03
  53 F= -.29584553E+04 E0= -.29584553E+04  d E =-.520379E-02  mag=    -0.0000
       N       E                     dE             d eps       ncg     rms          rms(c)
DAV:   1    -0.292356578664E+04    0.15161E-02   -0.15675E+00  5504   0.105E+00    0.284E-01
DAV:   2    -0.292356842759E+04   -0.26410E-02   -0.31976E-02  6464   0.145E-01    0.194E-01
DAV:   3    -0.292356821116E+04    0.21643E-03   -0.54348E-04  6912   0.239E-02    0.106E-01
DAV:   4    -0.292356816320E+04    0.47957E-04   -0.31519E-04  6624   0.220E-02    0.645E-02
DAV:   5    -0.292356817052E+04   -0.73134E-05   -0.13363E-04  6592   0.144E-02    0.205E-02
DAV:   6    -0.292356817477E+04   -0.42564E-05   -0.44223E-05  6400   0.765E-03
  54 F= -.29584567E+04 E0= -.29584567E+04  d E =-.664101E-02  mag=    -0.0000
       N       E                     dE             d eps       ncg     rms          rms(c)
DAV:   1    -0.292356987169E+04   -0.17012E-02   -0.14025E+00  5504   0.976E-01    0.256E-01
DAV:   2    -0.292357243459E+04   -0.25629E-02   -0.29876E-02  6528   0.132E-01    0.171E-01
DAV:   3    -0.292357224739E+04    0.18720E-03   -0.42876E-04  6752   0.202E-02    0.935E-02
DAV:   4    -0.292357221999E+04    0.27396E-04   -0.26514E-04  6560   0.180E-02    0.565E-02
DAV:   5    -0.292357223478E+04   -0.14787E-04   -0.11377E-04  6656   0.119E-02    0.177E-02
DAV:   6    -0.292357223723E+04   -0.24536E-05   -0.27958E-05  5792   0.581E-03
  55 F= -.29584614E+04 E0= -.29584614E+04  d E =-.468687E-02  mag=    -0.0000
       N       E                     dE             d eps       ncg     rms          rms(c)
DAV:   1    -0.292356943962E+04    0.27952E-02   -0.26852E+00  5504   0.135E+00    0.352E-01
DAV:   2    -0.292357418524E+04   -0.47456E-02   -0.56022E-02  6496   0.183E-01    0.237E-01
DAV:   3    -0.292357381649E+04    0.36875E-03   -0.82342E-04  6816   0.278E-02    0.129E-01
DAV:   4    -0.292357373044E+04    0.86044E-04   -0.49977E-04  6624   0.247E-02    0.775E-02
DAV:   5    -0.292357374999E+04   -0.19554E-04   -0.21703E-04  6592   0.163E-02    0.245E-02
DAV:   6    -0.292357375300E+04   -0.30024E-05   -0.54747E-05  6496   0.800E-03
  56 F= -.29584638E+04 E0= -.29584638E+04  d E =-.706696E-02  mag=    -0.0000
       N       E                     dE             d eps       ncg     rms          rms(c)
DAV:   1    -0.292357593018E+04   -0.21802E-02   -0.95870E-01  5504   0.808E-01    0.203E-01
DAV:   2    -0.292357759932E+04   -0.16691E-02   -0.19485E-02  6432   0.109E-01    0.156E-01
DAV:   3    -0.292357749485E+04    0.10447E-03   -0.28318E-04  6720   0.158E-02    0.863E-02
DAV:   4    -0.292357748625E+04    0.85949E-05   -0.16831E-04  6496   0.158E-02    0.523E-02
DAV:   5    -0.292357750361E+04   -0.17356E-04   -0.82867E-05  6624   0.981E-03    0.153E-02
DAV:   6    -0.292357750592E+04   -0.23125E-05   -0.18800E-05  5504   0.499E-03
  57 F= -.29584680E+04 E0= -.29584680E+04  d E =-.427883E-02  mag=    -0.0000
       N       E                     dE             d eps       ncg     rms          rms(c)
DAV:   1    -0.292356911714E+04    0.83865E-02   -0.86317E+00  5504   0.242E+00    0.601E-01
DAV:   2    -0.292358393292E+04   -0.14816E-01   -0.17298E-01  6432   0.326E-01    0.472E-01
DAV:   3    -0.292358300130E+04    0.93162E-03   -0.25636E-03  6784   0.475E-02    0.263E-01
DAV:   4    -0.292358270062E+04    0.30069E-03   -0.14828E-03  6592   0.471E-02    0.164E-01
DAV:   5    -0.292358276582E+04   -0.65208E-04   -0.78082E-04  6592   0.299E-02    0.466E-02
DAV:   6    -0.292358276703E+04   -0.12048E-05   -0.18388E-04  6720   0.152E-02    0.393E-02
DAV:   7    -0.292358277082E+04   -0.37915E-05   -0.30886E-05  5920   0.530E-03
  58 F= -.29584749E+04 E0= -.29584749E+04  d E =-.111237E-01  mag=    -0.0000
       N       E                     dE             d eps       ncg     rms          rms(c)
DAV:   1    -0.292358641920E+04   -0.36522E-02   -0.96908E-01  5504   0.809E-01    0.227E-01
DAV:   2    -0.292358806906E+04   -0.16499E-02   -0.20042E-02  6464   0.113E-01    0.137E-01
DAV:   3    -0.292358792767E+04    0.14139E-03   -0.35171E-04  6912   0.186E-02    0.776E-02
DAV:   4    -0.292358790290E+04    0.24771E-04   -0.15285E-04  6592   0.143E-02    0.420E-02
DAV:   5    -0.292358791580E+04   -0.12905E-04   -0.75215E-05  6592   0.105E-02    0.156E-02
DAV:   6    -0.292358792214E+04   -0.63420E-05   -0.22520E-05  5600   0.537E-03
  59 F= -.29584806E+04 E0= -.29584806E+04  d E =-.571788E-02  mag=    -0.0000
       N       E                     dE             d eps       ncg     rms          rms(c)
DAV:   1    -0.292358621576E+04    0.17000E-02   -0.36685E+00  5504   0.158E+00    0.447E-01
DAV:   2    -0.292359247306E+04   -0.62573E-02   -0.75791E-02  6432   0.218E-01    0.264E-01
DAV:   3    -0.292359194074E+04    0.53232E-03   -0.13446E-03  6912   0.362E-02    0.151E-01
DAV:   4    -0.292359178004E+04    0.16071E-03   -0.56088E-04  6592   0.275E-02    0.808E-02
DAV:   5    -0.292359179644E+04   -0.16402E-04   -0.28460E-04  6528   0.205E-02    0.302E-02
DAV:   6    -0.292359180365E+04   -0.72119E-05   -0.90583E-05  6656   0.106E-02
  60 F= -.29584856E+04 E0= -.29584856E+04  d E =-.107041E-01  mag=    -0.0000
       N       E                     dE             d eps       ncg     rms          rms(c)
DAV:   1    -0.292359486597E+04   -0.30695E-02   -0.16748E+00  5504   0.105E+00    0.312E-01
DAV:   2    -0.292359779467E+04   -0.29287E-02   -0.35139E-02  6496   0.144E-01    0.187E-01
DAV:   3    -0.292359753923E+04    0.25544E-03   -0.59651E-04  6848   0.237E-02    0.111E-01
DAV:   4    -0.292359748866E+04    0.50567E-04   -0.37231E-04  6560   0.203E-02    0.531E-02
DAV:   5    -0.292359750027E+04   -0.11605E-04   -0.11754E-04  6624   0.128E-02    0.218E-02
DAV:   6    -0.292359750320E+04   -0.29327E-05   -0.34618E-05  5888   0.660E-03
  61 F= -.29584922E+04 E0= -.29584922E+04  d E =-.660250E-02  mag=    -0.0000
       N       E                     dE             d eps       ncg     rms          rms(c)
DAV:   1    -0.292359662529E+04    0.87498E-03   -0.15446E+00  5504   0.101E+00    0.299E-01
DAV:   2    -0.292359924549E+04   -0.26202E-02   -0.31995E-02  6496   0.138E-01    0.180E-01
DAV:   3    -0.292359899740E+04    0.24809E-03   -0.55210E-04  6816   0.227E-02    0.107E-01
DAV:   4    -0.292359892970E+04    0.67700E-04   -0.33473E-04  6624   0.196E-02    0.513E-02
DAV:   5    -0.292359892913E+04    0.56415E-06   -0.11078E-04  6656   0.127E-02    0.208E-02
DAV:   6    -0.292359893149E+04   -0.23521E-05   -0.33294E-05  5856   0.655E-03
  62 F= -.29584945E+04 E0= -.29584945E+04  d E =-.889788E-02  mag=     0.0000
       N       E                     dE             d eps       ncg     rms          rms(c)
DAV:   1    -0.292360154024E+04   -0.26111E-02   -0.13768E+00  5504   0.960E-01    0.273E-01
DAV:   2    -0.292360387137E+04   -0.23311E-02   -0.27821E-02  6432   0.130E-01    0.160E-01
DAV:   3    -0.292360369822E+04    0.17315E-03   -0.45943E-04  6720   0.208E-02    0.916E-02
DAV:   4    -0.292360367669E+04    0.21530E-04   -0.21494E-04  6592   0.166E-02    0.485E-02
DAV:   5    -0.292360369595E+04   -0.19259E-04   -0.92325E-05  6592   0.111E-02    0.179E-02
DAV:   6    -0.292360369859E+04   -0.26359E-05   -0.24943E-05  5728   0.570E-03
  63 F= -.29585001E+04 E0= -.29585001E+04  d E =-.565937E-02  mag=     0.0000
       N       E                     dE             d eps       ncg     rms          rms(c)
DAV:   1    -0.292359379003E+04    0.99059E-02   -0.85534E+00  5504   0.239E+00    0.676E-01
DAV:   2    -0.292360850310E+04   -0.14713E-01   -0.17520E-01  6464   0.322E-01    0.400E-01
DAV:   3    -0.292360738275E+04    0.11203E-02   -0.28411E-03  6784   0.515E-02    0.231E-01
DAV:   4    -0.292360709654E+04    0.28621E-03   -0.13365E-03  6624   0.413E-02    0.123E-01
DAV:   5    -0.292360714490E+04   -0.48356E-04   -0.59291E-04  6592   0.277E-02    0.445E-02
DAV:   6    -0.292360715088E+04   -0.59819E-05   -0.15897E-04  6720   0.140E-02    0.267E-02
DAV:   7    -0.292360715612E+04   -0.52432E-05   -0.23311E-05  5568   0.469E-03
  64 F= -.29585058E+04 E0= -.29585058E+04  d E =-.113427E-01  mag=    -0.0000
       N       E                     dE             d eps       ncg     rms          rms(c)
DAV:   1    -0.292360862792E+04   -0.14770E-02   -0.25732E+00  5504   0.129E+00    0.346E-01
DAV:   2    -0.292361309144E+04   -0.44635E-02   -0.52204E-02  6400   0.175E-01    0.221E-01
DAV:   3    -0.292361278078E+04    0.31065E-03   -0.79391E-04  6912   0.266E-02    0.123E-01
DAV:   4    -0.292361273337E+04    0.47417E-04   -0.35801E-04  6560   0.216E-02    0.693E-02
DAV:   5    -0.292361276827E+04   -0.34901E-04   -0.19496E-04  6592   0.154E-02    0.223E-02
DAV:   6    -0.292361277429E+04   -0.60196E-05   -0.42614E-05  6112   0.699E-03
  65 F= -.29585126E+04 E0= -.29585126E+04  d E =-.680204E-02  mag=     0.0000
       N       E                     dE             d eps       ncg     rms          rms(c)
DAV:   1    -0.292360733165E+04    0.54366E-02   -0.56041E+00  5504   0.191E+00    0.511E-01
DAV:   2    -0.292361690320E+04   -0.95716E-02   -0.11200E-01  6400   0.258E-01    0.324E-01
DAV:   3    -0.292361624359E+04    0.65961E-03   -0.17066E-03  6944   0.393E-02    0.181E-01
DAV:   4    -0.292361610761E+04    0.13599E-03   -0.76830E-04  6592   0.324E-02    0.102E-01
DAV:   5    -0.292361616553E+04   -0.57926E-04   -0.42383E-04  6592   0.233E-02    0.331E-02
DAV:   6    -0.292361617063E+04   -0.51027E-05   -0.99554E-05  6688   0.107E-02
  66 F= -.29585178E+04 E0= -.29585178E+04  d E =-.119468E-01  mag=     0.0000
       N       E                     dE             d eps       ncg     rms          rms(c)
DAV:   1    -0.292356976607E+04    0.46399E-01   -0.22407E+01  5504   0.382E+00    0.103E+00
DAV:   2    -0.292360900067E+04   -0.39235E-01   -0.45584E-01  6400   0.516E-01    0.651E-01
DAV:   3    -0.292360641060E+04    0.25901E-02   -0.69376E-03  6944   0.791E-02    0.362E-01
DAV:   4    -0.292360569171E+04    0.71889E-03   -0.30463E-03  6624   0.642E-02    0.208E-01
DAV:   5    -0.292360586462E+04   -0.17291E-03   -0.17213E-03  6560   0.468E-02    0.650E-02
DAV:   6    -0.292360587670E+04   -0.12081E-04   -0.41493E-04  6720   0.216E-02    0.443E-02
DAV:   7    -0.292360588611E+04   -0.94078E-05   -0.61688E-05  6496   0.727E-03
  67 F= -.29585110E+04 E0= -.29585110E+04  d E =-.516087E-02  mag=     0.0000
       N       E                     dE             d eps       ncg     rms          rms(c)
DAV:   1    -0.292359411886E+04    0.11758E-01   -0.13158E+01  5504   0.292E+00    0.776E-01
DAV:   2    -0.292361769436E+04   -0.23576E-01   -0.27471E-01  6432   0.394E-01    0.500E-01
DAV:   3    -0.292361613796E+04    0.15564E-02   -0.40956E-03  6880   0.598E-02    0.280E-01
DAV:   4    -0.292361580488E+04    0.33307E-03   -0.19805E-03  6592   0.497E-02    0.155E-01
DAV:   5    -0.292361593904E+04   -0.13416E-03   -0.96163E-04  6592   0.332E-02    0.516E-02
DAV:   6    -0.292361594099E+04   -0.19484E-05   -0.20557E-04  6752   0.152E-02    0.326E-02
DAV:   7    -0.292361594207E+04   -0.10782E-05   -0.32157E-05  5952   0.524E-03
  68 F= -.29585184E+04 E0= -.29585184E+04  d E =-.125328E-01  mag=     0.0000
       N       E                     dE             d eps       ncg     rms          rms(c)
DAV:   1    -0.292361656491E+04   -0.62393E-03   -0.39164E+00  5504   0.158E+00    0.422E-01
DAV:   2    -0.292362320271E+04   -0.66378E-02   -0.78496E-02  6496   0.212E-01    0.336E-01
DAV:   3    -0.292362270096E+04    0.50175E-03   -0.12186E-03  6880   0.308E-02    0.193E-01
DAV:   4    -0.292362257787E+04    0.12309E-03   -0.95282E-04  6528   0.328E-02    0.105E-01
DAV:   5    -0.292362258898E+04   -0.11112E-04   -0.31547E-04  6688   0.185E-02    0.313E-02
DAV:   6    -0.292362259077E+04   -0.17912E-05   -0.75102E-05  6624   0.947E-03
  69 F= -.29585264E+04 E0= -.29585264E+04  d E =-.805611E-02  mag=     0.0000
       N       E                     dE             d eps       ncg     rms          rms(c)
DAV:   1    -0.292361937537E+04    0.32136E-02   -0.27239E+00  5504   0.131E+00    0.356E-01
DAV:   2    -0.292362396443E+04   -0.45891E-02   -0.54468E-02  6432   0.178E-01    0.281E-01
DAV:   3    -0.292362362107E+04    0.34336E-03   -0.85086E-04  6912   0.260E-02    0.160E-01
DAV:   4    -0.292362355493E+04    0.66138E-04   -0.66762E-04  6528   0.278E-02    0.847E-02
DAV:   5    -0.292362356611E+04   -0.11182E-04   -0.20933E-04  6624   0.156E-02    0.264E-02
DAV:   6    -0.292362357131E+04   -0.51939E-05   -0.54298E-05  6272   0.815E-03
  70 F= -.29585286E+04 E0= -.29585286E+04  d E =-.102095E-01  mag=    -0.0000
       N       E                     dE             d eps       ncg     rms          rms(c)
DAV:   1    -0.292362459383E+04   -0.10277E-02   -0.48010E+00  5504   0.173E+00    0.503E-01
DAV:   2    -0.292363292239E+04   -0.83286E-02   -0.98333E-02  6432   0.235E-01    0.310E-01
DAV:   3    -0.292363233847E+04    0.58392E-03   -0.15232E-03  6816   0.371E-02    0.173E-01
DAV:   4    -0.292363224137E+04    0.97104E-04   -0.74087E-04  6592   0.297E-02    0.942E-02
DAV:   5    -0.292363228273E+04   -0.41360E-04   -0.32438E-04  6656   0.200E-02    0.336E-02
DAV:   6    -0.292363228520E+04   -0.24717E-05   -0.91744E-05  6720   0.105E-02
  71 F= -.29585388E+04 E0= -.29585388E+04  d E =-.102688E-01  mag=    -0.0000
       N       E                     dE             d eps       ncg     rms          rms(c)
DAV:   1    -0.292362168035E+04    0.10602E-01   -0.85647E+00  5504   0.231E+00    0.678E-01
DAV:   2    -0.292363646941E+04   -0.14789E-01   -0.17503E-01  6432   0.313E-01    0.410E-01
DAV:   3    -0.292363539200E+04    0.10774E-02   -0.27672E-03  6784   0.497E-02    0.230E-01
DAV:   4    -0.292363519705E+04    0.19495E-03   -0.12916E-03  6624   0.390E-02    0.124E-01
DAV:   5    -0.292363524860E+04   -0.51557E-04   -0.57653E-04  6560   0.268E-02    0.448E-02
DAV:   6    -0.292363525351E+04   -0.49061E-05   -0.16172E-04  6688   0.140E-02    0.254E-02
DAV:   7    -0.292363525879E+04   -0.52844E-05   -0.22862E-05  5792   0.470E-03
  72 F= -.29585439E+04 E0= -.29585439E+04  d E =-.153210E-01  mag=    -0.0000
       N       E                     dE             d eps       ncg     rms          rms(c)
DAV:   1    -0.292363617132E+04   -0.91781E-03   -0.53564E+00  5504   0.181E+00    0.540E-01
DAV:   2    -0.292364529539E+04   -0.91241E-02   -0.10836E-01  6400   0.246E-01    0.338E-01
DAV:   3    -0.292364456348E+04    0.73191E-03   -0.17291E-03  6816   0.388E-02    0.189E-01
DAV:   4    -0.292364442907E+04    0.13441E-03   -0.84696E-04  6560   0.325E-02    0.998E-02
DAV:   5    -0.292364447472E+04   -0.45652E-04   -0.38483E-04  6624   0.225E-02    0.374E-02
DAV:   6    -0.292364447924E+04   -0.45188E-05   -0.10904E-04  6784   0.113E-02    0.209E-02
DAV:   7    -0.292364448251E+04   -0.32716E-05   -0.14010E-05  5408   0.372E-03
  73 F= -.29585548E+04 E0= -.29585548E+04  d E =-.108948E-01  mag=    -0.0000
       N       E                     dE             d eps       ncg     rms          rms(c)
DAV:   1    -0.292362065377E+04    0.23825E-01   -0.19001E+01  5504   0.341E+00    0.101E+00
DAV:   2    -0.292365218870E+04   -0.31535E-01   -0.37550E-01  6400   0.463E-01    0.637E-01
DAV:   3    -0.292364969417E+04    0.24945E-02   -0.62871E-03  6880   0.743E-02    0.354E-01
DAV:   4    -0.292364902787E+04    0.66629E-03   -0.29802E-03  6624   0.618E-02    0.190E-01
DAV:   5    -0.292364913500E+04   -0.10712E-03   -0.13867E-03  6592   0.437E-02    0.693E-02
DAV:   6    -0.292364913971E+04   -0.47111E-05   -0.41405E-04  6688   0.222E-02    0.399E-02
DAV:   7    -0.292364914190E+04   -0.21933E-05   -0.52870E-05  6272   0.715E-03
  74 F= -.29585626E+04 E0= -.29585626E+04  d E =-.187032E-01  mag=    -0.0000
       N       E                     dE             d eps       ncg     rms          rms(c)
DAV:   1    -0.292364999665E+04   -0.85695E-03   -0.36156E+00  5504   0.148E+00    0.421E-01
DAV:   2    -0.292365584868E+04   -0.58520E-02   -0.69579E-02  6336   0.197E-01    0.286E-01
DAV:   3    -0.292365540073E+04    0.44795E-03   -0.11497E-03  6880   0.299E-02    0.158E-01
DAV:   4    -0.292365536536E+04    0.35368E-04   -0.61702E-04  6560   0.267E-02    0.838E-02
DAV:   5    -0.292365541347E+04   -0.48108E-04   -0.26272E-04  6592   0.178E-02    0.292E-02
DAV:   6    -0.292365542126E+04   -0.77928E-05   -0.67729E-05  6528   0.868E-03
  75 F= -.29585702E+04 E0= -.29585702E+04  d E =-.763527E-02  mag=     0.0000
       N       E                     dE             d eps       ncg     rms          rms(c)
DAV:   1    -0.292360817290E+04    0.47241E-01   -0.32441E+01  5504   0.442E+00    0.127E+00
DAV:   2    -0.292366561179E+04   -0.57439E-01   -0.67097E-01  6272   0.593E-01    0.874E-01
DAV:   3    -0.292366155447E+04    0.40573E-02   -0.10690E-02  6880   0.907E-02    0.486E-01
DAV:   4    -0.292366048714E+04    0.10673E-02   -0.57658E-03  6528   0.791E-02    0.268E-01
DAV:   5    -0.292366069751E+04   -0.21037E-03   -0.24441E-03  6624   0.525E-02    0.869E-02
DAV:   6    -0.292366071489E+04   -0.17382E-04   -0.60857E-04  6720   0.254E-02    0.478E-02
DAV:   7    -0.292366072277E+04   -0.78799E-05   -0.90378E-05  6496   0.901E-03
  76 F= -.29585796E+04 E0= -.29585796E+04  d E =-.170063E-01  mag=     0.0000
       N       E                     dE             d eps       ncg     rms          rms(c)
DAV:   1    -0.292365974607E+04    0.96882E-03   -0.73060E+00  5504   0.208E+00    0.579E-01
DAV:   2    -0.292367229555E+04   -0.12549E-01   -0.14724E-01  6432   0.281E-01    0.413E-01
DAV:   3    -0.292367145552E+04    0.84003E-03   -0.22398E-03  6880   0.416E-02    0.224E-01
DAV:   4    -0.292367130358E+04    0.15194E-03   -0.11124E-03  6528   0.367E-02    0.130E-01
DAV:   5    -0.292367137637E+04   -0.72787E-04   -0.54206E-04  6560   0.244E-02    0.384E-02
DAV:   6    -0.292367138415E+04   -0.77806E-05   -0.13553E-04  6688   0.123E-02    0.259E-02
DAV:   7    -0.292367139061E+04   -0.64606E-05   -0.18150E-05  5632   0.411E-03
  77 F= -.29585921E+04 E0= -.29585921E+04  d E =-.125191E-01  mag=     0.0000
       N       E                     dE             d eps       ncg     rms          rms(c)
DAV:   1    -0.292366018931E+04    0.11195E-01   -0.10226E+01  5504   0.247E+00    0.686E-01
DAV:   2    -0.292367809550E+04   -0.17906E-01   -0.20933E-01  6368   0.334E-01    0.489E-01
DAV:   3    -0.292367693580E+04    0.11597E-02   -0.31654E-03  6880   0.494E-02    0.265E-01
DAV:   4    -0.292367666337E+04    0.27243E-03   -0.15077E-03  6528   0.432E-02    0.156E-01
DAV:   5    -0.292367674084E+04   -0.77476E-04   -0.77595E-04  6528   0.294E-02    0.448E-02
DAV:   6    -0.292367674998E+04   -0.91339E-05   -0.19515E-04  6720   0.150E-02    0.315E-02
DAV:   7    -0.292367675820E+04   -0.82190E-05   -0.26871E-05  5888   0.494E-03
  78 F= -.29585997E+04 E0= -.29585997E+04  d E =-.200805E-01  mag=     0.0000
       N       E                     dE             d eps       ncg     rms          rms(c)
DAV:   1    -0.292359894747E+04    0.77803E-01   -0.40886E+01  5504   0.494E+00    0.138E+00
DAV:   2    -0.292367176305E+04   -0.72816E-01   -0.84321E-01  6272   0.665E-01    0.981E-01
DAV:   3    -0.292366725790E+04    0.45051E-02   -0.12821E-02  6912   0.983E-02    0.535E-01
DAV:   4    -0.292366585317E+04    0.14047E-02   -0.56685E-03  6592   0.839E-02    0.322E-01
DAV:   5    -0.292366605982E+04   -0.20664E-03   -0.31631E-03  6464   0.591E-02    0.883E-02
DAV:   6    -0.292366607919E+04   -0.19374E-04   -0.81176E-04  6656   0.305E-02    0.639E-02
DAV:   7    -0.292366609684E+04   -0.17644E-04   -0.12060E-04  6624   0.102E-02    0.333E-02
DAV:   8    -0.292366613403E+04   -0.37198E-04   -0.21506E-05  5504   0.800E-03    0.123E-02
DAV:   9    -0.292366618383E+04   -0.49795E-04   -0.16627E-05  5408   0.706E-03    0.544E-03
DAV:  10    -0.292366621614E+04   -0.32309E-04   -0.85453E-06  4736   0.422E-03    0.401E-03
DAV:  11    -0.292366623548E+04   -0.19345E-04   -0.19799E-06  4768   0.185E-03    0.355E-03
DAV:  12    -0.292366628044E+04   -0.44954E-04   -0.18654E-06  4672   0.340E-03    0.164E-03
DAV:  13    -0.292366631175E+04   -0.31312E-04   -0.27722E-06  4832   0.296E-03    0.177E-03
DAV:  14    -0.292366632754E+04   -0.15796E-04   -0.20255E-06  4768   0.173E-03    0.103E-03
DAV:  15    -0.292366633507E+04   -0.75220E-05   -0.32337E-07  4768   0.657E-04
  79 F= -.29585937E+04 E0= -.29585937E+04  d E =-.140521E-01  mag=    -0.0000
       N       E                     dE             d eps       ncg     rms          rms(c)
DAV:   1    -0.292364195320E+04    0.24374E-01   -0.20290E+01  5504   0.349E+00    0.972E-01
DAV:   2    -0.292367966051E+04   -0.37707E-01   -0.43802E-01  6400   0.469E-01    0.689E-01
DAV:   3    -0.292367724298E+04    0.24175E-02   -0.62015E-03  6816   0.698E-02    0.375E-01
DAV:   4    -0.292367666088E+04    0.58210E-03   -0.34784E-03  6624   0.637E-02    0.210E-01
DAV:   5    -0.292367678326E+04   -0.12238E-03   -0.14640E-03  6624   0.398E-02    0.654E-02
DAV:   6    -0.292367678163E+04    0.16326E-05   -0.35707E-04  6816   0.201E-02    0.442E-02
DAV:   7    -0.292367678412E+04   -0.24969E-05   -0.45534E-05  6144   0.653E-03
  80 F= -.29586010E+04 E0= -.29586010E+04  d E =-.213995E-01  mag=     0.0000
       N       E                     dE             d eps       ncg     rms          rms(c)
DAV:   1    -0.292367034517E+04    0.64365E-02   -0.13002E+01  5504   0.277E+00    0.773E-01
DAV:   2    -0.292369263124E+04   -0.22286E-01   -0.25870E-01  6368   0.369E-01    0.543E-01
DAV:   3    -0.292369110405E+04    0.15272E-02   -0.38891E-03  6976   0.539E-02    0.298E-01
DAV:   4    -0.292369080837E+04    0.29569E-03   -0.21561E-03  6560   0.480E-02    0.170E-01
DAV:   5    -0.292369092719E+04   -0.11883E-03   -0.91898E-04  6624   0.304E-02    0.488E-02
DAV:   6    -0.292369093529E+04   -0.81029E-05   -0.21803E-04  6720   0.147E-02    0.333E-02
DAV:   7    -0.292369094011E+04   -0.48153E-05   -0.29619E-05  5856   0.504E-03
  81 F= -.29586177E+04 E0= -.29586177E+04  d E =-.166513E-01  mag=    -0.0000
       N       E                     dE             d eps       ncg     rms          rms(c)
DAV:   1    -0.292367411354E+04    0.16822E-01   -0.15347E+01  5504   0.301E+00    0.842E-01
DAV:   2    -0.292369990548E+04   -0.25792E-01   -0.30105E-01  6336   0.402E-01    0.586E-01
DAV:   3    -0.292369812599E+04    0.17795E-02   -0.45932E-03  7008   0.589E-02    0.321E-01
DAV:   4    -0.292369779563E+04    0.33036E-03   -0.25970E-03  6592   0.528E-02    0.180E-01
DAV:   5    -0.292369793090E+04   -0.13527E-03   -0.10357E-03  6592   0.328E-02    0.537E-02
DAV:   6    -0.292369794246E+04   -0.11560E-04   -0.26268E-04  6752   0.161E-02    0.360E-02
DAV:   7    -0.292369795071E+04   -0.82525E-05   -0.34542E-05  5920   0.548E-03
  82 F= -.29586274E+04 E0= -.29586274E+04  d E =-.263721E-01  mag=     0.0000
       N       E                     dE             d eps       ncg     rms          rms(c)
DAV:   1    -0.292358820842E+04    0.10973E+00   -0.61418E+01  5504   0.602E+00    0.170E+00
DAV:   2    -0.292369226059E+04   -0.10405E+00   -0.12097E+00  6272   0.803E-01    0.119E+00
DAV:   3    -0.292368511779E+04    0.71428E-02   -0.19179E-02  7040   0.119E-01    0.649E-01
DAV:   4    -0.292368325308E+04    0.18647E-02   -0.10467E-02  6592   0.105E-01    0.378E-01
DAV:   5    -0.292368364999E+04   -0.39691E-03   -0.42716E-03  6592   0.662E-02    0.106E-01
DAV:   6    -0.292368369319E+04   -0.43201E-04   -0.11130E-03  6656   0.329E-02    0.720E-02
DAV:   7    -0.292368371633E+04   -0.23139E-04   -0.14969E-04  6592   0.112E-02    0.371E-02
DAV:   8    -0.292368375128E+04   -0.34955E-04   -0.40216E-05  5728   0.798E-03    0.109E-02
DAV:   9    -0.292368378802E+04   -0.36735E-04   -0.20768E-05  5600   0.542E-03    0.443E-03
DAV:  10    -0.292368381051E+04   -0.22491E-04   -0.43419E-06  4768   0.265E-03    0.352E-03
DAV:  11    -0.292368382673E+04   -0.16218E-04   -0.83180E-07  4768   0.125E-03    0.260E-03
DAV:  12    -0.292368386608E+04   -0.39348E-04   -0.18048E-06  4704   0.259E-03    0.146E-03
DAV:  13    -0.292368387588E+04   -0.98069E-05   -0.11746E-06  4832   0.123E-03
  83 F= -.29586187E+04 E0= -.29586187E+04  d E =-.177268E-01  mag=    -0.0000
       N       E                     dE             d eps       ncg     rms          rms(c)
DAV:   1    -0.292364208547E+04    0.41781E-01   -0.32202E+01  5504   0.433E+00    0.123E+00
DAV:   2    -0.292370240961E+04   -0.60324E-01   -0.70046E-01  6368   0.591E-01    0.862E-01
DAV:   3    -0.292369848435E+04    0.39253E-02   -0.10109E-02  7040   0.864E-02    0.483E-01
DAV:   4    -0.292369759290E+04    0.89145E-03   -0.60952E-03  6560   0.784E-02    0.263E-01
DAV:   5    -0.292369784961E+04   -0.25672E-03   -0.21499E-03  6688   0.471E-02    0.821E-02
DAV:   6    -0.292369786419E+04   -0.14576E-04   -0.55465E-04  6752   0.232E-02    0.530E-02
DAV:   7    -0.292369787160E+04   -0.74098E-05   -0.67073E-05  6240   0.786E-03
  84 F= -.29586288E+04 E0= -.29586288E+04  d E =-.277830E-01  mag=     0.0000
       N       E                     dE             d eps       ncg     rms          rms(c)
DAV:   1    -0.292368461119E+04    0.13253E-01   -0.17414E+01  5504   0.318E+00    0.905E-01
DAV:   2    -0.292371412155E+04   -0.29510E-01   -0.34965E-01  6368   0.424E-01    0.666E-01
DAV:   3    -0.292371212582E+04    0.19957E-02   -0.56570E-03  6848   0.625E-02    0.369E-01
DAV:   4    -0.292371167125E+04    0.45457E-03   -0.29234E-03  6592   0.580E-02    0.215E-01
DAV:   5    -0.292371178584E+04   -0.11459E-03   -0.12809E-03  6688   0.360E-02    0.577E-02
DAV:   6    -0.292371179373E+04   -0.78878E-05   -0.30415E-04  6720   0.178E-02    0.430E-02
DAV:   7    -0.292371179602E+04   -0.22960E-05   -0.43007E-05  6176   0.607E-03
  85 F= -.29586456E+04 E0= -.29586456E+04  d E =-.168328E-01  mag=    -0.0000
       N       E                     dE             d eps       ncg     rms          rms(c)
DAV:   1    -0.292369421883E+04    0.17575E-01   -0.12455E+01  5504   0.269E+00    0.769E-01
DAV:   2    -0.292371628908E+04   -0.22070E-01   -0.25988E-01  6208   0.360E-01    0.563E-01
DAV:   3    -0.292371483329E+04    0.14558E-02   -0.40116E-03  7040   0.528E-02    0.313E-01
DAV:   4    -0.292371452784E+04    0.30545E-03   -0.21693E-03  6592   0.494E-02    0.180E-01
DAV:   5    -0.292371461527E+04   -0.87431E-04   -0.90370E-04  6592   0.310E-02    0.496E-02
DAV:   6    -0.292371463065E+04   -0.15382E-04   -0.23160E-04  6656   0.155E-02    0.371E-02
DAV:   7    -0.292371463935E+04   -0.86997E-05   -0.30753E-05  5952   0.520E-03
  86 F= -.29586509E+04 E0= -.29586509E+04  d E =-.221375E-01  mag=    -0.0000
       N       E                     dE             d eps       ncg     rms          rms(c)
DAV:   1    -0.292370592650E+04    0.87042E-02   -0.16710E+01  5504   0.306E+00    0.942E-01
DAV:   2    -0.292373363976E+04   -0.27713E-01   -0.32992E-01  6432   0.412E-01    0.546E-01
DAV:   3    -0.292373147659E+04    0.21632E-02   -0.56783E-03  7040   0.659E-02    0.332E-01
DAV:   4    -0.292373096789E+04    0.50870E-03   -0.24128E-03  6592   0.499E-02    0.157E-01
DAV:   5    -0.292373108826E+04   -0.12037E-03   -0.10795E-03  6624   0.356E-02    0.665E-02
DAV:   6    -0.292373110030E+04   -0.12048E-04   -0.28728E-04  6784   0.166E-02    0.324E-02
DAV:   7    -0.292373110814E+04   -0.78347E-05   -0.35408E-05  5984   0.546E-03
  87 F= -.29586702E+04 E0= -.29586702E+04  d E =-.192892E-01  mag=    -0.0000
       N       E                     dE             d eps       ncg     rms          rms(c)
DAV:   1    -0.292370919897E+04    0.21901E-01   -0.14473E+01  5504   0.285E+00    0.892E-01
DAV:   2    -0.292373545373E+04   -0.26255E-01   -0.30866E-01  6304   0.385E-01    0.515E-01
DAV:   3    -0.292373348509E+04    0.19686E-02   -0.50467E-03  7040   0.619E-02    0.318E-01
DAV:   4    -0.292373297693E+04    0.50817E-03   -0.20476E-03  6656   0.456E-02    0.153E-01
DAV:   5    -0.292373308611E+04   -0.10918E-03   -0.98743E-04  6528   0.343E-02    0.613E-02
DAV:   6    -0.292373310579E+04   -0.19680E-04   -0.27083E-04  6752   0.161E-02    0.308E-02
DAV:   7    -0.292373311748E+04   -0.11696E-04   -0.31835E-05  5792   0.523E-03    0.244E-02
DAV:   8    -0.292373313951E+04   -0.22030E-04   -0.82905E-06  5184   0.458E-03    0.115E-02
DAV:   9    -0.292373316032E+04   -0.20803E-04   -0.53116E-06  4992   0.383E-03    0.347E-03
DAV:  10    -0.292373317375E+04   -0.13434E-04   -0.27488E-06  4736   0.234E-03    0.441E-03
DAV:  11    -0.292373318165E+04   -0.78985E-05   -0.64046E-07  4832   0.997E-04
  88 F= -.29586749E+04 E0= -.29586749E+04  d E =-.239908E-01  mag=    -0.0000
       N       E                     dE             d eps       ncg     rms          rms(c)
DAV:   1    -0.292372513560E+04    0.80382E-02   -0.12981E+01  5504   0.269E+00    0.782E-01
DAV:   2    -0.292374614009E+04   -0.21004E-01   -0.25027E-01  6304   0.360E-01    0.556E-01
DAV:   3    -0.292374465049E+04    0.14896E-02   -0.42843E-03  6912   0.537E-02    0.307E-01
DAV:   4    -0.292374436384E+04    0.28666E-03   -0.20652E-03  6592   0.480E-02    0.174E-01
DAV:   5    -0.292374447617E+04   -0.11233E-03   -0.90474E-04  6528   0.301E-02    0.516E-02
DAV:   6    -0.292374448264E+04   -0.64757E-05   -0.22743E-04  6720   0.154E-02    0.300E-02
DAV:   7    -0.292374448761E+04   -0.49720E-05   -0.31919E-05  5888   0.530E-03
  89 F= -.29586888E+04 E0= -.29586888E+04  d E =-.138773E-01  mag=     0.0000
       N       E                     dE             d eps       ncg     rms          rms(c)
DAV:   1    -0.292366862330E+04    0.75859E-01   -0.46902E+01  5504   0.515E+00    0.151E+00
DAV:   2    -0.292375258381E+04   -0.83961E-01   -0.98127E-01  6272   0.691E-01    0.108E+00
DAV:   3    -0.292374714218E+04    0.54416E-02   -0.15814E-02  6976   0.103E-01    0.600E-01
DAV:   4    -0.292374561411E+04    0.15281E-02   -0.70194E-03  6560   0.878E-02    0.357E-01
DAV:   5    -0.292374590451E+04   -0.29041E-03   -0.34328E-03  6528   0.595E-02    0.977E-02
DAV:   6    -0.292374593258E+04   -0.28068E-04   -0.89024E-04  6720   0.304E-02    0.595E-02
DAV:   7    -0.292374594527E+04   -0.12689E-04   -0.13065E-04  6592   0.105E-02    0.310E-02
DAV:   8    -0.292374596883E+04   -0.23561E-04   -0.23056E-05  5632   0.756E-03    0.108E-02
DAV:   9    -0.292374599879E+04   -0.29959E-04   -0.15736E-05  5472   0.617E-03    0.462E-03
DAV:  10    -0.292374601640E+04   -0.17604E-04   -0.66627E-06  4928   0.343E-03    0.406E-03
DAV:  11    -0.292374602477E+04   -0.83696E-05   -0.12635E-06  4864   0.130E-03
  90 F= -.29586952E+04 E0= -.29586952E+04  d E =-.203135E-01  mag=     0.0000
       N       E                     dE             d eps       ncg     rms          rms(c)
DAV:   1    -0.292372877930E+04    0.17237E-01   -0.18799E+01  5504   0.327E+00    0.942E-01
DAV:   2    -0.292376297188E+04   -0.34193E-01   -0.39560E-01  6304   0.445E-01    0.670E-01
DAV:   3    -0.292376070489E+04    0.22670E-02   -0.58140E-03  6976   0.663E-02    0.361E-01
DAV:   4    -0.292376021038E+04    0.49451E-03   -0.30085E-03  6592   0.577E-02    0.216E-01
DAV:   5    -0.292376036303E+04   -0.15265E-03   -0.13600E-03  6528   0.389E-02    0.600E-02
DAV:   6    -0.292376037997E+04   -0.16936E-04   -0.38429E-04  6752   0.198E-02    0.395E-02
DAV:   7    -0.292376038852E+04   -0.85488E-05   -0.45012E-05  6112   0.638E-03
  91 F= -.29587130E+04 E0= -.29587130E+04  d E =-.177305E-01  mag=    -0.0000
       N       E                     dE             d eps       ncg     rms          rms(c)
DAV:   1    -0.292374757755E+04    0.12802E-01   -0.94984E+00  5504   0.233E+00    0.660E-01
DAV:   2    -0.292376367393E+04   -0.16096E-01   -0.18858E-01  6304   0.316E-01    0.473E-01
DAV:   3    -0.292376255822E+04    0.11157E-02   -0.28876E-03  7008   0.472E-02    0.254E-01
DAV:   4    -0.292376235857E+04    0.19965E-03   -0.15460E-03  6560   0.423E-02    0.149E-01
DAV:   5    -0.292376244803E+04   -0.89464E-04   -0.67142E-04  6464   0.281E-02    0.433E-02
DAV:   6    -0.292376246309E+04   -0.15060E-04   -0.19990E-04  6720   0.145E-02    0.285E-02
DAV:   7    -0.292376247331E+04   -0.10215E-04   -0.22674E-05  5632   0.461E-03    0.156E-02
DAV:   8    -0.292376249316E+04   -0.19856E-04   -0.67944E-06  5088   0.397E-03    0.491E-03
DAV:   9    -0.292376250986E+04   -0.16695E-04   -0.39274E-06  4992   0.315E-03    0.218E-03
DAV:  10    -0.292376252390E+04   -0.14047E-04   -0.19618E-06  4736   0.239E-03    0.189E-03
DAV:  11    -0.292376253185E+04   -0.79480E-05   -0.71813E-07  4800   0.111E-03
  92 F= -.29587175E+04 E0= -.29587175E+04  d E =-.222672E-01  mag=    -0.0000
       N       E                     dE             d eps       ncg     rms          rms(c)
DAV:   1    -0.292377182909E+04   -0.93052E-02   -0.16442E+00  5504   0.109E+00    0.347E-01
DAV:   2    -0.292377494619E+04   -0.31171E-02   -0.38153E-02  6528   0.159E-01    0.237E-01
DAV:   3    -0.292377461765E+04    0.32854E-03   -0.72035E-04  6912   0.289E-02    0.130E-01
DAV:   4    -0.292377452506E+04    0.92586E-04   -0.55595E-04  6592   0.274E-02    0.787E-02
DAV:   5    -0.292377451843E+04    0.66327E-05   -0.15386E-04  6752   0.152E-02    0.271E-02
DAV:   6    -0.292377451887E+04   -0.44511E-06   -0.57994E-05  6624   0.936E-03
  93 F= -.29587305E+04 E0= -.29587305E+04  d E =-.130026E-01  mag=    -0.0000
       N       E                     dE             d eps       ncg     rms          rms(c)
DAV:   1    -0.292377569204E+04   -0.11736E-02   -0.14272E+00  5504   0.102E+00    0.330E-01
DAV:   2    -0.292377844521E+04   -0.27532E-02   -0.33723E-02  6656   0.148E-01    0.221E-01
DAV:   3    -0.292377815863E+04    0.28658E-03   -0.62877E-04  6976   0.274E-02    0.121E-01
DAV:   4    -0.292377807158E+04    0.87056E-04   -0.48017E-04  6592   0.261E-02    0.708E-02
DAV:   5    -0.292377806388E+04    0.76960E-05   -0.13571E-04  6688   0.149E-02    0.255E-02
DAV:   6    -0.292377806517E+04   -0.12898E-05   -0.54999E-05  6560   0.924E-03
  94 F= -.29587350E+04 E0= -.29587350E+04  d E =-.174963E-01  mag=     0.0000
       N       E                     dE             d eps       ncg     rms          rms(c)
DAV:   1    -0.292378436789E+04   -0.63040E-02   -0.18835E+00  5504   0.118E+00    0.356E-01
DAV:   2    -0.292378780106E+04   -0.34332E-02   -0.42486E-02  6464   0.165E-01    0.188E-01
DAV:   3    -0.292378744205E+04    0.35901E-03   -0.82858E-04  6784   0.304E-02    0.113E-01
DAV:   4    -0.292378733457E+04    0.10748E-03   -0.46521E-04  6624   0.228E-02    0.611E-02
DAV:   5    -0.292378731923E+04    0.15338E-04   -0.14452E-04  6656   0.141E-02    0.230E-02
DAV:   6    -0.292378732016E+04   -0.92725E-06   -0.47362E-05  6496   0.876E-03
  95 F= -.29587451E+04 E0= -.29587451E+04  d E =-.101310E-01  mag=     0.0000
       N       E                     dE             d eps       ncg     rms          rms(c)
DAV:   1    -0.292378747901E+04   -0.15977E-03   -0.58196E-01  5568   0.657E-01    0.200E-01
DAV:   2    -0.292378858710E+04   -0.11081E-02   -0.13661E-02  6624   0.922E-02    0.105E-01
DAV:   3    -0.292378846770E+04    0.11940E-03   -0.25718E-04  6848   0.172E-02    0.641E-02
DAV:   4    -0.292378842563E+04    0.42074E-04   -0.14796E-04  6592   0.130E-02    0.349E-02
DAV:   5    -0.292378841908E+04    0.65502E-05   -0.48346E-05  6240   0.892E-03
  96 F= -.29587467E+04 E0= -.29587467E+04  d E =-.117176E-01  mag=     0.0000
       N       E                     dE             d eps       ncg     rms          rms(c)
DAV:   1    -0.292379329650E+04   -0.48709E-02   -0.92712E-01  5504   0.842E-01    0.230E-01
DAV:   2    -0.292379500095E+04   -0.17045E-02   -0.20448E-02  6560   0.116E-01    0.142E-01
DAV:   3    -0.292379484464E+04    0.15631E-03   -0.39270E-04  6816   0.203E-02    0.834E-02
DAV:   4    -0.292379479205E+04    0.52591E-04   -0.24760E-04  6528   0.183E-02    0.428E-02
DAV:   5    -0.292379479628E+04   -0.42269E-05   -0.79390E-05  6688   0.107E-02
  97 F= -.29587537E+04 E0= -.29587537E+04  d E =-.695148E-02  mag=     0.0000
       N       E                     dE             d eps       ncg     rms          rms(c)
DAV:   1    -0.292379571953E+04   -0.92748E-03   -0.14777E+00  5504   0.106E+00    0.290E-01
DAV:   2    -0.292379848242E+04   -0.27629E-02   -0.33214E-02  6496   0.146E-01    0.180E-01
DAV:   3    -0.292379822024E+04    0.26218E-03   -0.61563E-04  6752   0.255E-02    0.107E-01
DAV:   4    -0.292379811457E+04    0.10567E-03   -0.39331E-04  6560   0.234E-02    0.527E-02
DAV:   5    -0.292379811199E+04    0.25831E-05   -0.12894E-04  6720   0.137E-02    0.210E-02
DAV:   6    -0.292379811468E+04   -0.26929E-05   -0.40105E-05  6400   0.770E-03
  98 F= -.29587577E+04 E0= -.29587577E+04  d E =-.109960E-01  mag=     0.0000
       N       E                     dE             d eps       ncg     rms          rms(c)
DAV:   1    -0.292379792702E+04    0.18496E-03   -0.11598E-01  5568   0.298E-01    0.841E-02
DAV:   2    -0.292379813704E+04   -0.21002E-03   -0.25426E-03  6624   0.413E-02    0.487E-02
DAV:   3    -0.292379811968E+04    0.17356E-04   -0.47527E-05  6272   0.745E-03    0.280E-02
DAV:   4    -0.292379811592E+04    0.37601E-05   -0.26319E-05  5440   0.687E-03    0.143E-02
DAV:   5    -0.292379811995E+04   -0.40275E-05   -0.11346E-05  4992   0.467E-03
  99 F= -.29587579E+04 E0= -.29587579E+04  d E =-.112049E-01  mag=     0.0000
       N       E                     dE             d eps       ncg     rms          rms(c)
DAV:   1    -0.292380245181E+04   -0.43359E-02   -0.11794E+00  5504   0.939E-01    0.248E-01
[...]
 397 F= -.29590632E+04 E0= -.29590632E+04  d E =-.424494E-03  mag=    -0.0000
       N       E                     dE             d eps       ncg     rms          rms(c)
DAV:   1    -0.292406770004E+04    0.47719E-04   -0.18963E-02  5632   0.122E-01    0.339E-02
DAV:   2    -0.292406773357E+04   -0.33525E-04   -0.40616E-04  6528   0.170E-02    0.162E-02
DAV:   3    -0.292406773064E+04    0.29239E-05   -0.62894E-06  4992   0.325E-03    0.969E-03
DAV:   4    -0.292406773003E+04    0.61747E-06   -0.54845E-06  4800   0.338E-03    0.422E-03
DAV:   5    -0.292406773040E+04   -0.37363E-06   -0.25672E-06  4704   0.184E-03
 398 F= -.29590633E+04 E0= -.29590633E+04  d E =-.476240E-03  mag=    -0.0000
       N       E                     dE             d eps       ncg     rms          rms(c)
DAV:   1    -0.292406787547E+04   -0.14545E-03   -0.10813E-01  5504   0.289E-01    0.768E-02
DAV:   2    -0.292406807055E+04   -0.19508E-03   -0.22971E-03  6432   0.395E-02    0.381E-02
DAV:   3    -0.292406805413E+04    0.16418E-04   -0.36531E-05  6176   0.700E-03    0.225E-02
DAV:   4    -0.292406805056E+04    0.35662E-05   -0.28532E-05  5888   0.684E-03    0.741E-03
DAV:   5    -0.292406805149E+04   -0.92998E-06   -0.87951E-06  4928   0.321E-03
 399 F= -.29590638E+04 E0= -.29590638E+04  d E =-.472291E-03  mag=    -0.0000
       N       E                     dE             d eps       ncg     rms          rms(c)
DAV:   1    -0.292406799774E+04    0.52824E-04   -0.31950E-02  5568   0.157E-01    0.436E-02
DAV:   2    -0.292406805586E+04   -0.58120E-04   -0.68786E-04  6528   0.216E-02    0.206E-02
DAV:   3    -0.292406805090E+04    0.49595E-05   -0.97886E-06  5024   0.397E-03    0.121E-02
DAV:   4    -0.292406804986E+04    0.10392E-05   -0.10043E-05  4896   0.438E-03    0.353E-03
DAV:   5    -0.292406805032E+04   -0.45396E-06   -0.38901E-06  4768   0.210E-03
 400 F= -.29590639E+04 E0= -.29590639E+04  d E =-.553296E-03  mag=    -0.0000
       N       E                     dE             d eps       ncg     rms          rms(c)
DAV:   1    -0.292406822909E+04   -0.17923E-03   -0.13094E-01  5504   0.314E-01    0.809E-02
DAV:   2    -0.292406846582E+04   -0.23672E-03   -0.27580E-03  6464   0.426E-02    0.419E-02
DAV:   3    -0.292406844731E+04    0.18502E-04   -0.41232E-05  6176   0.748E-03    0.250E-02
DAV:   4    -0.292406844392E+04    0.33914E-05   -0.32934E-05  6048   0.751E-03    0.839E-03
DAV:   5    -0.292406844508E+04   -0.11607E-05   -0.10511E-05  5056   0.361E-03
 401 F= -.29590644E+04 E0= -.29590644E+04  d E =-.533794E-03  mag=    -0.0000
       N       E                     dE             d eps       ncg     rms          rms(c)
DAV:   1    -0.292406835617E+04    0.87756E-04   -0.41598E-02  5504   0.177E-01    0.474E-02
DAV:   2    -0.292406843190E+04   -0.75735E-04   -0.88406E-04  6464   0.242E-02    0.235E-02
DAV:   3    -0.292406842605E+04    0.58550E-05   -0.12100E-05  5184   0.443E-03    0.139E-02
DAV:   4    -0.292406842510E+04    0.94512E-06   -0.11797E-05  4928   0.496E-03    0.430E-03
DAV:   5    -0.292406842567E+04   -0.56619E-06   -0.49256E-06  4832   0.245E-03
 402 F= -.29590644E+04 E0= -.29590644E+04  d E =-.592736E-03  mag=    -0.0000
       N       E                     dE             d eps       ncg     rms          rms(c)
DAV:   1    -0.292406848260E+04   -0.57495E-04   -0.14410E-01  5504   0.330E-01    0.884E-02
DAV:   2    -0.292406873777E+04   -0.25517E-03   -0.30671E-03  6464   0.455E-02    0.471E-02
DAV:   3    -0.292406871461E+04    0.23162E-04   -0.50915E-05  6592   0.840E-03    0.289E-02
DAV:   4    -0.292406870773E+04    0.68812E-05   -0.41588E-05  6048   0.822E-03    0.109E-02
DAV:   5    -0.292406870815E+04   -0.42509E-06   -0.13171E-05  5280   0.418E-03
 403 F= -.29590649E+04 E0= -.29590649E+04  d E =-.455870E-03  mag=    -0.0000
       N       E                     dE             d eps       ncg     rms          rms(c)
DAV:   1    -0.292406867391E+04    0.33822E-04   -0.10545E-02  5696   0.894E-02    0.262E-02
DAV:   2    -0.292406869210E+04   -0.18194E-04   -0.22666E-04  6592   0.125E-02    0.127E-02
DAV:   3    -0.292406869038E+04    0.17201E-05   -0.33898E-06  4960   0.259E-03    0.772E-03
DAV:   4    -0.292406868993E+04    0.44983E-06   -0.32359E-06  4736   0.287E-03    0.340E-03
DAV:   5    -0.292406869027E+04   -0.33987E-06   -0.17536E-06  4800   0.160E-03
 404 F= -.29590649E+04 E0= -.29590649E+04  d E =-.484848E-03  mag=    -0.0000
       N       E                     dE             d eps       ncg     rms          rms(c)
DAV:   1    -0.292406874473E+04   -0.54803E-04   -0.10346E-01  5504   0.284E-01    0.778E-02
DAV:   2    -0.292406893005E+04   -0.18532E-03   -0.22184E-03  6464   0.394E-02    0.370E-02
DAV:   3    -0.292406891377E+04    0.16276E-04   -0.37493E-05  6144   0.715E-03    0.223E-02
DAV:   4    -0.292406890995E+04    0.38201E-05   -0.30160E-05  5760   0.703E-03    0.569E-03
DAV:   5    -0.292406891072E+04   -0.76147E-06   -0.87631E-06  4992   0.329E-03
 405 F= -.29590653E+04 E0= -.29590653E+04  d E =-.404312E-03  mag=     0.0000
       N       E                     dE             d eps       ncg     rms          rms(c)
DAV:   1    -0.292406887245E+04    0.37504E-04   -0.69786E-03  5696   0.737E-02    0.221E-02
DAV:   2    -0.292406888519E+04   -0.12736E-04   -0.15405E-04  6656   0.104E-02    0.963E-03
DAV:   3    -0.292406888408E+04    0.11033E-05   -0.21727E-06  4800   0.206E-03    0.569E-03
DAV:   4    -0.292406888399E+04    0.94646E-07   -0.24880E-06  4672   0.246E-03    0.147E-03
DAV:   5    -0.292406888428E+04   -0.29244E-06   -0.10983E-06  4800   0.119E-03
 406 F= -.29590654E+04 E0= -.29590654E+04  d E =-.425639E-03  mag=     0.0000
       N       E                     dE             d eps       ncg     rms          rms(c)
DAV:   1    -0.292406894906E+04   -0.65071E-04   -0.95571E-02  5504   0.273E-01    0.734E-02
DAV:   2    -0.292406911643E+04   -0.16737E-03   -0.20039E-03  6432   0.374E-02    0.342E-02
DAV:   3    -0.292406910287E+04    0.13560E-04   -0.34587E-05  6144   0.676E-03    0.209E-02
DAV:   4    -0.292406909971E+04    0.31574E-05   -0.24373E-05  5760   0.655E-03    0.581E-03
DAV:   5    -0.292406910060E+04   -0.88965E-06   -0.80774E-06  4896   0.312E-03
 407 F= -.29590658E+04 E0= -.29590658E+04  d E =-.396061E-03  mag=    -0.0000
       N       E                     dE             d eps       ncg     rms          rms(c)
DAV:   1    -0.292406903582E+04    0.63884E-04   -0.19044E-02  5568   0.122E-01    0.348E-02
DAV:   2    -0.292406906946E+04   -0.33631E-04   -0.40496E-04  6496   0.168E-02    0.152E-02
DAV:   3    -0.292406906691E+04    0.25423E-05   -0.62694E-06  4992   0.320E-03    0.932E-03
DAV:   4    -0.292406906657E+04    0.34302E-06   -0.54933E-06  4736   0.349E-03    0.293E-03
DAV:   5    -0.292406906696E+04   -0.38929E-06   -0.25140E-06  4672   0.172E-03
 408 F= -.29590658E+04 E0= -.29590658E+04  d E =-.442679E-03  mag=    -0.0000
       N       E                     dE             d eps       ncg     rms          rms(c)
DAV:   1    -0.292406908853E+04   -0.21961E-04   -0.11028E-01  5504   0.297E-01    0.789E-02
DAV:   2    -0.292406928326E+04   -0.19473E-03   -0.23541E-03  6528   0.412E-02    0.405E-02
DAV:   3    -0.292406926466E+04    0.18598E-04   -0.41907E-05  6336   0.730E-03    0.246E-02
DAV:   4    -0.292406925837E+04    0.62884E-05   -0.34996E-05  5888   0.720E-03    0.660E-03
DAV:   5    -0.292406925891E+04   -0.53766E-06   -0.86227E-06  4928   0.322E-03
 409 F= -.29590661E+04 E0= -.29590661E+04  d E =-.344300E-03  mag=    -0.0000
       N       E                     dE             d eps       ncg     rms          rms(c)
DAV:   1    -0.292406924803E+04    0.10347E-04   -0.72787E-04  6496   0.241E-02    0.873E-03
DAV:   2    -0.292406924934E+04   -0.13149E-05   -0.16202E-05  5280   0.352E-03    0.352E-03
DAV:   3    -0.292406924947E+04   -0.12753E-06   -0.71407E-07  4640   0.993E-04    0.215E-03
DAV:   4    -0.292406924981E+04   -0.33848E-06   -0.19895E-07  4704   0.811E-04    0.101E-03
DAV:   5    -0.292406925009E+04   -0.28394E-06   -0.10281E-07  4672   0.509E-04
 410 F= -.29590661E+04 E0= -.29590661E+04  d E =-.347815E-03  mag=    -0.0000
       N       E                     dE             d eps       ncg     rms          rms(c)
DAV:   1    -0.292406933866E+04   -0.88854E-04   -0.94405E-02  5504   0.277E-01    0.756E-02
DAV:   2    -0.292406950586E+04   -0.16719E-03   -0.20194E-03  6528   0.384E-02    0.360E-02
DAV:   3    -0.292406949016E+04    0.15698E-04   -0.36989E-05  6176   0.723E-03    0.221E-02
DAV:   4    -0.292406948585E+04    0.43046E-05   -0.27456E-05  5920   0.729E-03    0.564E-03
DAV:   5    -0.292406948653E+04   -0.67533E-06   -0.96403E-06  4928   0.337E-03
 411 F= -.29590665E+04 E0= -.29590665E+04  d E =-.373514E-03  mag=    -0.0000
       N       E                     dE             d eps       ncg     rms          rms(c)
DAV:   1    -0.292406945787E+04    0.27986E-04   -0.59024E-03  5696   0.692E-02    0.215E-02
DAV:   2    -0.292406946810E+04   -0.10234E-04   -0.12761E-04  6592   0.975E-03    0.893E-03
DAV:   3    -0.292406946711E+04    0.98668E-06   -0.20460E-06  4768   0.210E-03    0.569E-03
DAV:   4    -0.292406946690E+04    0.21153E-06   -0.18056E-06  4640   0.242E-03    0.211E-03
DAV:   5    -0.292406946705E+04   -0.14337E-06   -0.11583E-06  4704   0.121E-03
 412 F= -.29590665E+04 E0= -.29590665E+04  d E =-.388323E-03  mag=    -0.0000
       N       E                     dE             d eps       ncg     rms          rms(c)
DAV:   1    -0.292406948896E+04   -0.22055E-04   -0.97987E-02  5504   0.279E-01    0.710E-02
DAV:   2    -0.292406966349E+04   -0.17453E-03   -0.20837E-03  6400   0.382E-02    0.344E-02
DAV:   3    -0.292406964921E+04    0.14271E-04   -0.35276E-05  6176   0.663E-03    0.209E-02
DAV:   4    -0.292406964532E+04    0.38934E-05   -0.27067E-05  5792   0.675E-03    0.607E-03
DAV:   5    -0.292406964598E+04   -0.66159E-06   -0.79435E-06  4896   0.300E-03
 413 F= -.29590669E+04 E0= -.29590669E+04  d E =-.330420E-03  mag=    -0.0000
       N       E                     dE             d eps       ncg     rms          rms(c)
DAV:   1    -0.292406961690E+04    0.28417E-04   -0.55802E-03  5632   0.666E-02    0.191E-02
DAV:   2    -0.292406962692E+04   -0.10015E-04   -0.12215E-04  6592   0.927E-03    0.825E-03
DAV:   3    -0.292406962618E+04    0.73446E-06   -0.17926E-06  4704   0.176E-03    0.496E-03
DAV:   4    -0.292406962617E+04    0.14494E-07   -0.17919E-06  4672   0.207E-03    0.180E-03
DAV:   5    -0.292406962637E+04   -0.19651E-06   -0.80966E-07  4704   0.964E-04
 414 F= -.29590669E+04 E0= -.29590669E+04  d E =-.346946E-03  mag=    -0.0000
       N       E                     dE             d eps       ncg     rms          rms(c)
DAV:   1    -0.292406968307E+04   -0.56902E-04   -0.88159E-02  5504   0.265E-01    0.663E-02
DAV:   2    -0.292406984437E+04   -0.16129E-03   -0.18748E-03  6432   0.364E-02    0.335E-02
DAV:   3    -0.292406983209E+04    0.12277E-04   -0.28822E-05  6016   0.622E-03    0.204E-02
DAV:   4    -0.292406982887E+04    0.32216E-05   -0.26674E-05  5760   0.652E-03    0.597E-03
DAV:   5    -0.292406982942E+04   -0.55204E-06   -0.72109E-06  4928   0.291E-03
 415 F= -.29590673E+04 E0= -.29590673E+04  d E =-.375698E-03  mag=    -0.0000
       N       E                     dE             d eps       ncg     rms          rms(c)
DAV:   1    -0.292406975590E+04    0.72967E-04   -0.27049E-02  5568   0.147E-01    0.384E-02
DAV:   2    -0.292406980543E+04   -0.49527E-04   -0.58053E-04  6528   0.203E-02    0.184E-02
DAV:   3    -0.292406980156E+04    0.38655E-05   -0.80610E-06  4960   0.358E-03    0.112E-02
DAV:   4    -0.292406980051E+04    0.10540E-05   -0.93792E-06  4832   0.419E-03    0.277E-03
DAV:   5    -0.292406980088E+04   -0.37695E-06   -0.32486E-06  4800   0.191E-03
 416 F= -.29590673E+04 E0= -.29590673E+04  d E =-.442787E-03  mag=    -0.0000
       N       E                     dE             d eps       ncg     rms          rms(c)
DAV:   1    -0.292406986237E+04   -0.61865E-04   -0.98843E-02  5504   0.280E-01    0.687E-02
DAV:   2    -0.292407004371E+04   -0.18134E-03   -0.21013E-03  6400   0.385E-02    0.364E-02
DAV:   3    -0.292407003051E+04    0.13202E-04   -0.34372E-05  6112   0.666E-03    0.225E-02
DAV:   4    -0.292407002689E+04    0.36175E-05   -0.29322E-05  5856   0.713E-03    0.610E-03
DAV:   5    -0.292407002745E+04   -0.55821E-06   -0.87216E-06  4960   0.333E-03
 417 F= -.29590677E+04 E0= -.29590677E+04  d E =-.395186E-03  mag=    -0.0000
       N       E                     dE             d eps       ncg     rms          rms(c)
DAV:   1    -0.292406997499E+04    0.51904E-04   -0.20383E-02  5568   0.127E-01    0.329E-02
DAV:   2    -0.292407001391E+04   -0.38926E-04   -0.45080E-04  6528   0.177E-02    0.167E-02
DAV:   3    -0.292407001120E+04    0.27137E-05   -0.64576E-06  4928   0.319E-03    0.103E-02
DAV:   4    -0.292407001051E+04    0.69151E-06   -0.69782E-06  4800   0.385E-03    0.254E-03
DAV:   5    -0.292407001085E+04   -0.34465E-06   -0.27748E-06  4736   0.182E-03
 418 F= -.29590678E+04 E0= -.29590678E+04  d E =-.455198E-03  mag=    -0.0000
       N       E                     dE             d eps       ncg     rms          rms(c)
DAV:   1    -0.292407004550E+04   -0.34995E-04   -0.10523E-01  5504   0.288E-01    0.746E-02
DAV:   2    -0.292407023927E+04   -0.19377E-03   -0.22656E-03  6400   0.396E-02    0.364E-02
DAV:   3    -0.292407022410E+04    0.15172E-04   -0.37653E-05  6240   0.712E-03    0.233E-02
DAV:   4    -0.292407022090E+04    0.32019E-05   -0.27639E-05  5888   0.663E-03    0.846E-03
DAV:   5    -0.292407022153E+04   -0.63016E-06   -0.84885E-06  4896   0.319E-03
 419 F= -.29590682E+04 E0= -.29590682E+04  d E =-.385217E-03  mag=    -0.0000
       N       E                     dE             d eps       ncg     rms          rms(c)
DAV:   1    -0.292407017430E+04    0.46603E-04   -0.13216E-02  5568   0.102E-01    0.285E-02
DAV:   2    -0.292407019892E+04   -0.24628E-04   -0.28952E-04  6528   0.142E-02    0.128E-02
DAV:   3    -0.292407019713E+04    0.17919E-05   -0.43386E-06  4864   0.275E-03    0.876E-03
DAV:   4    -0.292407019689E+04    0.23685E-06   -0.32888E-06  4640   0.247E-03    0.385E-03
DAV:   5    -0.292407019716E+04   -0.26729E-06   -0.15237E-06  4672   0.158E-03
 420 F= -.29590682E+04 E0= -.29590682E+04  d E =-.422725E-03  mag=    -0.0000
       N       E                     dE             d eps       ncg     rms          rms(c)
DAV:   1    -0.292407020417E+04   -0.72735E-05   -0.10838E-01  5504   0.294E-01    0.752E-02
DAV:   2    -0.292407040335E+04   -0.19918E-03   -0.23044E-03  6496   0.403E-02    0.365E-02
DAV:   3    -0.292407038807E+04    0.15277E-04   -0.35226E-05  6112   0.684E-03    0.220E-02
DAV:   4    -0.292407038399E+04    0.40844E-05   -0.29452E-05  5952   0.696E-03    0.683E-03
DAV:   5    -0.292407038481E+04   -0.81793E-06   -0.85648E-06  4960   0.315E-03
 421 F= -.29590686E+04 E0= -.29590686E+04  d E =-.350650E-03  mag=    -0.0000
       N       E                     dE             d eps       ncg     rms          rms(c)
DAV:   1    -0.292407036363E+04    0.20363E-04   -0.26797E-03  5696   0.463E-02    0.141E-02
DAV:   2    -0.292407036873E+04   -0.50992E-05   -0.59451E-05  6368   0.653E-03    0.584E-03
DAV:   3    -0.292407036851E+04    0.22113E-06   -0.97983E-07  4736   0.138E-03    0.340E-03
DAV:   4    -0.292407036865E+04   -0.14267E-06   -0.85644E-07  4672   0.165E-03    0.952E-04
DAV:   5    -0.292407036882E+04   -0.16694E-06   -0.43965E-07  4736   0.773E-04
 422 F= -.29590686E+04 E0= -.29590686E+04  d E =-.360267E-03  mag=    -0.0000
       N       E                     dE             d eps       ncg     rms          rms(c)
DAV:   1    -0.292407042117E+04   -0.52526E-04   -0.69326E-02  5504   0.239E-01    0.663E-02
DAV:   2    -0.292407054890E+04   -0.12773E-03   -0.15345E-03  6464   0.335E-02    0.332E-02
DAV:   3    -0.292407053593E+04    0.12967E-04   -0.28052E-05  5824   0.623E-03    0.207E-02
DAV:   4    -0.292407053188E+04    0.40516E-05   -0.23358E-05  5696   0.638E-03    0.537E-03
DAV:   5    -0.292407053231E+04   -0.42666E-06   -0.78607E-06  4928   0.298E-03
 423 F= -.29590688E+04 E0= -.29590688E+04  d E =-.266367E-03  mag=    -0.0000
       N       E                     dE             d eps       ncg     rms          rms(c)
DAV:   1    -0.292407052698E+04    0.49039E-05   -0.19270E-04  5984   0.126E-02    0.621E-03
DAV:   2    -0.292407052735E+04   -0.37311E-06   -0.48440E-06  4736   0.207E-03    0.256E-03
DAV:   3    -0.292407052745E+04   -0.10245E-06   -0.39845E-07  4640   0.842E-04    0.208E-03
DAV:   4    -0.292407052753E+04   -0.79221E-07   -0.63214E-08  4640   0.471E-04    0.941E-04
DAV:   5    -0.292407052772E+04   -0.18615E-06    0.54357E-10  4640   0.652E-04
 424 F= -.29590688E+04 E0= -.29590688E+04  d E =-.267216E-03  mag=    -0.0000
       N       E                     dE             d eps       ncg     rms          rms(c)
DAV:   1    -0.292407059531E+04   -0.67775E-04   -0.55190E-02  5504   0.215E-01    0.620E-02
DAV:   2    -0.292407069577E+04   -0.10046E-03   -0.12247E-03  6464   0.302E-02    0.280E-02
DAV:   3    -0.292407068512E+04    0.10650E-04   -0.23377E-05  5440   0.584E-03    0.172E-02
DAV:   4    -0.292407068236E+04    0.27594E-05   -0.18549E-05  5056   0.566E-03    0.577E-03
DAV:   5    -0.292407068288E+04   -0.52055E-06   -0.66342E-06  4800   0.272E-03
 425 F= -.29590690E+04 E0= -.29590690E+04  d E =-.195499E-03  mag=    -0.0000
       N       E                     dE             d eps       ncg     rms          rms(c)
DAV:   1    -0.292407068418E+04   -0.18131E-05   -0.30456E-05  5760   0.508E-03    0.269E-03
DAV:   2    -0.292407068424E+04   -0.68336E-07   -0.10050E-06  4672   0.110E-03    0.208E-03
DAV:   3    -0.292407068430E+04   -0.60361E-07   -0.12848E-07  4576   0.502E-04    0.137E-03
DAV:   4    -0.292407068439E+04   -0.88126E-07   -0.11223E-08  4672   0.456E-04    0.470E-04
DAV:   5    -0.292407068450E+04   -0.11077E-06    0.31187E-09  4640   0.376E-04
 426 F= -.29590690E+04 E0= -.29590690E+04  d E =-.196203E-03  mag=    -0.0000
       N       E                     dE             d eps       ncg     rms          rms(c)
DAV:   1    -0.292407081644E+04   -0.13205E-03   -0.39965E-02  5504   0.183E-01    0.467E-02
DAV:   2    -0.292407088852E+04   -0.72077E-04   -0.85885E-04  6496   0.252E-02    0.233E-02
DAV:   3    -0.292407088193E+04    0.65886E-05   -0.15276E-05  5088   0.467E-03    0.146E-02
DAV:   4    -0.292407088029E+04    0.16329E-05   -0.12994E-05  4768   0.463E-03    0.440E-03
DAV:   5    -0.292407088078E+04   -0.48138E-06   -0.45991E-06  4832   0.221E-03
 427 F= -.29590692E+04 E0= -.29590692E+04  d E =-.199173E-03  mag=    -0.0000
       N       E                     dE             d eps       ncg     rms          rms(c)
DAV:   1    -0.292407088687E+04   -0.65751E-05   -0.20456E-03  5696   0.414E-02    0.121E-02
DAV:   2    -0.292407089058E+04   -0.37136E-05   -0.44794E-05  6048   0.581E-03    0.517E-03
DAV:   3    -0.292407089041E+04    0.17753E-06   -0.12292E-06  4736   0.130E-03    0.337E-03
DAV:   4    -0.292407089045E+04   -0.41444E-07   -0.56730E-07  4576   0.110E-03    0.154E-03
DAV:   5    -0.292407089055E+04   -0.10378E-06   -0.24973E-07  4640   0.626E-04
 428 F= -.29590692E+04 E0= -.29590692E+04  d E =-.209611E-03  mag=    -0.0000
       N       E                     dE             d eps       ncg     rms          rms(c)
DAV:   1    -0.292407106485E+04   -0.17441E-03   -0.31738E-02  5504   0.163E-01    0.449E-02
DAV:   2    -0.292407112331E+04   -0.58452E-04   -0.70493E-04  6400   0.230E-02    0.216E-02
DAV:   3    -0.292407111664E+04    0.66654E-05   -0.13406E-05  5120   0.462E-03    0.133E-02
DAV:   4    -0.292407111419E+04    0.24465E-05   -0.11147E-05  4736   0.468E-03    0.462E-03
DAV:   5    -0.292407111445E+04   -0.25122E-06   -0.48950E-06  4800   0.231E-03
 429 F= -.29590695E+04 E0= -.29590695E+04  d E =-.221864E-03  mag=    -0.0000
