       N       E                     dE             d eps       ncg     rms          rms(c)
DAV:   1     0.342134744632E+02    0.34213E+02   -0.11228E+03   288   0.537E+01
DAV:   2    -0.486855806814E+01   -0.39082E+02   -0.39082E+02   288   0.153E+01
DAV:   3    -0.830104579996E+01   -0.34325E+01   -0.34325E+01   240   0.559E+00
DAV:   4    -0.833754186760E+01   -0.36496E-01   -0.36496E-01   288   0.667E-01
DAV:   5    -0.833756403739E+01   -0.22170E-04   -0.22169E-04   288   0.213E-02    0.122E+01
DAV:   6    -0.258153239770E+01    0.57560E+01   -0.19441E+01   288   0.419E+00    0.102E+01
DAV:   7    -0.601676417992E+01   -0.34352E+01   -0.15484E+00   192   0.142E+00    0.612E+00
DAV:   8    -0.952280795945E+01   -0.35060E+01   -0.27822E+00   288   0.140E+00    0.194E+00
DAV:   9    -0.101905180344E+02   -0.66771E+00   -0.17841E-01   384   0.479E-01    0.977E-01
DAV:  10    -0.103743340783E+02   -0.18382E+00   -0.18912E-02   192   0.158E-01    0.517E-01
DAV:  11    -0.105013225242E+02   -0.12699E+00   -0.98076E-03   288   0.101E-01    0.429E-01
DAV:  12    -0.106565433178E+02   -0.15522E+00   -0.17835E-02   192   0.144E-01    0.293E-01
DAV:  13    -0.108061672504E+02   -0.14962E+00   -0.42114E-02   240   0.179E-01    0.194E-01
DAV:  14    -0.109336295648E+02   -0.12746E+00   -0.12671E-02   288   0.109E-01    0.162E-01
DAV:  15    -0.110664329780E+02   -0.13280E+00   -0.75166E-03   288   0.753E-02    0.105E-01
DAV:  16    -0.111261226204E+02   -0.59690E-01   -0.14232E-03   336   0.306E-02    0.884E-02
DAV:  17    -0.111614262574E+02   -0.35304E-01   -0.42981E-04   384   0.162E-02    0.679E-02
DAV:  18    -0.111854034019E+02   -0.23977E-01   -0.33785E-04   384   0.160E-02    0.472E-02
DAV:  19    -0.111915499192E+02   -0.61465E-02   -0.33738E-05   192   0.756E-03    0.363E-02
DAV:  20    -0.111950696128E+02   -0.35197E-02   -0.39438E-05   288   0.710E-03    0.244E-02
DAV:  21    -0.111982933093E+02   -0.32237E-02   -0.17862E-05   192   0.525E-03    0.167E-02
DAV:  22    -0.111988127983E+02   -0.51949E-03   -0.18654E-05   336   0.461E-03    0.126E-02
DAV:  23    -0.111984025200E+02    0.41028E-03   -0.40772E-05   240   0.603E-03    0.787E-03
DAV:  24    -0.111986270283E+02   -0.22451E-03   -0.25014E-05   192   0.543E-03    0.426E-03
DAV:  25    -0.111995491700E+02   -0.92214E-03   -0.46741E-06   192   0.254E-03    0.287E-03
DAV:  26    -0.112006540727E+02   -0.11049E-02   -0.30964E-06   288   0.178E-03    0.182E-03
DAV:  27    -0.112012707474E+02   -0.61667E-03   -0.11479E-06   288   0.112E-03    0.111E-03
DAV:  28    -0.112016064741E+02   -0.33573E-03   -0.59763E-07   288   0.762E-04    0.776E-04
DAV:  29    -0.112018750926E+02   -0.26862E-03   -0.59082E-07   288   0.583E-04    0.433E-04
DAV:  30    -0.112019775165E+02   -0.10242E-03   -0.11447E-07   240   0.344E-04    0.283E-04
DAV:  31    -0.112020176743E+02   -0.40158E-04   -0.29412E-08   384   0.208E-04    0.133E-04
DAV:  32    -0.112020379335E+02   -0.20259E-04   -0.82728E-09   192   0.132E-04    0.699E-05
DAV:  33    -0.112020464392E+02   -0.85057E-05   -0.31411E-10   384   0.864E-05
   1 F= -.11223857E+02 E0= -.11223857E+02  d E =-.112239E+02  mag=     0.0000
       N       E                     dE             d eps       ncg     rms          rms(c)
DAV:   1    -0.112020497128E+02   -0.11779E-04    0.38393E-09   288   0.467E-05    0.330E-05
DAV:   2    -0.112020501299E+02   -0.41709E-06    0.56664E-09   192   0.164E-05
   2 F= -.11223860E+02 E0= -.11223860E+02  d E =-.369078E-05  mag=     0.0000
       N       E                     dE             d eps       ncg     rms          rms(c)
DAV:   1    -0.112020503485E+02   -0.63567E-06    0.59886E-09   384   0.786E-06    0.290E-05
DAV:   2    -0.112020505763E+02   -0.22782E-06    0.61808E-09   288   0.484E-06
   3 F= -.11223861E+02 E0= -.11223861E+02  d E =-.446403E-06  mag=     0.0000
       N       E                     dE             d eps       ncg     rms          rms(c)
DAV:   1    -0.112020509141E+02   -0.56555E-06    0.67502E-09   288   0.676E-06    0.279E-05
DAV:   2    -0.112020510037E+02   -0.89637E-07    0.71668E-09   336   0.361E-06
   4 F= -.11223861E+02 E0= -.11223861E+02  d E =-.427363E-06  mag=     0.0000
       N       E                     dE             d eps       ncg     rms          rms(c)
DAV:   1    -0.112020510625E+02   -0.14849E-06    0.75356E-09   288   0.220E-06    0.276E-05
DAV:   2    -0.112020511190E+02   -0.56472E-07    0.82007E-09   288   0.162E-06
   5 F= -.11223861E+02 E0= -.11223861E+02  d E =-.115321E-06  mag=     0.0000
       N       E                     dE             d eps       ncg     rms          rms(c)
DAV:   1    -0.112020512230E+02   -0.16044E-06    0.10373E-08   288   0.319E-06    0.275E-05
DAV:   2    -0.112020512447E+02   -0.21716E-07    0.11368E-08   336   0.162E-06
   6 F= -.11223861E+02 E0= -.11223861E+02  d E =-.125688E-06  mag=     0.0000
       N       E                     dE             d eps       ncg     rms          rms(c)
DAV:   1    -0.112020512586E+02   -0.35586E-07    0.12123E-08   288   0.936E-07    0.274E-05
DAV:   2    -0.112020512730E+02   -0.14387E-07    0.13058E-08   336   0.742E-07
   7 F= -.11223861E+02 E0= -.11223861E+02  d E =-.282565E-07  mag=     0.0000
       N       E                     dE             d eps       ncg     rms          rms(c)
DAV:   1    -0.112020513041E+02   -0.45486E-07    0.16514E-08   336   0.192E-06    0.274E-05
DAV:   2    -0.112020513090E+02   -0.49849E-08    0.17455E-08   336   0.849E-07
   8 F= -.11223861E+02 E0= -.11223861E+02  d E =-.360832E-07  mag=     0.0000
       N       E                     dE             d eps       ncg     rms          rms(c)
DAV:   1    -0.112020513121E+02   -0.80418E-08    0.18004E-08   240   0.503E-07    0.274E-05
DAV:   2    -0.112020513154E+02   -0.32774E-08    0.18652E-08   336   0.428E-07
   9 F= -.11223861E+02 E0= -.11223861E+02  d E =-.633435E-08  mag=     0.0000
       N       E                     dE             d eps       ncg     rms          rms(c)
DAV:   1    -0.112020513226E+02   -0.10478E-07    0.20196E-08   336   0.108E-06    0.274E-05
DAV:   2    -0.112020513235E+02   -0.96111E-09    0.20372E-08   384   0.396E-07
  10 F= -.11223861E+02 E0= -.11223861E+02  d E =-.816203E-08  mag=     0.0000
