 Entering Gaussian System, Link 0=/apps/GAU16/avx2/g16/g16
 Initial command:
 /apps/GAU16/avx2//g16/l1.exe "/localscratch/chegho/Gau-34729.inp" -scrdir="/localscratch/chegho/"
 Entering Link 1 = /apps/GAU16/avx2//g16/l1.exe PID=     34730.
  
 Copyright (c) 1988-2019, Gaussian, Inc.  All Rights Reserved.
  
 This is part of the Gaussian(R) 16 program.  It is based on
 the Gaussian(R) 09 system (copyright 2009, Gaussian, Inc.),
 the Gaussian(R) 03 system (copyright 2003, Gaussian, Inc.),
 the Gaussian(R) 98 system (copyright 1998, Gaussian, Inc.),
 the Gaussian(R) 94 system (copyright 1995, Gaussian, Inc.),
 the Gaussian 92(TM) system (copyright 1992, Gaussian, Inc.),
 the Gaussian 90(TM) system (copyright 1990, Gaussian, Inc.),
 the Gaussian 88(TM) system (copyright 1988, Gaussian, Inc.),
 the Gaussian 86(TM) system (copyright 1986, Carnegie Mellon
 University), and the Gaussian 82(TM) system (copyright 1983,
 Carnegie Mellon University). Gaussian is a federally registered
 trademark of Gaussian, Inc.
  
 This software contains proprietary and confidential information,
 including trade secrets, belonging to Gaussian, Inc.
  
 This software is provided under written license and may be
 used, copied, transmitted, or stored only in accord with that
 written license.
  
 The following legend is applicable only to US Government
 contracts under FAR:
  
                    RESTRICTED RIGHTS LEGEND
  
 Use, reproduction and disclosure by the US Government is
 subject to restrictions as set forth in subparagraphs (a)
 and (c) of the Commercial Computer Software - Restricted
 Rights clause in FAR 52.227-19.
  
 Gaussian, Inc.
 340 Quinnipiac St., Bldg. 40, Wallingford CT 06492
  
  
 ---------------------------------------------------------------
 Warning -- This program may not be used in any manner that
 competes with the business of Gaussian, Inc. or will provide
 assistance to any competitor of Gaussian, Inc.  The licensee
 of this program is prohibited from giving any competitor of
 Gaussian, Inc. access to this program.  By using this program,
 the user acknowledges that Gaussian, Inc. is engaged in the
 business of creating and licensing software in the field of
 computational chemistry and represents and warrants to the
 licensee that it is not a competitor of Gaussian, Inc. and that
 it will not use this program in any manner prohibited above.
 ---------------------------------------------------------------
  

 Cite this work as:
 Gaussian 16, Revision C.01,
 M. J. Frisch, G. W. Trucks, H. B. Schlegel, G. E. Scuseria, 
 M. A. Robb, J. R. Cheeseman, G. Scalmani, V. Barone, 
 G. A. Petersson, H. Nakatsuji, X. Li, M. Caricato, A. V. Marenich, 
 J. Bloino, B. G. Janesko, R. Gomperts, B. Mennucci, H. P. Hratchian, 
 J. V. Ortiz, A. F. Izmaylov, J. L. Sonnenberg, D. Williams-Young, 
 F. Ding, F. Lipparini, F. Egidi, J. Goings, B. Peng, A. Petrone, 
 T. Henderson, D. Ranasinghe, V. G. Zakrzewski, J. Gao, N. Rega, 
 G. Zheng, W. Liang, M. Hada, M. Ehara, K. Toyota, R. Fukuda, 
 J. Hasegawa, M. Ishida, T. Nakajima, Y. Honda, O. Kitao, H. Nakai, 
 T. Vreven, K. Throssell, J. A. Montgomery, Jr., J. E. Peralta, 
 F. Ogliaro, M. J. Bearpark, J. J. Heyd, E. N. Brothers, K. N. Kudin, 
 V. N. Staroverov, T. A. Keith, R. Kobayashi, J. Normand, 
 K. Raghavachari, A. P. Rendell, J. C. Burant, S. S. Iyengar, 
 J. Tomasi, M. Cossi, J. M. Millam, M. Klene, C. Adamo, R. Cammi, 
 J. W. Ochterski, R. L. Martin, K. Morokuma, O. Farkas, 
 J. B. Foresman, and D. J. Fox, Gaussian, Inc., Wallingford CT, 2019.
 
 ******************************************
 Gaussian 16:  ES64L-G16RevC.01  3-Jul-2019
                22-Feb-2023 
 ******************************************
 %nprocshared=48
 Will use up to   48 processors via shared memory.
 %chk=Mo19S45_min.chk
 %mem=100GB
 ---------------------------------------------------------
 # opt freq b3lyp/gen nosymm pseudo=read scf=maxcycles=500
 ---------------------------------------------------------
 1/18=20,19=15,26=3,38=1/1,3;
 2/9=110,12=2,15=1,17=6,18=5,40=1/2;
 3/5=7,11=2,16=1,17=8,25=1,30=1,71=1,74=-5/1,2,3;
 4//1;
 5/5=2,7=500,38=5/2;
 6/7=2,8=2,9=2,10=2,28=1/1;
 7/30=1/1,2,3,16;
 1/18=20,19=15,26=3/3(2);
 2/9=110,15=1/2;
 99//99;
 2/9=110,15=1/2;
 3/5=7,6=1,11=2,16=1,17=8,25=1,30=1,71=1,74=-5,82=7/1,2,3;
 4/5=5,16=3,69=1/1;
 5/5=2,7=500,38=5/2;
 7/30=1/1,2,3,16;
 1/18=20,19=15,26=3/3(-5);
 2/9=110,15=1/2;
 6/7=2,8=2,9=2,10=2,19=2,28=1/1;
 99/9=1/99;
 -------------------
 Title Card Required
 -------------------
 Symbolic Z-matrix:
 Charge =  0 Multiplicity = 1
 42                    0.37281   1.28164   12.57903 
 16                    2.3845    2.24994   13.58023 
 16                   -0.66363   1.97476   14.79582 
 16                   -0.44435   0.94127   10.31167 
 16                    1.98508  -0.4511    11.9874 
 42                   -2.01101   2.66492   10.97692 
 16                   -2.84805   2.42804   8.68884 
 16                   -0.0286    3.59262   12.0036 
 42                    0.98384   2.87257   9.89241 
 16                    0.14574   2.59726   7.60303 
 16                    2.56865   1.11561   9.26743 
 42                    3.41833   1.45424   11.5222 
 42                   -1.41026   4.33795   8.2804 
 16                    5.53738   2.45039   12.5769 
 16                    3.04138   3.76271   10.88575 
 16                   -2.33869   5.01943   10.42479 
 16                    1.24888   6.87791   6.53021 
 42                   -4.34085   4.1411    9.48352 
 16                   -5.8417    2.10055   9.66799 
 16                   -5.42267   4.71929   11.43558 
 42                    2.65623  -0.02379   14.26191 
 16                    4.91553   0.34242   15.3205 
 16                    1.73826   0.60377   16.30111 
 42                    1.61012   4.47343   7.21631 
 16                    0.83735   4.36536   4.83946 
 16                    0.62806   5.21561   9.29431 
 42                    4.03385   2.99376   8.80802 
 16                    3.15053   2.69849   6.56688 
 16                    3.67413   5.3114    8.2037 
 42                    4.59735   4.55967   6.09847 
 16                    6.92382   5.16775   6.63035 
 16                    4.38033   7.01869   5.66573 
 42                    2.58015   6.18667   4.57945 
 16                    3.84428   4.28762   3.87424 
 16                   -1.18836   7.17304   3.91941 
 42                   -0.85544   5.98061   5.63183 
 16                   -2.29756   4.05137   5.87904 
 16                   -1.74447   6.84105   7.70995 
 42                   -3.59083   5.90024   6.60091 
 16                   -5.61002   4.62445   7.39361 
 16                   -4.39137   7.09706   5.05976 
 42                   -5.15829   2.2819    11.79134 
 16                   -3.22459   3.26943   13.09038 
 16                   -3.44632   0.62594   11.48779 
 42                   -2.57321   0.99393   13.77256 
 16                   -1.10787  -0.74044   13.02906 
 16                   -4.03434   0.33333   15.14636 
 42                   -0.22498  -0.41621   15.25829 
 16                    1.34677  -2.05815   14.62365 
 16                   -1.27166  -1.31403   16.8664 
 42                    5.89153   0.17901   13.04485 
 16                    5.05028  -0.4335    10.93805 
 16                    8.42372   1.08622   10.63395 
 42                    6.36754   1.57938   10.44081 
 16                    5.61756   1.08978   8.15327 
 16                    6.21647   3.92588   9.75588 
 42                    7.04908   2.92158   7.77347 
 16                    9.12984   2.53214   7.75298 
 16                    2.3472    7.41741   2.87125 
 16                    7.89326  -0.36922   13.47515 
 16                   -6.79947   1.63614   12.96563 
 16                   -5.09654   6.33488   8.52627 
 16                    4.6556   -1.52861   14.37838 
 16                    6.48492   3.02917   5.41412 
 

 GradGradGradGradGradGradGradGradGradGradGradGradGradGradGradGradGradGrad
 Berny optimization.
 Initialization pass.
                           ----------------------------
                           !    Initial Parameters    !
                           ! (Angstroms and Degrees)  !
 --------------------------                            --------------------------
 ! Name  Definition              Value          Derivative Info.                !
 --------------------------------------------------------------------------------
 ! R1    R(1,2)                  2.4468         estimate D2E/DX2                !
 ! R2    R(1,3)                  2.5434         estimate D2E/DX2                !
 ! R3    R(1,4)                  2.434          estimate D2E/DX2                !
 ! R4    R(1,5)                  2.4396         estimate D2E/DX2                !
 ! R5    R(1,8)                  2.4151         estimate D2E/DX2                !
 ! R6    R(1,46)                 2.5463         estimate D2E/DX2                !
 ! R7    R(2,12)                 2.4367         estimate D2E/DX2                !
 ! R8    R(2,21)                 2.3892         estimate D2E/DX2                !
 ! R9    R(3,45)                 2.3782         estimate D2E/DX2                !
 ! R10   R(3,48)                 2.4745         estimate D2E/DX2                !
 ! R11   R(4,6)                  2.4224         estimate D2E/DX2                !
 ! R12   R(4,9)                  2.4383         estimate D2E/DX2                !
 ! R13   R(5,12)                 2.4292         estimate D2E/DX2                !
 ! R14   R(5,21)                 2.4096         estimate D2E/DX2                !
 ! R15   R(6,7)                  2.4479         estimate D2E/DX2                !
 ! R16   R(6,8)                  2.4176         estimate D2E/DX2                !
 ! R17   R(6,16)                 2.4405         estimate D2E/DX2                !
 ! R18   R(6,43)                 2.511          estimate D2E/DX2                !
 ! R19   R(6,44)                 2.5453         estimate D2E/DX2                !
 ! R20   R(7,13)                 2.4253         estimate D2E/DX2                !
 ! R21   R(7,18)                 2.4072         estimate D2E/DX2                !
 ! R22   R(8,9)                  2.4496         estimate D2E/DX2                !
 ! R23   R(9,10)                 2.4535         estimate D2E/DX2                !
 ! R24   R(9,11)                 2.4473         estimate D2E/DX2                !
 ! R25   R(9,15)                 2.4521         estimate D2E/DX2                !
 ! R26   R(9,26)                 2.4442         estimate D2E/DX2                !
 ! R27   R(10,13)                2.431          estimate D2E/DX2                !
 ! R28   R(10,24)                2.4112         estimate D2E/DX2                !
 ! R29   R(11,12)                2.4332         estimate D2E/DX2                !
 ! R30   R(11,27)                2.426          estimate D2E/DX2                !
 ! R31   R(12,14)                2.5681         estimate D2E/DX2                !
 ! R32   R(12,15)                2.4241         estimate D2E/DX2                !
 ! R33   R(12,52)                2.5628         estimate D2E/DX2                !
 ! R34   R(13,16)                2.4341         estimate D2E/DX2                !
 ! R35   R(13,26)                2.4399         estimate D2E/DX2                !
 ! R36   R(13,37)                2.576          estimate D2E/DX2                !
 ! R37   R(13,38)                2.5889         estimate D2E/DX2                !
 ! R38   R(14,51)                2.346          estimate D2E/DX2                !
 ! R39   R(14,54)                2.4517         estimate D2E/DX2                !
 ! R40   R(15,27)                2.4276         estimate D2E/DX2                !
 ! R41   R(16,18)                2.3803         estimate D2E/DX2                !
 ! R42   R(17,24)                2.5264         estimate D2E/DX2                !
 ! R43   R(17,33)                2.4608         estimate D2E/DX2                !
 ! R44   R(17,36)                2.4577         estimate D2E/DX2                !
 ! R45   R(18,19)                2.5398         estimate D2E/DX2                !
 ! R46   R(18,20)                2.3055         estimate D2E/DX2                !
 ! R47   R(18,40)                2.4924         estimate D2E/DX2                !
 ! R48   R(18,42)                3.0742         estimate D2E/DX2                !
 ! R49   R(18,62)                2.51           estimate D2E/DX2                !
 ! R50   R(19,42)                2.238          estimate D2E/DX2                !
 ! R51   R(20,42)                2.4774         estimate D2E/DX2                !
 ! R52   R(21,22)                2.5217         estimate D2E/DX2                !
 ! R53   R(21,23)                2.3227         estimate D2E/DX2                !
 ! R54   R(21,48)                3.0738         estimate D2E/DX2                !
 ! R55   R(21,49)                2.4463         estimate D2E/DX2                !
 ! R56   R(21,63)                2.5051         estimate D2E/DX2                !
 ! R57   R(22,51)                2.4815         estimate D2E/DX2                !
 ! R58   R(22,63)                2.1109         estimate D2E/DX2                !
 ! R59   R(23,48)                2.4458         estimate D2E/DX2                !
 ! R60   R(24,25)                2.5017         estimate D2E/DX2                !
 ! R61   R(24,26)                2.4152         estimate D2E/DX2                !
 ! R62   R(24,28)                2.4382         estimate D2E/DX2                !
 ! R63   R(24,29)                2.4367         estimate D2E/DX2                !
 ! R64   R(25,33)                2.5342         estimate D2E/DX2                !
 ! R65   R(25,36)                2.4703         estimate D2E/DX2                !
 ! R66   R(27,28)                2.427          estimate D2E/DX2                !
 ! R67   R(27,29)                2.422          estimate D2E/DX2                !
 ! R68   R(27,55)                2.5616         estimate D2E/DX2                !
 ! R69   R(27,56)                2.5556         estimate D2E/DX2                !
 ! R70   R(28,30)                2.4035         estimate D2E/DX2                !
 ! R71   R(29,30)                2.4186         estimate D2E/DX2                !
 ! R72   R(30,31)                2.4627         estimate D2E/DX2                !
 ! R73   R(30,32)                2.5062         estimate D2E/DX2                !
 ! R74   R(30,33)                3.0039         estimate D2E/DX2                !
 ! R75   R(30,34)                2.364          estimate D2E/DX2                !
 ! R76   R(30,64)                2.5246         estimate D2E/DX2                !
 ! R77   R(31,57)                2.5234         estimate D2E/DX2                !
 ! R78   R(32,33)                2.2612         estimate D2E/DX2                !
 ! R79   R(33,34)                2.3878         estimate D2E/DX2                !
 ! R80   R(33,59)                2.1182         estimate D2E/DX2                !
 ! R81   R(35,36)                2.1131         estimate D2E/DX2                !
 ! R82   R(36,37)                2.4213         estimate D2E/DX2                !
 ! R83   R(36,38)                2.4185         estimate D2E/DX2                !
 ! R84   R(36,39)                2.9031         estimate D2E/DX2                !
 ! R85   R(37,39)                2.369          estimate D2E/DX2                !
 ! R86   R(38,39)                2.3503         estimate D2E/DX2                !
 ! R87   R(39,40)                2.5166         estimate D2E/DX2                !
 ! R88   R(39,41)                2.1091         estimate D2E/DX2                !
 ! R89   R(39,62)                2.4826         estimate D2E/DX2                !
 ! R90   R(40,62)                2.1147         estimate D2E/DX2                !
 ! R91   R(42,43)                2.5302         estimate D2E/DX2                !
 ! R92   R(42,44)                2.4011         estimate D2E/DX2                !
 ! R93   R(42,61)                2.1188         estimate D2E/DX2                !
 ! R94   R(43,45)                2.4632         estimate D2E/DX2                !
 ! R95   R(44,45)                2.4734         estimate D2E/DX2                !
 ! R96   R(45,46)                2.3892         estimate D2E/DX2                !
 ! R97   R(45,47)                2.1115         estimate D2E/DX2                !
 ! R98   R(45,48)                3.1161         estimate D2E/DX2                !
 ! R99   R(46,48)                2.4195         estimate D2E/DX2                !
 ! R100  R(48,49)                2.3599         estimate D2E/DX2                !
 ! R101  R(48,50)                2.1184         estimate D2E/DX2                !
 ! R102  R(51,52)                2.3498         estimate D2E/DX2                !
 ! R103  R(51,54)                2.9948         estimate D2E/DX2                !
 ! R104  R(51,60)                2.1196         estimate D2E/DX2                !
 ! R105  R(51,63)                2.4944         estimate D2E/DX2                !
 ! R106  R(52,54)                2.4564         estimate D2E/DX2                !
 ! R107  R(53,54)                2.1233         estimate D2E/DX2                !
 ! R108  R(54,55)                2.4566         estimate D2E/DX2                !
 ! R109  R(54,56)                2.4491         estimate D2E/DX2                !
 ! R110  R(54,57)                3.0628         estimate D2E/DX2                !
 ! R111  R(55,57)                2.3556         estimate D2E/DX2                !
 ! R112  R(56,57)                2.3731         estimate D2E/DX2                !
 ! R113  R(57,58)                2.117          estimate D2E/DX2                !
 ! R114  R(57,64)                2.4283         estimate D2E/DX2                !
 ! A1    A(2,1,3)               82.562          estimate D2E/DX2                !
 ! A2    A(2,1,4)              135.4406         estimate D2E/DX2                !
 ! A3    A(2,1,5)               80.6165         estimate D2E/DX2                !
 ! A4    A(2,1,8)               81.6899         estimate D2E/DX2                !
 ! A5    A(2,1,46)             136.0572         estimate D2E/DX2                !
 ! A6    A(3,1,4)              135.4969         estimate D2E/DX2                !
 ! A7    A(3,1,5)              132.3941         estimate D2E/DX2                !
 ! A8    A(3,1,8)               83.0599         estimate D2E/DX2                !
 ! A9    A(3,1,46)              79.9452         estimate D2E/DX2                !
 ! A10   A(4,1,5)               84.0676         estimate D2E/DX2                !
 ! A11   A(4,1,8)               81.7245         estimate D2E/DX2                !
 ! A12   A(4,1,46)              81.8575         estimate D2E/DX2                !
 ! A13   A(5,1,8)              137.027          estimate D2E/DX2                !
 ! A14   A(5,1,46)              82.1333         estimate D2E/DX2                !
 ! A15   A(8,1,46)             134.8565         estimate D2E/DX2                !
 ! A16   A(1,2,12)              82.7614         estimate D2E/DX2                !
 ! A17   A(1,2,21)              80.424          estimate D2E/DX2                !
 ! A18   A(12,2,21)             83.2208         estimate D2E/DX2                !
 ! A19   A(1,3,45)              80.7808         estimate D2E/DX2                !
 ! A20   A(1,3,48)              80.0573         estimate D2E/DX2                !
 ! A21   A(1,4,6)               82.0563         estimate D2E/DX2                !
 ! A22   A(1,4,9)               81.5337         estimate D2E/DX2                !
 ! A23   A(6,4,9)               82.0934         estimate D2E/DX2                !
 ! A24   A(1,5,12)              83.0661         estimate D2E/DX2                !
 ! A25   A(1,5,21)              80.1665         estimate D2E/DX2                !
 ! A26   A(12,5,21)             82.9542         estimate D2E/DX2                !
 ! A27   A(4,6,7)               84.007          estimate D2E/DX2                !
 ! A28   A(4,6,8)               81.914          estimate D2E/DX2                !
 ! A29   A(4,6,16)             135.3319         estimate D2E/DX2                !
 ! A30   A(4,6,43)             135.646          estimate D2E/DX2                !
 ! A31   A(4,6,44)              81.3624         estimate D2E/DX2                !
 ! A32   A(7,6,8)              135.6009         estimate D2E/DX2                !
 ! A33   A(7,6,16)              80.5596         estimate D2E/DX2                !
 ! A34   A(7,6,43)             130.1495         estimate D2E/DX2                !
 ! A35   A(7,6,44)              85.254          estimate D2E/DX2                !
 ! A36   A(8,6,16)              80.5589         estimate D2E/DX2                !
 ! A37   A(8,6,43)              86.9325         estimate D2E/DX2                !
 ! A38   A(8,6,44)             133.2014         estimate D2E/DX2                !
 ! A39   A(16,6,43)             83.8728         estimate D2E/DX2                !
 ! A40   A(16,6,44)            137.9492         estimate D2E/DX2                !
 ! A41   A(43,6,44)             75.604          estimate D2E/DX2                !
 ! A42   A(6,7,13)              83.0207         estimate D2E/DX2                !
 ! A43   A(6,7,18)              80.4799         estimate D2E/DX2                !
 ! A44   A(13,7,18)             82.1149         estimate D2E/DX2                !
 ! A45   A(1,8,6)               82.547          estimate D2E/DX2                !
 ! A46   A(1,8,9)               81.6848         estimate D2E/DX2                !
 ! A47   A(6,8,9)               81.9585         estimate D2E/DX2                !
 ! A48   A(4,9,8)               80.9411         estimate D2E/DX2                !
 ! A49   A(4,9,10)              82.6162         estimate D2E/DX2                !
 ! A50   A(4,9,11)              81.6381         estimate D2E/DX2                !
 ! A51   A(4,9,15)             135.1831         estimate D2E/DX2                !
 ! A52   A(4,9,26)             135.7332         estimate D2E/DX2                !
 ! A53   A(8,9,10)             134.1077         estimate D2E/DX2                !
 ! A54   A(8,9,11)             134.3287         estimate D2E/DX2                !
 ! A55   A(8,9,15)              83.7399         estimate D2E/DX2                !
 ! A56   A(8,9,26)              82.47           estimate D2E/DX2                !
 ! A57   A(10,9,11)             84.3965         estimate D2E/DX2                !
 ! A58   A(10,9,15)            134.861          estimate D2E/DX2                !
 ! A59   A(10,9,26)             80.1838         estimate D2E/DX2                !
 ! A60   A(11,9,15)             79.6699         estimate D2E/DX2                !
 ! A61   A(11,9,26)            136.053          estimate D2E/DX2                !
 ! A62   A(15,9,26)             82.7195         estimate D2E/DX2                !
 ! A63   A(9,10,13)             83.0095         estimate D2E/DX2                !
 ! A64   A(9,10,24)             81.6561         estimate D2E/DX2                !
 ! A65   A(13,10,24)            82.8922         estimate D2E/DX2                !
 ! A66   A(9,11,12)             83.6601         estimate D2E/DX2                !
 ! A67   A(9,11,27)             83.3197         estimate D2E/DX2                !
 ! A68   A(12,11,27)            81.7691         estimate D2E/DX2                !
 ! A69   A(2,12,5)              81.0285         estimate D2E/DX2                !
 ! A70   A(2,12,11)            132.8397         estimate D2E/DX2                !
 ! A71   A(2,12,14)             82.9088         estimate D2E/DX2                !
 ! A72   A(2,12,15)             81.0717         estimate D2E/DX2                !
 ! A73   A(2,12,52)            134.6856         estimate D2E/DX2                !
 ! A74   A(5,12,11)             82.0836         estimate D2E/DX2                !
 ! A75   A(5,12,14)            135.4342         estimate D2E/DX2                !
 ! A76   A(5,12,15)            134.8682         estimate D2E/DX2                !
 ! A77   A(5,12,52)             80.8867         estimate D2E/DX2                !
 ! A78   A(11,12,14)           136.2772         estimate D2E/DX2                !
 ! A79   A(11,12,15)            80.4991         estimate D2E/DX2                !
 ! A80   A(11,12,52)            84.7577         estimate D2E/DX2                !
 ! A81   A(14,12,15)            82.3422         estimate D2E/DX2                !
 ! A82   A(14,12,52)            81.5987         estimate D2E/DX2                !
 ! A83   A(15,12,52)           137.7851         estimate D2E/DX2                !
 ! A84   A(7,13,10)             82.0964         estimate D2E/DX2                !
 ! A85   A(7,13,16)             81.1403         estimate D2E/DX2                !
 ! A86   A(7,13,26)            135.118          estimate D2E/DX2                !
 ! A87   A(7,13,37)             82.2518         estimate D2E/DX2                !
 ! A88   A(7,13,38)            136.218          estimate D2E/DX2                !
 ! A89   A(10,13,16)           133.6357         estimate D2E/DX2                !
 ! A90   A(10,13,26)            80.7141         estimate D2E/DX2                !
 ! A91   A(10,13,37)            83.1694         estimate D2E/DX2                !
 ! A92   A(10,13,38)           135.5219         estimate D2E/DX2                !
 ! A93   A(16,13,26)            81.4801         estimate D2E/DX2                !
 ! A94   A(16,13,37)           136.1379         estimate D2E/DX2                !
 ! A95   A(16,13,38)            82.7726         estimate D2E/DX2                !
 ! A96   A(26,13,37)           135.6555         estimate D2E/DX2                !
 ! A97   A(26,13,38)            81.4673         estimate D2E/DX2                !
 ! A98   A(37,13,38)            81.8188         estimate D2E/DX2                !
 ! A99   A(12,14,51)            80.2659         estimate D2E/DX2                !
 ! A100  A(12,14,54)            77.5123         estimate D2E/DX2                !
 ! A101  A(9,15,12)             83.7502         estimate D2E/DX2                !
 ! A102  A(9,15,27)             83.1852         estimate D2E/DX2                !
 ! A103  A(12,15,27)            81.9227         estimate D2E/DX2                !
 ! A104  A(6,16,13)             82.9919         estimate D2E/DX2                !
 ! A105  A(6,16,18)             81.1648         estimate D2E/DX2                !
 ! A106  A(13,16,18)            82.4814         estimate D2E/DX2                !
 ! A107  A(24,17,33)            82.5641         estimate D2E/DX2                !
 ! A108  A(24,17,36)            82.7742         estimate D2E/DX2                !
 ! A109  A(33,17,36)            94.0641         estimate D2E/DX2                !
 ! A110  A(7,18,16)             82.6184         estimate D2E/DX2                !
 ! A111  A(7,18,19)             79.5532         estimate D2E/DX2                !
 ! A112  A(7,18,20)            138.5033         estimate D2E/DX2                !
 ! A113  A(7,18,40)            100.1937         estimate D2E/DX2                !
 ! A114  A(7,18,42)             88.9881         estimate D2E/DX2                !
 ! A115  A(7,18,62)            133.0625         estimate D2E/DX2                !
 ! A116  A(16,18,19)           139.8882         estimate D2E/DX2                !
 ! A117  A(16,18,20)            88.128          estimate D2E/DX2                !
 ! A118  A(16,18,40)           133.4976         estimate D2E/DX2                !
 ! A119  A(16,18,42)            98.6245         estimate D2E/DX2                !
 ! A120  A(16,18,62)            94.6773         estimate D2E/DX2                !
 ! A121  A(19,18,20)            82.1086         estimate D2E/DX2                !
 ! A122  A(19,18,40)            85.1698         estimate D2E/DX2                !
 ! A123  A(19,18,62)           123.5046         estimate D2E/DX2                !
 ! A124  A(20,18,40)           114.9856         estimate D2E/DX2                !
 ! A125  A(20,18,62)            87.8476         estimate D2E/DX2                !
 ! A126  A(40,18,42)           127.687          estimate D2E/DX2                !
 ! A127  A(42,18,62)           137.2923         estimate D2E/DX2                !
 ! A128  A(2,21,5)              82.4017         estimate D2E/DX2                !
 ! A129  A(2,21,22)             94.7878         estimate D2E/DX2                !
 ! A130  A(2,21,23)             87.0431         estimate D2E/DX2                !
 ! A131  A(2,21,48)             96.164          estimate D2E/DX2                !
 ! A132  A(2,21,49)            140.6            estimate D2E/DX2                !
 ! A133  A(2,21,63)            132.5088         estimate D2E/DX2                !
 ! A134  A(5,21,22)            132.1859         estimate D2E/DX2                !
 ! A135  A(5,21,23)            140.0446         estimate D2E/DX2                !
 ! A136  A(5,21,48)             91.2754         estimate D2E/DX2                !
 ! A137  A(5,21,49)             80.9682         estimate D2E/DX2                !
 ! A138  A(5,21,63)             99.1873         estimate D2E/DX2                !
 ! A139  A(22,21,23)            86.9217         estimate D2E/DX2                !
 ! A140  A(22,21,48)           136.2415         estimate D2E/DX2                !
 ! A141  A(22,21,49)           122.5664         estimate D2E/DX2                !
 ! A142  A(23,21,49)            83.2985         estimate D2E/DX2                !
 ! A143  A(23,21,63)           115.9072         estimate D2E/DX2                !
 ! A144  A(48,21,63)           131.0225         estimate D2E/DX2                !
 ! A145  A(49,21,63)            85.4572         estimate D2E/DX2                !
 ! A146  A(21,22,51)            87.5842         estimate D2E/DX2                !
 ! A147  A(10,24,17)           134.2079         estimate D2E/DX2                !
 ! A148  A(10,24,25)            86.0531         estimate D2E/DX2                !
 ! A149  A(10,24,26)            81.6146         estimate D2E/DX2                !
 ! A150  A(10,24,28)            81.9509         estimate D2E/DX2                !
 ! A151  A(10,24,29)           135.8107         estimate D2E/DX2                !
 ! A152  A(17,24,25)            74.8661         estimate D2E/DX2                !
 ! A153  A(17,24,26)            83.2839         estimate D2E/DX2                !
 ! A154  A(17,24,28)           135.3025         estimate D2E/DX2                !
 ! A155  A(17,24,29)            84.4831         estimate D2E/DX2                !
 ! A156  A(25,24,26)           134.8393         estimate D2E/DX2                !
 ! A157  A(25,24,28)            84.8736         estimate D2E/DX2                !
 ! A158  A(25,24,29)           131.4163         estimate D2E/DX2                !
 ! A159  A(26,24,28)           135.2137         estimate D2E/DX2                !
 ! A160  A(26,24,29)            83.6908         estimate D2E/DX2                !
 ! A161  A(28,24,29)            79.8124         estimate D2E/DX2                !
 ! A162  A(24,25,33)            81.6046         estimate D2E/DX2                !
 ! A163  A(24,25,36)            83.0315         estimate D2E/DX2                !
 ! A164  A(33,25,36)            91.9621         estimate D2E/DX2                !
 ! A165  A(9,26,13)             83.0193         estimate D2E/DX2                !
 ! A166  A(9,26,24)             81.7655         estimate D2E/DX2                !
 ! A167  A(13,26,24)            82.6241         estimate D2E/DX2                !
 ! A168  A(11,27,15)            80.5743         estimate D2E/DX2                !
 ! A169  A(11,27,28)            82.0019         estimate D2E/DX2                !
 ! A170  A(11,27,29)           134.297          estimate D2E/DX2                !
 ! A171  A(11,27,55)            81.1627         estimate D2E/DX2                !
 ! A172  A(11,27,56)           136.7153         estimate D2E/DX2                !
 ! A173  A(15,27,28)           132.8503         estimate D2E/DX2                !
 ! A174  A(15,27,29)            81.3573         estimate D2E/DX2                !
 ! A175  A(15,27,55)           134.9874         estimate D2E/DX2                !
 ! A176  A(15,27,56)            85.1924         estimate D2E/DX2                !
 ! A177  A(28,27,29)            80.3258         estimate D2E/DX2                !
 ! A178  A(28,27,55)            84.1777         estimate D2E/DX2                !
 ! A179  A(28,27,56)           134.2438         estimate D2E/DX2                !
 ! A180  A(29,27,55)           137.6709         estimate D2E/DX2                !
 ! A181  A(29,27,56)            82.5517         estimate D2E/DX2                !
 ! A182  A(55,27,56)            80.6705         estimate D2E/DX2                !
 ! A183  A(24,28,27)            83.9969         estimate D2E/DX2                !
 ! A184  A(24,28,30)            82.4439         estimate D2E/DX2                !
 ! A185  A(27,28,30)            82.3373         estimate D2E/DX2                !
 ! A186  A(24,29,27)            84.1359         estimate D2E/DX2                !
 ! A187  A(24,29,30)            82.1678         estimate D2E/DX2                !
 ! A188  A(27,29,30)            82.1297         estimate D2E/DX2                !
 ! A189  A(28,30,29)            80.8665         estimate D2E/DX2                !
 ! A190  A(28,30,31)           135.8707         estimate D2E/DX2                !
 ! A191  A(28,30,32)           137.8432         estimate D2E/DX2                !
 ! A192  A(28,30,33)            96.5307         estimate D2E/DX2                !
 ! A193  A(28,30,34)            84.404          estimate D2E/DX2                !
 ! A194  A(28,30,64)            91.917          estimate D2E/DX2                !
 ! A195  A(29,30,31)            95.5012         estimate D2E/DX2                !
 ! A196  A(29,30,32)            79.18           estimate D2E/DX2                !
 ! A197  A(29,30,33)            90.8872         estimate D2E/DX2                !
 ! A198  A(29,30,34)           137.1521         estimate D2E/DX2                !
 ! A199  A(29,30,64)           135.2174         estimate D2E/DX2                !
 ! A200  A(31,30,32)            82.9251         estimate D2E/DX2                !
 ! A201  A(31,30,33)           127.5777         estimate D2E/DX2                !
 ! A202  A(31,30,34)           122.1782         estimate D2E/DX2                !
 ! A203  A(31,30,64)            60.128          estimate D2E/DX2                !
 ! A204  A(32,30,34)            85.5764         estimate D2E/DX2                !
 ! A205  A(32,30,64)           127.7888         estimate D2E/DX2                !
 ! A206  A(33,30,64)           133.8954         estimate D2E/DX2                !
 ! A207  A(34,30,64)            85.0298         estimate D2E/DX2                !
 ! A208  A(30,31,57)            85.6958         estimate D2E/DX2                !
 ! A209  A(17,33,25)            75.4337         estimate D2E/DX2                !
 ! A210  A(17,33,30)            96.5783         estimate D2E/DX2                !
 ! A211  A(17,33,32)            86.9334         estimate D2E/DX2                !
 ! A212  A(17,33,34)           138.0667         estimate D2E/DX2                !
 ! A213  A(17,33,59)           114.6185         estimate D2E/DX2                !
 ! A214  A(25,33,30)            91.1842         estimate D2E/DX2                !
 ! A215  A(25,33,32)           139.6999         estimate D2E/DX2                !
 ! A216  A(25,33,34)            79.7931         estimate D2E/DX2                !
 ! A217  A(25,33,59)           115.1306         estimate D2E/DX2                !
 ! A218  A(30,33,59)           142.7815         estimate D2E/DX2                !
 ! A219  A(32,33,34)            90.7477         estimate D2E/DX2                !
 ! A220  A(32,33,59)           105.1398         estimate D2E/DX2                !
 ! A221  A(34,33,59)           106.3883         estimate D2E/DX2                !
 ! A222  A(17,36,25)            76.659          estimate D2E/DX2                !
 ! A223  A(17,36,35)           103.0089         estimate D2E/DX2                !
 ! A224  A(17,36,37)           139.776          estimate D2E/DX2                !
 ! A225  A(17,36,38)            82.5742         estimate D2E/DX2                !
 ! A226  A(17,36,39)           134.0138         estimate D2E/DX2                !
 ! A227  A(25,36,35)           102.5334         estimate D2E/DX2                !
 ! A228  A(25,36,37)            85.4056         estimate D2E/DX2                !
 ! A229  A(25,36,38)           139.4755         estimate D2E/DX2                !
 ! A230  A(25,36,39)           137.2768         estimate D2E/DX2                !
 ! A231  A(35,36,37)           116.0099         estimate D2E/DX2                !
 ! A232  A(35,36,38)           115.9538         estimate D2E/DX2                !
 ! A233  A(35,36,39)            97.914          estimate D2E/DX2                !
 ! A234  A(37,36,38)            88.6708         estimate D2E/DX2                !
 ! A235  A(13,37,36)            78.5441         estimate D2E/DX2                !
 ! A236  A(13,37,39)            79.4644         estimate D2E/DX2                !
 ! A237  A(13,38,36)            78.3403         estimate D2E/DX2                !
 ! A238  A(13,38,39)            79.535          estimate D2E/DX2                !
 ! A239  A(36,39,40)           151.0676         estimate D2E/DX2                !
 ! A240  A(36,39,41)            95.6243         estimate D2E/DX2                !
 ! A241  A(36,39,62)           145.6416         estimate D2E/DX2                !
 ! A242  A(37,39,38)            91.5663         estimate D2E/DX2                !
 ! A243  A(37,39,40)            97.9526         estimate D2E/DX2                !
 ! A244  A(37,39,41)           115.3038         estimate D2E/DX2                !
 ! A245  A(37,39,62)           134.7554         estimate D2E/DX2                !
 ! A246  A(38,39,40)           133.2045         estimate D2E/DX2                !
 ! A247  A(38,39,41)           114.571          estimate D2E/DX2                !
 ! A248  A(38,39,62)            92.3169         estimate D2E/DX2                !
 ! A249  A(40,39,41)           102.3154         estimate D2E/DX2                !
 ! A250  A(41,39,62)           103.7181         estimate D2E/DX2                !
 ! A251  A(18,40,39)            87.3555         estimate D2E/DX2                !
 ! A252  A(18,42,43)            86.914          estimate D2E/DX2                !
 ! A253  A(18,42,44)            97.62           estimate D2E/DX2                !
 ! A254  A(18,42,61)           143.7383         estimate D2E/DX2                !
 ! A255  A(19,42,20)            84.8875         estimate D2E/DX2                !
 ! A256  A(19,42,43)           138.7746         estimate D2E/DX2                !
 ! A257  A(19,42,44)            92.401          estimate D2E/DX2                !
 ! A258  A(19,42,61)           105.3432         estimate D2E/DX2                !
 ! A259  A(20,42,43)            76.7789         estimate D2E/DX2                !
 ! A260  A(20,42,44)           137.4325         estimate D2E/DX2                !
 ! A261  A(20,42,61)           107.2643         estimate D2E/DX2                !
 ! A262  A(43,42,44)            77.8296         estimate D2E/DX2                !
 ! A263  A(43,42,61)           115.2376         estimate D2E/DX2                !
 ! A264  A(44,42,61)           114.3393         estimate D2E/DX2                !
 ! A265  A(6,43,42)             80.9827         estimate D2E/DX2                !
 ! A266  A(6,43,45)             83.2749         estimate D2E/DX2                !
 ! A267  A(42,43,45)            89.0679         estimate D2E/DX2                !
 ! A268  A(6,44,42)             82.8166         estimate D2E/DX2                !
 ! A269  A(6,44,45)             82.3665         estimate D2E/DX2                !
 ! A270  A(42,44,45)            91.8509         estimate D2E/DX2                !
 ! A271  A(3,45,43)             87.1625         estimate D2E/DX2                !
 ! A272  A(3,45,44)            137.9244         estimate D2E/DX2                !
 ! A273  A(3,45,46)             86.6072         estimate D2E/DX2                !
 ! A274  A(3,45,47)            113.8733         estimate D2E/DX2                !
 ! A275  A(43,45,44)            77.7765         estimate D2E/DX2                !
 ! A276  A(43,45,46)           138.2978         estimate D2E/DX2                !
 ! A277  A(43,45,47)           106.6308         estimate D2E/DX2                !
 ! A278  A(43,45,48)           138.5351         estimate D2E/DX2                !
 ! A279  A(44,45,46)            79.6909         estimate D2E/DX2                !
 ! A280  A(44,45,47)           108.0701         estimate D2E/DX2                !
 ! A281  A(44,45,48)           129.7254         estimate D2E/DX2                !
 ! A282  A(46,45,47)           113.5637         estimate D2E/DX2                !
 ! A283  A(47,45,48)            93.995          estimate D2E/DX2                !
 ! A284  A(1,46,45)             80.5127         estimate D2E/DX2                !
 ! A285  A(1,46,48)             81.0385         estimate D2E/DX2                !
 ! A286  A(3,48,21)             88.9812         estimate D2E/DX2                !
 ! A287  A(3,48,23)             79.5733         estimate D2E/DX2                !
 ! A288  A(3,48,46)             83.8346         estimate D2E/DX2                !
 ! A289  A(3,48,49)            137.7391         estimate D2E/DX2                !
 ! A290  A(3,48,50)            117.6329         estimate D2E/DX2                !
 ! A291  A(21,48,45)           119.6064         estimate D2E/DX2                !
 ! A292  A(21,48,46)            93.4678         estimate D2E/DX2                !
 ! A293  A(21,48,50)           139.7573         estimate D2E/DX2                !
 ! A294  A(23,48,45)           128.2765         estimate D2E/DX2                !
 ! A295  A(23,48,46)           137.8694         estimate D2E/DX2                !
 ! A296  A(23,48,49)            82.5423         estimate D2E/DX2                !
 ! A297  A(23,48,50)           104.4588         estimate D2E/DX2                !
 ! A298  A(45,48,49)           133.5144         estimate D2E/DX2                !
 ! A299  A(45,48,50)           100.451          estimate D2E/DX2                !
 ! A300  A(46,48,49)            84.3772         estimate D2E/DX2                !
 ! A301  A(46,48,50)           117.537          estimate D2E/DX2                !
 ! A302  A(49,48,50)           103.7888         estimate D2E/DX2                !
 ! A303  A(14,51,22)            93.428          estimate D2E/DX2                !
 ! A304  A(14,51,52)            91.1167         estimate D2E/DX2                !
 ! A305  A(14,51,60)           115.6893         estimate D2E/DX2                !
 ! A306  A(14,51,63)           134.0009         estimate D2E/DX2                !
 ! A307  A(22,51,52)           134.3125         estimate D2E/DX2                !
 ! A308  A(22,51,54)           146.0086         estimate D2E/DX2                !
 ! A309  A(22,51,60)           101.6717         estimate D2E/DX2                !
 ! A310  A(52,51,60)           116.9171         estimate D2E/DX2                !
 ! A311  A(52,51,63)            97.0938         estimate D2E/DX2                !
 ! A312  A(54,51,60)            98.4739         estimate D2E/DX2                !
 ! A313  A(54,51,63)           149.7398         estimate D2E/DX2                !
 ! A314  A(60,51,63)           100.5058         estimate D2E/DX2                !
 ! A315  A(12,52,51)            80.3055         estimate D2E/DX2                !
 ! A316  A(12,52,54)            77.5276         estimate D2E/DX2                !
 ! A317  A(14,54,52)            86.1684         estimate D2E/DX2                !
 ! A318  A(14,54,53)           109.34           estimate D2E/DX2                !
 ! A319  A(14,54,55)           141.1452         estimate D2E/DX2                !
 ! A320  A(14,54,56)            83.2459         estimate D2E/DX2                !
 ! A321  A(14,54,57)           132.722          estimate D2E/DX2                !
 ! A322  A(51,54,53)            88.0644         estimate D2E/DX2                !
 ! A323  A(51,54,55)           131.91           estimate D2E/DX2                !
 ! A324  A(51,54,56)           132.9527         estimate D2E/DX2                !
 ! A325  A(52,54,53)           108.0932         estimate D2E/DX2                !
 ! A326  A(52,54,55)            82.0369         estimate D2E/DX2                !
 ! A327  A(52,54,56)           143.9627         estimate D2E/DX2                !
 ! A328  A(52,54,57)           130.8974         estimate D2E/DX2                !
 ! A329  A(53,54,55)           109.5148         estimate D2E/DX2                !
 ! A330  A(53,54,56)           107.9214         estimate D2E/DX2                !
 ! A331  A(53,54,57)            88.0236         estimate D2E/DX2                !
 ! A332  A(55,54,56)            84.9339         estimate D2E/DX2                !
 ! A333  A(27,55,54)            78.6152         estimate D2E/DX2                !
 ! A334  A(27,55,57)            80.7312         estimate D2E/DX2                !
 ! A335  A(27,56,54)            78.8694         estimate D2E/DX2                !
 ! A336  A(27,56,57)            80.5297         estimate D2E/DX2                !
 ! A337  A(31,57,54)           140.6732         estimate D2E/DX2                !
 ! A338  A(31,57,55)           137.3118         estimate D2E/DX2                !
 ! A339  A(31,57,56)            89.1005         estimate D2E/DX2                !
 ! A340  A(31,57,58)           102.0142         estimate D2E/DX2                !
 ! A341  A(31,57,64)            60.5856         estimate D2E/DX2                !
 ! A342  A(54,57,58)            98.4258         estimate D2E/DX2                !
 ! A343  A(54,57,64)           144.478          estimate D2E/DX2                !
 ! A344  A(55,57,56)            88.9223         estimate D2E/DX2                !
 ! A345  A(55,57,58)           117.1173         estimate D2E/DX2                !
 ! A346  A(55,57,64)            92.8613         estimate D2E/DX2                !
 ! A347  A(56,57,58)           115.5172         estimate D2E/DX2                !
 ! A348  A(56,57,64)           135.3475         estimate D2E/DX2                !
 ! A349  A(58,57,64)           103.1266         estimate D2E/DX2                !
 ! A350  A(18,62,39)            87.7161         estimate D2E/DX2                !
 ! A351  A(21,63,51)            87.6712         estimate D2E/DX2                !
 ! A352  A(30,64,57)            86.3987         estimate D2E/DX2                !
 ! A353  L(51,54,57,53,-1)     176.088          estimate D2E/DX2                !
 ! A354  L(51,54,57,53,-2)     179.0998         estimate D2E/DX2                !
 ! D1    D(3,1,2,12)           176.3839         estimate D2E/DX2                !
 ! D2    D(3,1,2,21)            92.0796         estimate D2E/DX2                !
 ! D3    D(4,1,2,12)           -30.4231         estimate D2E/DX2                !
 ! D4    D(4,1,2,21)          -114.7274         estimate D2E/DX2                !
 ! D5    D(5,1,2,12)            41.0884         estimate D2E/DX2                !
 ! D6    D(5,1,2,21)           -43.2159         estimate D2E/DX2                !
 ! D7    D(8,1,2,12)           -99.5903         estimate D2E/DX2                !
 ! D8    D(8,1,2,21)           176.1054         estimate D2E/DX2                !
 ! D9    D(46,1,2,12)          109.2879         estimate D2E/DX2                !
 ! D10   D(46,1,2,21)           24.9836         estimate D2E/DX2                !
 ! D11   D(2,1,3,45)          -179.35           estimate D2E/DX2                !
 ! D12   D(2,1,3,48)           -98.1115         estimate D2E/DX2                !
 ! D13   D(4,1,3,45)            27.4859         estimate D2E/DX2                !
 ! D14   D(4,1,3,48)           108.7244         estimate D2E/DX2                !
 ! D15   D(5,1,3,45)          -109.3381         estimate D2E/DX2                !
 ! D16   D(5,1,3,48)           -28.0997         estimate D2E/DX2                !
 ! D17   D(8,1,3,45)            98.1741         estimate D2E/DX2                !
 ! D18   D(8,1,3,48)           179.4126         estimate D2E/DX2                !
 ! D19   D(46,1,3,45)          -39.8312         estimate D2E/DX2                !
 ! D20   D(46,1,3,48)           41.4073         estimate D2E/DX2                !
 ! D21   D(2,1,4,6)           -109.8743         estimate D2E/DX2                !
 ! D22   D(2,1,4,9)            -26.7462         estimate D2E/DX2                !
 ! D23   D(3,1,4,6)             30.4843         estimate D2E/DX2                !
 ! D24   D(3,1,4,9)            113.6124         estimate D2E/DX2                !
 ! D25   D(5,1,4,6)            179.9503         estimate D2E/DX2                !
 ! D26   D(5,1,4,9)            -96.9216         estimate D2E/DX2                !
 ! D27   D(8,1,4,6)            -40.7203         estimate D2E/DX2                !
 ! D28   D(8,1,4,9)             42.4078         estimate D2E/DX2                !
 ! D29   D(46,1,4,6)            97.0814         estimate D2E/DX2                !
 ! D30   D(46,1,4,9)          -179.7905         estimate D2E/DX2                !
 ! D31   D(2,1,5,12)           -41.2096         estimate D2E/DX2                !
 ! D32   D(2,1,5,21)            42.8019         estimate D2E/DX2                !
 ! D33   D(3,1,5,12)          -112.0301         estimate D2E/DX2                !
 ! D34   D(3,1,5,21)           -28.0186         estimate D2E/DX2                !
 ! D35   D(4,1,5,12)            96.7991         estimate D2E/DX2                !
 ! D36   D(4,1,5,21)          -179.1894         estimate D2E/DX2                !
 ! D37   D(8,1,5,12)            25.6935         estimate D2E/DX2                !
 ! D38   D(8,1,5,21)           109.705          estimate D2E/DX2                !
 ! D39   D(46,1,5,12)          179.3645         estimate D2E/DX2                !
 ! D40   D(46,1,5,21)          -96.624          estimate D2E/DX2                !
 ! D41   D(2,1,8,6)            179.2571         estimate D2E/DX2                !
 ! D42   D(2,1,8,9)             96.349          estimate D2E/DX2                !
 ! D43   D(3,1,8,6)            -97.2896         estimate D2E/DX2                !
 ! D44   D(3,1,8,9)            179.8023         estimate D2E/DX2                !
 ! D45   D(4,1,8,6)             40.7614         estimate D2E/DX2                !
 ! D46   D(4,1,8,9)            -42.1466         estimate D2E/DX2                !
 ! D47   D(5,1,8,6)            112.742          estimate D2E/DX2                !
 ! D48   D(5,1,8,9)             29.834          estimate D2E/DX2                !
 ! D49   D(46,1,8,6)           -28.9575         estimate D2E/DX2                !
 ! D50   D(46,1,8,9)          -111.8655         estimate D2E/DX2                !
 ! D51   D(2,1,46,45)          107.7203         estimate D2E/DX2                !
 ! D52   D(2,1,46,48)           25.6566         estimate D2E/DX2                !
 ! D53   D(3,1,46,45)           39.6482         estimate D2E/DX2                !
 ! D54   D(3,1,46,48)          -42.4155         estimate D2E/DX2                !
 ! D55   D(4,1,46,45)          -99.5596         estimate D2E/DX2                !
 ! D56   D(4,1,46,48)          178.3767         estimate D2E/DX2                !
 ! D57   D(5,1,46,45)          175.3527         estimate D2E/DX2                !
 ! D58   D(5,1,46,48)           93.289          estimate D2E/DX2                !
 ! D59   D(8,1,46,45)          -29.8925         estimate D2E/DX2                !
 ! D60   D(8,1,46,48)         -111.9562         estimate D2E/DX2                !
 ! D61   D(1,2,12,5)           -41.2454         estimate D2E/DX2                !
 ! D62   D(1,2,12,11)           29.0877         estimate D2E/DX2                !
 ! D63   D(1,2,12,14)         -179.5307         estimate D2E/DX2                !
 ! D64   D(1,2,12,15)           97.1529         estimate D2E/DX2                !
 ! D65   D(1,2,12,52)         -108.8073         estimate D2E/DX2                !
 ! D66   D(21,2,12,5)           39.9089         estimate D2E/DX2                !
 ! D67   D(21,2,12,11)         110.242          estimate D2E/DX2                !
 ! D68   D(21,2,12,14)         -98.3764         estimate D2E/DX2                !
 ! D69   D(21,2,12,15)         178.3072         estimate D2E/DX2                !
 ! D70   D(21,2,12,52)         -27.653          estimate D2E/DX2                !
 ! D71   D(1,2,21,5)            43.6344         estimate D2E/DX2                !
 ! D72   D(1,2,21,22)          175.6001         estimate D2E/DX2                !
 ! D73   D(1,2,21,23)          -97.7414         estimate D2E/DX2                !
 ! D74   D(1,2,21,48)          -46.8343         estimate D2E/DX2                !
 ! D75   D(1,2,21,49)          -22.0404         estimate D2E/DX2                !
 ! D76   D(1,2,21,63)          139.1566         estimate D2E/DX2                !
 ! D77   D(12,2,21,5)          -40.1295         estimate D2E/DX2                !
 ! D78   D(12,2,21,22)          91.8363         estimate D2E/DX2                !
 ! D79   D(12,2,21,23)         178.4948         estimate D2E/DX2                !
 ! D80   D(12,2,21,48)        -130.5981         estimate D2E/DX2                !
 ! D81   D(12,2,21,49)        -105.8042         estimate D2E/DX2                !
 ! D82   D(12,2,21,63)          55.3927         estimate D2E/DX2                !
 ! D83   D(1,3,45,43)          -96.4178         estimate D2E/DX2                !
 ! D84   D(1,3,45,44)          -28.2102         estimate D2E/DX2                !
 ! D85   D(1,3,45,46)           42.327          estimate D2E/DX2                !
 ! D86   D(1,3,45,47)          156.6387         estimate D2E/DX2                !
 ! D87   D(1,3,48,21)           50.019          estimate D2E/DX2                !
 ! D88   D(1,3,48,23)           97.5285         estimate D2E/DX2                !
 ! D89   D(1,3,48,46)          -43.5798         estimate D2E/DX2                !
 ! D90   D(1,3,48,49)           31.0284         estimate D2E/DX2                !
 ! D91   D(1,3,48,50)         -161.5056         estimate D2E/DX2                !
 ! D92   D(1,4,6,7)            178.4244         estimate D2E/DX2                !
 ! D93   D(1,4,6,8)             40.6471         estimate D2E/DX2                !
 ! D94   D(1,4,6,16)           108.3502         estimate D2E/DX2                !
 ! D95   D(1,4,6,43)           -36.4895         estimate D2E/DX2                !
 ! D96   D(1,4,6,44)           -95.4862         estimate D2E/DX2                !
 ! D97   D(9,4,6,7)             95.9346         estimate D2E/DX2                !
 ! D98   D(9,4,6,8)            -41.8427         estimate D2E/DX2                !
 ! D99   D(9,4,6,16)            25.8603         estimate D2E/DX2                !
 ! D100  D(9,4,6,43)          -118.9794         estimate D2E/DX2                !
 ! D101  D(9,4,6,44)          -177.976          estimate D2E/DX2                !
 ! D102  D(1,4,9,8)            -41.7818         estimate D2E/DX2                !
 ! D103  D(1,4,9,10)          -178.7819         estimate D2E/DX2                !
 ! D104  D(1,4,9,11)            95.8338         estimate D2E/DX2                !
 ! D105  D(1,4,9,15)            29.7294         estimate D2E/DX2                !
 ! D106  D(1,4,9,26)          -111.0687         estimate D2E/DX2                !
 ! D107  D(6,4,9,8)             41.3036         estimate D2E/DX2                !
 ! D108  D(6,4,9,10)           -95.6965         estimate D2E/DX2                !
 ! D109  D(6,4,9,11)           178.9191         estimate D2E/DX2                !
 ! D110  D(6,4,9,15)           112.8147         estimate D2E/DX2                !
 ! D111  D(6,4,9,26)           -27.9834         estimate D2E/DX2                !
 ! D112  D(1,5,12,2)            41.3601         estimate D2E/DX2                !
 ! D113  D(1,5,12,11)          -94.4429         estimate D2E/DX2                !
 ! D114  D(1,5,12,14)          111.5815         estimate D2E/DX2                !
 ! D115  D(1,5,12,15)          -26.3779         estimate D2E/DX2                !
 ! D116  D(1,5,12,52)          179.6355         estimate D2E/DX2                !
 ! D117  D(21,5,12,2)          -39.5304         estimate D2E/DX2                !
 ! D118  D(21,5,12,11)        -175.3334         estimate D2E/DX2                !
 ! D119  D(21,5,12,14)          30.691          estimate D2E/DX2                !
 ! D120  D(21,5,12,15)        -107.2684         estimate D2E/DX2                !
 ! D121  D(21,5,12,52)          98.745          estimate D2E/DX2                !
 ! D122  D(1,5,21,2)           -43.8376         estimate D2E/DX2                !
 ! D123  D(1,5,21,22)         -133.4218         estimate D2E/DX2                !
 ! D124  D(1,5,21,23)           32.26           estimate D2E/DX2                !
 ! D125  D(1,5,21,48)           52.2116         estimate D2E/DX2                !
 ! D126  D(1,5,21,49)          100.3141         estimate D2E/DX2                !
 ! D127  D(1,5,21,63)         -175.8254         estimate D2E/DX2                !
 ! D128  D(12,5,21,2)           40.3061         estimate D2E/DX2                !
 ! D129  D(12,5,21,22)         -49.2781         estimate D2E/DX2                !
 ! D130  D(12,5,21,23)         116.4037         estimate D2E/DX2                !
 ! D131  D(12,5,21,48)         136.3553         estimate D2E/DX2                !
 ! D132  D(12,5,21,49)        -175.5422         estimate D2E/DX2                !
 ! D133  D(12,5,21,63)         -91.6817         estimate D2E/DX2                !
 ! D134  D(4,6,7,13)           -96.8653         estimate D2E/DX2                !
 ! D135  D(4,6,7,18)          -179.9956         estimate D2E/DX2                !
 ! D136  D(8,6,7,13)           -24.8856         estimate D2E/DX2                !
 ! D137  D(8,6,7,18)          -108.0159         estimate D2E/DX2                !
 ! D138  D(16,6,7,13)           41.0686         estimate D2E/DX2                !
 ! D139  D(16,6,7,18)          -42.0617         estimate D2E/DX2                !
 ! D140  D(43,6,7,13)          114.6999         estimate D2E/DX2                !
 ! D141  D(43,6,7,18)           31.5696         estimate D2E/DX2                !
 ! D142  D(44,6,7,13)         -178.6546         estimate D2E/DX2                !
 ! D143  D(44,6,7,18)           98.2151         estimate D2E/DX2                !
 ! D144  D(4,6,8,1)            -40.9755         estimate D2E/DX2                !
 ! D145  D(4,6,8,9)             41.6232         estimate D2E/DX2                !
 ! D146  D(7,6,8,1)           -113.7694         estimate D2E/DX2                !
 ! D147  D(7,6,8,9)            -31.1707         estimate D2E/DX2                !
 ! D148  D(16,6,8,1)          -179.7239         estimate D2E/DX2                !
 ! D149  D(16,6,8,9)           -97.1252         estimate D2E/DX2                !
 ! D150  D(43,6,8,1)            95.9834         estimate D2E/DX2                !
 ! D151  D(43,6,8,9)           178.5821         estimate D2E/DX2                !
 ! D152  D(44,6,8,1)            29.0551         estimate D2E/DX2                !
 ! D153  D(44,6,8,9)           111.6538         estimate D2E/DX2                !
 ! D154  D(4,6,16,13)           30.5211         estimate D2E/DX2                !
 ! D155  D(4,6,16,18)          113.9574         estimate D2E/DX2                !
 ! D156  D(7,6,16,13)          -40.8906         estimate D2E/DX2                !
 ! D157  D(7,6,16,18)           42.5457         estimate D2E/DX2                !
 ! D158  D(8,6,16,13)           98.7402         estimate D2E/DX2                !
 ! D159  D(8,6,16,18)         -177.8235         estimate D2E/DX2                !
 ! D160  D(43,6,16,13)        -173.3634         estimate D2E/DX2                !
 ! D161  D(43,6,16,18)         -89.9271         estimate D2E/DX2                !
 ! D162  D(44,6,16,13)        -112.8579         estimate D2E/DX2                !
 ! D163  D(44,6,16,18)         -29.4216         estimate D2E/DX2                !
 ! D164  D(4,6,43,42)         -105.7682         estimate D2E/DX2                !
 ! D165  D(4,6,43,45)          -15.6463         estimate D2E/DX2                !
 ! D166  D(7,6,43,42)           26.099          estimate D2E/DX2                !
 ! D167  D(7,6,43,45)          116.2209         estimate D2E/DX2                !
 ! D168  D(8,6,43,42)          179.0826         estimate D2E/DX2                !
 ! D169  D(8,6,43,45)          -90.7954         estimate D2E/DX2                !
 ! D170  D(16,6,43,42)          98.2583         estimate D2E/DX2                !
 ! D171  D(16,6,43,45)        -171.6198         estimate D2E/DX2                !
 ! D172  D(44,6,43,42)         -44.7367         estimate D2E/DX2                !
 ! D173  D(44,6,43,45)          45.3852         estimate D2E/DX2                !
 ! D174  D(4,6,44,42)         -170.6277         estimate D2E/DX2                !
 ! D175  D(4,6,44,45)           96.5214         estimate D2E/DX2                !
 ! D176  D(7,6,44,42)          -85.9844         estimate D2E/DX2                !
 ! D177  D(7,6,44,45)         -178.8353         estimate D2E/DX2                !
 ! D178  D(8,6,44,42)          119.1172         estimate D2E/DX2                !
 ! D179  D(8,6,44,45)           26.2663         estimate D2E/DX2                !
 ! D180  D(16,6,44,42)         -15.7254         estimate D2E/DX2                !
 ! D181  D(16,6,44,45)        -108.5763         estimate D2E/DX2                !
 ! D182  D(43,6,44,42)          47.5893         estimate D2E/DX2                !
 ! D183  D(43,6,44,45)         -45.2616         estimate D2E/DX2                !
 ! D184  D(6,7,13,10)           95.496          estimate D2E/DX2                !
 ! D185  D(6,7,13,16)          -41.1179         estimate D2E/DX2                !
 ! D186  D(6,7,13,26)           27.2277         estimate D2E/DX2                !
 ! D187  D(6,7,13,37)          179.6248         estimate D2E/DX2                !
 ! D188  D(6,7,13,38)         -110.8341         estimate D2E/DX2                !
 ! D189  D(18,7,13,10)         176.7958         estimate D2E/DX2                !
 ! D190  D(18,7,13,16)          40.182          estimate D2E/DX2                !
 ! D191  D(18,7,13,26)         108.5276         estimate D2E/DX2                !
 ! D192  D(18,7,13,37)         -99.0754         estimate D2E/DX2                !
 ! D193  D(18,7,13,38)         -29.5343         estimate D2E/DX2                !
 ! D194  D(6,7,18,16)           43.0952         estimate D2E/DX2                !
 ! D195  D(6,7,18,19)         -100.8121         estimate D2E/DX2                !
 ! D196  D(6,7,18,20)          -35.5921         estimate D2E/DX2                !
 ! D197  D(6,7,18,40)          176.0886         estimate D2E/DX2                !
 ! D198  D(6,7,18,42)          -55.7359         estimate D2E/DX2                !
 ! D199  D(6,7,18,62)          132.6065         estimate D2E/DX2                !
 ! D200  D(13,7,18,16)         -41.099          estimate D2E/DX2                !
 ! D201  D(13,7,18,19)         174.9936         estimate D2E/DX2                !
 ! D202  D(13,7,18,20)        -119.7863         estimate D2E/DX2                !
 ! D203  D(13,7,18,40)          91.8944         estimate D2E/DX2                !
 ! D204  D(13,7,18,42)        -139.9301         estimate D2E/DX2                !
 ! D205  D(13,7,18,62)          48.4123         estimate D2E/DX2                !
 ! D206  D(1,8,9,4)             42.1635         estimate D2E/DX2                !
 ! D207  D(1,8,9,10)           112.5428         estimate D2E/DX2                !
 ! D208  D(1,8,9,11)           -26.6377         estimate D2E/DX2                !
 ! D209  D(1,8,9,15)           -95.5783         estimate D2E/DX2                !
 ! D210  D(1,8,9,26)          -179.0269         estimate D2E/DX2                !
 ! D211  D(6,8,9,4)            -41.4207         estimate D2E/DX2                !
 ! D212  D(6,8,9,10)            28.9587         estimate D2E/DX2                !
 ! D213  D(6,8,9,11)          -110.2218         estimate D2E/DX2                !
 ! D214  D(6,8,9,15)          -179.1625         estimate D2E/DX2                !
 ! D215  D(6,8,9,26)            97.3889         estimate D2E/DX2                !
 ! D216  D(4,9,10,13)           97.5125         estimate D2E/DX2                !
 ! D217  D(4,9,10,24)         -178.6883         estimate D2E/DX2                !
 ! D218  D(8,9,10,13)           27.7998         estimate D2E/DX2                !
 ! D219  D(8,9,10,24)          111.599          estimate D2E/DX2                !
 ! D220  D(11,9,10,13)         179.7752         estimate D2E/DX2                !
 ! D221  D(11,9,10,24)         -96.4255         estimate D2E/DX2                !
 ! D222  D(15,9,10,13)        -110.8243         estimate D2E/DX2                !
 ! D223  D(15,9,10,24)         -27.0251         estimate D2E/DX2                !
 ! D224  D(26,9,10,13)         -41.5335         estimate D2E/DX2                !
 ! D225  D(26,9,10,24)          42.2657         estimate D2E/DX2                !
 ! D226  D(4,9,11,12)          -98.1481         estimate D2E/DX2                !
 ! D227  D(4,9,11,27)          179.438          estimate D2E/DX2                !
 ! D228  D(8,9,11,12)          -29.6204         estimate D2E/DX2                !
 ! D229  D(8,9,11,27)         -112.0343         estimate D2E/DX2                !
 ! D230  D(10,9,11,12)         178.5189         estimate D2E/DX2                !
 ! D231  D(10,9,11,27)          96.105          estimate D2E/DX2                !
 ! D232  D(15,9,11,12)          40.9289         estimate D2E/DX2                !
 ! D233  D(15,9,11,27)         -41.4851         estimate D2E/DX2                !
 ! D234  D(26,9,11,12)         108.9224         estimate D2E/DX2                !
 ! D235  D(26,9,11,27)          26.5085         estimate D2E/DX2                !
 ! D236  D(4,9,15,12)           25.7407         estimate D2E/DX2                !
 ! D237  D(4,9,15,27)          108.3135         estimate D2E/DX2                !
 ! D238  D(8,9,15,12)           96.1607         estimate D2E/DX2                !
 ! D239  D(8,9,15,27)          178.7335         estimate D2E/DX2                !
 ! D240  D(10,9,15,12)        -112.3592         estimate D2E/DX2                !
 ! D241  D(10,9,15,27)         -29.7864         estimate D2E/DX2                !
 ! D242  D(11,9,15,12)         -41.1078         estimate D2E/DX2                !
 ! D243  D(11,9,15,27)          41.465          estimate D2E/DX2                !
 ! D244  D(26,9,15,12)         179.3328         estimate D2E/DX2                !
 ! D245  D(26,9,15,27)         -98.0944         estimate D2E/DX2                !
 ! D246  D(4,9,26,13)          -27.2828         estimate D2E/DX2                !
 ! D247  D(4,9,26,24)         -110.7965         estimate D2E/DX2                !
 ! D248  D(8,9,26,13)          -95.9892         estimate D2E/DX2                !
 ! D249  D(8,9,26,24)         -179.5029         estimate D2E/DX2                !
 ! D250  D(10,9,26,13)          41.3489         estimate D2E/DX2                !
 ! D251  D(10,9,26,24)         -42.1648         estimate D2E/DX2                !
 ! D252  D(11,9,26,13)         112.5474         estimate D2E/DX2                !
 ! D253  D(11,9,26,24)          29.0337         estimate D2E/DX2                !
 ! D254  D(15,9,26,13)         179.4044         estimate D2E/DX2                !
 ! D255  D(15,9,26,24)          95.8907         estimate D2E/DX2                !
 ! D256  D(9,10,13,7)          -96.8348         estimate D2E/DX2                !
 ! D257  D(9,10,13,16)         -27.1516         estimate D2E/DX2                !
 ! D258  D(9,10,13,26)          41.5442         estimate D2E/DX2                !
 ! D259  D(9,10,13,37)        -179.9163         estimate D2E/DX2                !
 ! D260  D(9,10,13,38)         109.1429         estimate D2E/DX2                !
 ! D261  D(24,10,13,7)        -179.2471         estimate D2E/DX2                !
 ! D262  D(24,10,13,16)       -109.5639         estimate D2E/DX2                !
 ! D263  D(24,10,13,26)        -40.8681         estimate D2E/DX2                !
 ! D264  D(24,10,13,37)         97.6714         estimate D2E/DX2                !
 ! D265  D(24,10,13,38)         26.7306         estimate D2E/DX2                !
 ! D266  D(9,10,24,17)        -114.7243         estimate D2E/DX2                !
 ! D267  D(9,10,24,25)        -179.1172         estimate D2E/DX2                !
 ! D268  D(9,10,24,26)         -42.6812         estimate D2E/DX2                !
 ! D269  D(9,10,24,28)          95.5115         estimate D2E/DX2                !
 ! D270  D(9,10,24,29)          29.1991         estimate D2E/DX2                !
 ! D271  D(13,10,24,17)        -30.7901         estimate D2E/DX2                !
 ! D272  D(13,10,24,25)        -95.183          estimate D2E/DX2                !
 ! D273  D(13,10,24,26)         41.253          estimate D2E/DX2                !
 ! D274  D(13,10,24,28)        179.4458         estimate D2E/DX2                !
 ! D275  D(13,10,24,29)        113.1333         estimate D2E/DX2                !
 ! D276  D(9,11,12,2)           26.9206         estimate D2E/DX2                !
 ! D277  D(9,11,12,5)           96.8206         estimate D2E/DX2                !
 ! D278  D(9,11,12,14)        -109.6319         estimate D2E/DX2                !
 ! D279  D(9,11,12,15)         -41.3766         estimate D2E/DX2                !
 ! D280  D(9,11,12,52)         178.3197         estimate D2E/DX2                !
 ! D281  D(27,11,12,2)         111.0553         estimate D2E/DX2                !
 ! D282  D(27,11,12,5)        -179.0447         estimate D2E/DX2                !
 ! D283  D(27,11,12,14)        -25.4972         estimate D2E/DX2                !
 ! D284  D(27,11,12,15)         42.758          estimate D2E/DX2                !
 ! D285  D(27,11,12,52)        -97.5456         estimate D2E/DX2                !
 ! D286  D(9,11,27,15)          41.8561         estimate D2E/DX2                !
 ! D287  D(9,11,27,28)         -94.1563         estimate D2E/DX2                !
 ! D288  D(9,11,27,29)         -26.131          estimate D2E/DX2                !
 ! D289  D(9,11,27,55)        -179.4629         estimate D2E/DX2                !
 ! D290  D(9,11,27,56)         114.3881         estimate D2E/DX2                !
 ! D291  D(12,11,27,15)        -42.6698         estimate D2E/DX2                !
 ! D292  D(12,11,27,28)       -178.6823         estimate D2E/DX2                !
 ! D293  D(12,11,27,29)       -110.6569         estimate D2E/DX2                !
 ! D294  D(12,11,27,55)         96.0112         estimate D2E/DX2                !
 ! D295  D(12,11,27,56)         29.8622         estimate D2E/DX2                !
 ! D296  D(2,12,14,51)         101.2535         estimate D2E/DX2                !
 ! D297  D(2,12,14,54)        -179.8147         estimate D2E/DX2                !
 ! D298  D(5,12,14,51)          31.7556         estimate D2E/DX2                !
 ! D299  D(5,12,14,54)         110.6873         estimate D2E/DX2                !
 ! D300  D(11,12,14,51)       -109.2866         estimate D2E/DX2                !
 ! D301  D(11,12,14,54)        -30.3549         estimate D2E/DX2                !
 ! D302  D(15,12,14,51)       -176.8566         estimate D2E/DX2                !
 ! D303  D(15,12,14,54)        -97.9249         estimate D2E/DX2                !
 ! D304  D(52,12,14,51)        -36.0281         estimate D2E/DX2                !
 ! D305  D(52,12,14,54)         42.9036         estimate D2E/DX2                !
 ! D306  D(2,12,15,9)          -95.129          estimate D2E/DX2                !
 ! D307  D(2,12,15,27)        -179.1005         estimate D2E/DX2                !
 ! D308  D(5,12,15,9)          -27.4076         estimate D2E/DX2                !
 ! D309  D(5,12,15,27)        -111.3791         estimate D2E/DX2                !
 ! D310  D(11,12,15,9)          41.2695         estimate D2E/DX2                !
 ! D311  D(11,12,15,27)        -42.702          estimate D2E/DX2                !
 ! D312  D(14,12,15,9)        -179.1039         estimate D2E/DX2                !
 ! D313  D(14,12,15,27)         96.9246         estimate D2E/DX2                !
 ! D314  D(52,12,15,9)         112.4645         estimate D2E/DX2                !
 ! D315  D(52,12,15,27)         28.493          estimate D2E/DX2                !
 ! D316  D(2,12,52,51)         -35.2851         estimate D2E/DX2                !
 ! D317  D(2,12,52,54)        -114.0375         estimate D2E/DX2                !
 ! D318  D(5,12,52,51)        -102.9017         estimate D2E/DX2                !
 ! D319  D(5,12,52,54)         178.3459         estimate D2E/DX2                !
 ! D320  D(11,12,52,51)        174.2996         estimate D2E/DX2                !
 ! D321  D(11,12,52,54)         95.5472         estimate D2E/DX2                !
 ! D322  D(14,12,52,51)         35.9554         estimate D2E/DX2                !
 ! D323  D(14,12,52,54)        -42.797          estimate D2E/DX2                !
 ! D324  D(15,12,52,51)        104.6542         estimate D2E/DX2                !
 ! D325  D(15,12,52,54)         25.9018         estimate D2E/DX2                !
 ! D326  D(7,13,16,6)           41.2727         estimate D2E/DX2                !
 ! D327  D(7,13,16,18)         -40.6872         estimate D2E/DX2                !
 ! D328  D(10,13,16,6)         -28.795          estimate D2E/DX2                !
 ! D329  D(10,13,16,18)       -110.7548         estimate D2E/DX2                !
 ! D330  D(26,13,16,6)         -97.1855         estimate D2E/DX2                !
 ! D331  D(26,13,16,18)       -179.1454         estimate D2E/DX2                !
 ! D332  D(37,13,16,6)         110.2272         estimate D2E/DX2                !
 ! D333  D(37,13,16,18)         28.2673         estimate D2E/DX2                !
 ! D334  D(38,13,16,6)        -179.5868         estimate D2E/DX2                !
 ! D335  D(38,13,16,18)         98.4533         estimate D2E/DX2                !
 ! D336  D(7,13,26,9)           27.0641         estimate D2E/DX2                !
 ! D337  D(7,13,26,24)         109.6148         estimate D2E/DX2                !
 ! D338  D(10,13,26,9)         -41.7355         estimate D2E/DX2                !
 ! D339  D(10,13,26,24)         40.8152         estimate D2E/DX2                !
 ! D340  D(16,13,26,9)          95.2793         estimate D2E/DX2                !
 ! D341  D(16,13,26,24)        177.83           estimate D2E/DX2                !
 ! D342  D(37,13,26,9)        -111.8766         estimate D2E/DX2                !
 ! D343  D(37,13,26,24)        -29.3259         estimate D2E/DX2                !
 ! D344  D(38,13,26,9)         179.1853         estimate D2E/DX2                !
 ! D345  D(38,13,26,24)        -98.264          estimate D2E/DX2                !
 ! D346  D(7,13,37,36)         178.9853         estimate D2E/DX2                !
 ! D347  D(7,13,37,39)         102.7505         estimate D2E/DX2                !
 ! D348  D(10,13,37,36)        -98.1069         estimate D2E/DX2                !
 ! D349  D(10,13,37,39)       -174.3417         estimate D2E/DX2                !
 ! D350  D(16,13,37,36)        110.4479         estimate D2E/DX2                !
 ! D351  D(16,13,37,39)         34.2131         estimate D2E/DX2                !
 ! D352  D(26,13,37,36)        -28.9042         estimate D2E/DX2                !
 ! D353  D(26,13,37,39)       -105.139          estimate D2E/DX2                !
 ! D354  D(38,13,37,36)         39.9002         estimate D2E/DX2                !
 ! D355  D(38,13,37,39)        -36.3346         estimate D2E/DX2                !
 ! D356  D(7,13,38,36)        -109.6946         estimate D2E/DX2                !
 ! D357  D(7,13,38,39)         -33.0448         estimate D2E/DX2                !
 ! D358  D(10,13,38,36)         31.4732         estimate D2E/DX2                !
 ! D359  D(10,13,38,39)        108.123          estimate D2E/DX2                !
 ! D360  D(16,13,38,36)       -178.7968         estimate D2E/DX2                !
 ! D361  D(16,13,38,39)       -102.1471         estimate D2E/DX2                !
 ! D362  D(26,13,38,36)         98.7875         estimate D2E/DX2                !
 ! D363  D(26,13,38,39)        175.4372         estimate D2E/DX2                !
 ! D364  D(37,13,38,36)        -39.9904         estimate D2E/DX2                !
 ! D365  D(37,13,38,39)         36.6594         estimate D2E/DX2                !
 ! D366  D(12,14,51,22)        -95.1164         estimate D2E/DX2                !
 ! D367  D(12,14,51,52)         39.4009         estimate D2E/DX2                !
 ! D368  D(12,14,51,60)        160.1864         estimate D2E/DX2                !
 ! D369  D(12,14,51,63)        -61.5832         estimate D2E/DX2                !
 ! D370  D(12,14,54,52)        -44.7649         estimate D2E/DX2                !
 ! D371  D(12,14,54,53)       -152.6054         estimate D2E/DX2                !
 ! D372  D(12,14,54,55)         27.5096         estimate D2E/DX2                !
 ! D373  D(12,14,54,56)        100.7265         estimate D2E/DX2                !
 ! D374  D(12,14,54,57)        101.47           estimate D2E/DX2                !
 ! D375  D(9,15,27,11)         -41.7702         estimate D2E/DX2                !
 ! D376  D(9,15,27,28)          27.9636         estimate D2E/DX2                !
 ! D377  D(9,15,27,29)          96.0721         estimate D2E/DX2                !
 ! D378  D(9,15,27,55)        -109.0566         estimate D2E/DX2                !
 ! D379  D(9,15,27,56)         179.2493         estimate D2E/DX2                !
 ! D380  D(12,15,27,11)         42.8489         estimate D2E/DX2                !
 ! D381  D(12,15,27,28)        112.5827         estimate D2E/DX2                !
 ! D382  D(12,15,27,29)       -179.3088         estimate D2E/DX2                !
 ! D383  D(12,15,27,55)        -24.4375         estimate D2E/DX2                !
 ! D384  D(12,15,27,56)        -96.1316         estimate D2E/DX2                !
 ! D385  D(6,16,18,7)          -43.1539         estimate D2E/DX2                !
 ! D386  D(6,16,18,19)          20.8972         estimate D2E/DX2                !
 ! D387  D(6,16,18,20)          96.3006         estimate D2E/DX2                !
 ! D388  D(6,16,18,40)        -140.2238         estimate D2E/DX2                !
 ! D389  D(6,16,18,42)          44.6878         estimate D2E/DX2                !
 ! D390  D(6,16,18,62)        -176.0135         estimate D2E/DX2                !
 ! D391  D(13,16,18,7)          40.8748         estimate D2E/DX2                !
 ! D392  D(13,16,18,19)        104.9259         estimate D2E/DX2                !
 ! D393  D(13,16,18,20)       -179.6707         estimate D2E/DX2                !
 ! D394  D(13,16,18,40)        -56.1951         estimate D2E/DX2                !
 ! D395  D(13,16,18,42)        128.7165         estimate D2E/DX2                !
 ! D396  D(13,16,18,62)        -91.9848         estimate D2E/DX2                !
 ! D397  D(33,17,24,10)       -117.4239         estimate D2E/DX2                !
 ! D398  D(33,17,24,25)        -48.6811         estimate D2E/DX2                !
 ! D399  D(33,17,24,26)        171.2024         estimate D2E/DX2                !
 ! D400  D(33,17,24,28)         17.4323         estimate D2E/DX2                !
 ! D401  D(33,17,24,29)         86.9298         estimate D2E/DX2                !
 ! D402  D(36,17,24,10)        -22.3412         estimate D2E/DX2                !
 ! D403  D(36,17,24,25)         46.4016         estimate D2E/DX2                !
 ! D404  D(36,17,24,26)        -93.7149         estimate D2E/DX2                !
[...]
 2111,0.00000923,-0.00001569,0.00001882,0.00000822,-0.00000026,0.000006
 64,0.00000768,0.00001009,0.00011044,0.00002025,0.00000866,-0.00027076,
 0.00018359,-0.00004283,0.00000915,-0.00024183,-0.00022569,0.00003100,0
 .00004847,-0.00006576,0.00001373,0.00001749,0.00002985,-0.00001562,-0.
 00004978,0.00004959,0.00005048,-0.00001005,0.00002089,-0.00001451,0.00
 001497,-0.00000650,-0.00013603,0.00003681,-0.00002947,0.00031466,0.000
 05454,-0.00004313,-0.00002112,-0.00002867,-0.00005861,0.00011272,0.000
 41902,-0.00010244,-0.00146980,-0.00029513,-0.00008585,0.00051180,0.001
 88097,0.00006289,-0.00155056,0.00223601,0.00332389,0.01095102,-0.01449
 950,-0.00882856,-0.02230230,-0.08867215,-0.06180298,-0.00217800,0.0020
 1612,0.00160270,0.00136691,-0.00178383,-0.00027574,-0.00008682,0.00063
 899,0.00024042,-0.00071860,0.00051093,-0.00000234,-0.00001036,-0.00002
 378,-0.00031376,-0.00006291,0.00000979,0.00004263,-0.00009562,-0.00002
 412,0.00005824,0.00001871,0.00003417,-0.00005455,0.00000341,-0.0000117
 8,0.00000634,-0.00003583,-0.00002405,0.00004878,-0.00003440,-0.0000126
 3,0.00003061,-0.00000155,0.00001248,0.00001612,0.00002293,-0.00001712,
 0.00002325,-0.00002873,0.00005402,-0.00008255,-0.00000310,-0.00001037,
 0.00001498,-0.00000090,-0.00000844,0.00001956,-0.00001855,-0.00002580,
 0.00003771,0.00001143,-0.00000344,0.00000319,0.00000801,0.00001555,0.0
 0000933,0.00003825,-0.00001618,0.00001584,-0.00036452,-0.00007123,0.00
 028414,-0.00239906,0.15120533,-0.00011983,0.00008175,-0.00001702,0.000
 01247,0.00000927,-0.00004377,0.00004842,-0.00001089,0.00004109,-0.0000
 6885,0.00005089,-0.00002615,0.00000875,0.00002382,-0.00001486,-0.00062
 598,0.00038582,0.00045562,-0.00024628,0.00139413,0.00056928,0.00008471
 ,-0.00025117,-0.00014391,-0.00016850,0.00003953,0.00005247,0.00011742,
 0.00028263,-0.00000223,0.00001935,0.00002661,-0.00007238,-0.00008707,-
 0.00006877,0.00012312,-0.00148825,-0.00224151,0.00178938,0.00001185,0.
 00002888,-0.00000600,0.00002377,0.00006690,-0.00011145,-0.00059102,0.0
 0199312,-0.00008225,0.00031584,0.00032842,0.00080104,-0.00433521,0.016
 18857,-0.01587587,-0.00021693,-0.00019461,0.00001981,0.00089133,0.0049
 9940,-0.00699778,0.00007404,0.00001204,-0.00002506,-0.00002689,0.00000
 683,0.00000353,-0.00002979,-0.00000006,0.00001507,0.00008900,0.0001786
 3,-0.00011707,0.00010772,0.00018340,0.00005926,0.00005556,0.00007418,-
 0.00000701,0.00000265,-0.00009356,0.00014083,0.00003537,0.00001763,-0.
 00007196,-0.00000969,0.00007219,-0.00007565,-0.00003051,0.00003197,-0.
 00007409,0.00003276,-0.00001633,0.00002153,0.00019820,-0.00002169,0.00
 007495,-0.00067250,-0.00013002,0.00014301,0.00010676,0.00001999,0.0000
 9304,-0.00011614,0.00031038,0.00013948,-0.00017275,-0.00214369,-0.0010
 7434,0.00219742,-0.00199872,-0.00012136,-0.00042043,0.00180374,0.00328
 952,0.03261746,-0.00569877,-0.05057019,-0.01679691,-0.06007129,-0.0334
 2620,0.00092134,0.00047075,-0.00370884,-0.00036868,-0.00037711,0.00021
 146,-0.00000627,0.00013519,-0.00006643,0.00014142,-0.00015333,-0.00003
 044,-0.00029388,0.00010059,-0.00018019,0.00000471,-0.00001629,0.000036
 75,-0.00000955,-0.00005706,0.00003316,-0.00000792,0.00003009,-0.000035
 39,-0.00003552,-0.00001977,0.00000998,0.00001441,-0.00000989,0.0000109
 2,0.00000631,0.00004380,-0.00007966,0.00001294,-0.00000907,-0.00002907
 ,0.00001364,0.00002344,-0.00004470,-0.00002484,-0.00009041,0.00015987,
 0.00000506,0.00003420,-0.00002480,-0.00000399,0.00000535,-0.00004248,-
 0.00002625,0.00005458,-0.00007841,0.00004463,-0.00000458,-0.00001111,0
 .00003089,0.00004045,-0.00003300,-0.00002210,0.00001177,-0.00001398,-0
 .00002910,-0.00010961,-0.00012617,-0.01120132,0.04423518,0.10514698,-0
 .00017348,0.00160680,0.00019415,-0.00043119,0.00145975,-0.00003219,0.0
 0001837,-0.00075005,-0.00005823,0.00011557,-0.00043333,-0.00025758,-0.
 00009373,0.00050024,-0.00055104,0.00002829,0.00012507,-0.00006624,-0.0
 0003028,-0.00005406,0.00001376,-0.00006884,-0.00007856,-0.00007933,-0.
 00004351,-0.00001157,-0.00020924,-0.00007535,-0.00000429,0.00003009,-0
 .00006356,0.00017060,0.00022427,0.00235217,0.00084604,-0.00100026,0.00
 006602,0.00001554,-0.00004545,0.00087717,-0.00258044,-0.00033904,-0.00
 005115,0.00028646,0.00011955,-0.00001781,0.00001601,0.00002742,0.00003
 148,0.00000084,-0.00000284,-0.00000847,0.00000055,0.00003380,-0.000017
 83,0.00002309,-0.00008402,0.00000142,-0.00000678,-0.00003767,-0.039532
 16,0.02758512,-0.00223830,0.00293563,-0.01653094,-0.01035136,-0.000477
 73,-0.00014638,0.00090061,-0.00003633,0.00002868,-0.00002253,0.0000083
 7,-0.00002993,0.00000193,-0.00004319,-0.00000812,0.00002965,0.00024705
 ,-0.00005952,0.00006892,-0.00008650,0.00001990,-0.00002169,-0.00002130
 ,0.00004585,0.00000618,-0.00010352,-0.00000002,-0.00002860,0.00008947,
 -0.00001256,0.00004240,0.00006609,-0.00000088,0.00003259,-0.00015421,-
 0.00001760,0.00003990,0.00004075,-0.00000130,0.00002569,-0.00000744,0.
 00001169,-0.00001365,0.00002775,0.00000770,-0.00001128,-0.00002154,0.0
 0000208,-0.00000540,-0.00001526,0.00001036,-0.00000566,-0.00000975,-0.
 00003021,0.00004900,0.00000725,0.00001308,-0.00003288,-0.00001288,0.00
 001717,-0.00002176,0.00019271,-0.00006166,0.00012591,-0.00004710,0.000
 00968,0.00001718,-0.00002974,0.00001417,-0.00007676,-0.00007418,0.0001
 5830,-0.00006178,0.00002081,-0.00032203,-0.00015757,-0.00000008,-0.000
 02191,0.00002404,0.00118235,0.00145376,-0.00028569,-0.00657824,-0.0036
 7400,0.00152851,-0.00023507,-0.00025150,0.00020782,-0.03045715,-0.0184
 6187,0.01779058,0.00197615,0.00116141,-0.00073000,0.00079263,-0.000215
 48,-0.00040544,-0.00145684,-0.00268158,0.00104157,0.00032486,0.0005920
 5,0.00018820,-0.00014617,0.00008843,-0.00013419,0.00001712,0.00012289,
 -0.00043749,0.00009451,-0.00000319,-0.00004373,0.00000599,-0.00000426,
 0.00000565,-0.00449084,-0.00474998,0.00205905,-0.00003587,-0.00000294,
 0.00001495,0.00000570,0.00001416,-0.00002451,0.07352795,-0.00011073,-0
 .00094215,-0.00082340,0.00113846,-0.00074760,0.00068183,0.00019700,0.0
 0063783,-0.00001169,-0.00013916,0.00021316,0.00023818,-0.00114286,0.00
 273264,0.00086399,-0.00000585,0.00002721,0.00003722,-0.00001489,0.0000
 1121,-0.00000474,-0.00004612,0.00026874,0.00008690,0.00019856,-0.00008
 100,0.00013400,-0.00003805,-0.00001360,0.00001846,-0.00012730,-0.00029
 486,-0.00021414,0.00007015,-0.00156229,-0.00486085,0.00005541,-0.00000
 758,0.00001686,0.00002667,-0.00152979,0.00361273,0.00026486,-0.0001808
 0,0.00032159,-0.00000504,-0.00000781,0.00000253,-0.00000453,-0.0000024
 9,0.00000499,-0.00000456,0.00000443,-0.00000117,0.00000085,0.00000866,
 -0.00000487,0.00000206,-0.00001044,-0.00002135,0.03198280,-0.03815205,
 0.00571788,-0.01712290,-0.09678845,-0.05974918,0.00150212,-0.00063147,
 -0.00215887,0.00009415,0.00000311,0.00000748,-0.00000850,-0.00000371,-
 0.00000416,-0.00001463,0.00000249,-0.00002975,-0.00019605,-0.00003028,
 0.00024641,0.00002018,-0.00002890,0.00000707,0.00004698,-0.00001702,0.
 00002213,0.00000141,0.00004845,-0.00000463,-0.00004731,0.00004596,-0.0
 0003846,-0.00002241,-0.00001098,-0.00001056,0.00002730,0.00001394,-0.0
 0001926,-0.00000518,-0.00000240,-0.00000112,0.00000680,-0.00001554,0.0
 0002208,-0.00001366,0.00001466,-0.00002084,-0.00000434,-0.00000358,0.0
 0000286,-0.00000905,-0.00000005,0.00000944,-0.00001893,0.00002032,-0.0
 0002809,-0.00000260,0.00000197,0.00001053,0.00001261,-0.00001658,0.000
 02175,0.00001492,-0.00000980,0.00007703,0.00004791,0.00004640,-0.00003
 386,0.00003132,-0.00003471,-0.00001871,-0.00036879,-0.00016792,0.00013
 830,0.00019806,0.00016380,0.00026444,0.00010180,0.00002964,-0.00003814
 ,-0.00262400,-0.00096800,-0.00098292,-0.00469574,0.00444535,0.00162450
 ,0.00024942,0.00013550,-0.00017965,-0.02167725,-0.04221406,0.02774257,
 0.00083373,0.00476726,0.00040640,-0.00002478,0.00002970,0.00020436,-0.
 00109519,-0.00228951,-0.00268624,0.00088678,0.00019013,0.00036686,-0.0
 0003426,0.00035009,0.00005178,0.00000376,0.00004230,-0.00023958,-0.000
 17630,-0.00000552,0.00008540,0.00000284,-0.00001249,0.00001946,-0.0030
 5420,0.00161658,-0.00135163,0.00002529,0.00001120,-0.00002195,-0.00000
 269,-0.00000762,0.00000201,0.01480665,0.17083235,0.00030950,-0.0009992
 3,-0.00030607,-0.00009500,-0.00131530,-0.00030590,-0.00023132,0.000038
 97,0.00027449,0.00000837,0.00014787,0.00015731,-0.00218317,-0.00001306
 ,-0.00100421,-0.00004551,-0.00010322,0.00002560,-0.00000807,0.00002140
 ,0.00000980,0.00013981,0.00005189,0.00004591,-0.00000410,-0.00005314,0
 .00017881,0.00000299,0.00001077,-0.00000572,0.00014745,-0.00017772,0.0
 0016676,-0.00023372,0.00287472,0.00046440,0.00002406,0.00001087,-0.000
 01815,-0.00217835,0.00204194,-0.00141629,-0.00005955,0.00015689,0.0000
 1933,-0.00000522,-0.00000641,-0.00001042,-0.00000169,0.00000037,0.0000
 0143,-0.00001067,-0.00001507,0.00001784,-0.00000488,0.00001271,-0.0000
 3654,0.00000825,-0.00000579,-0.00001832,-0.00167694,0.00391787,-0.0076
 3690,-0.01092257,-0.06146583,-0.03091977,-0.00084244,-0.00081642,0.001
 75150,0.00002388,-0.00000472,-0.00000966,-0.00000152,0.00000249,-0.000
 00286,0.00001737,-0.00001478,0.00000191,0.00004308,0.00009263,-0.00014
 755,-0.00000603,0.00000804,-0.00001683,-0.00003050,-0.00000134,0.00001
 052,0.00000424,-0.00000429,-0.00000049,0.00000253,0.00000214,0.0000063
 0,-0.00000278,-0.00000227,0.00000033,0.00000028,0.00001560,-0.00001170
 ,0.00000185,-0.00000197,0.00000103,0.00000195,-0.00000575,0.00000852,0
 .00000159,0.00000373,-0.00001427,-0.00000312,-0.00000086,0.00000203,-0
 .00000156,-0.00000147,0.00000372,-0.00001038,0.00000866,-0.00001451,0.
 00000025,0.00000366,0.00000851,0.00000667,-0.00000840,0.00001148,0.000
 04851,-0.00002644,0.00009649,0.00002250,0.00005430,-0.00000754,0.00002
 150,-0.00003424,-0.00008106,-0.00045477,0.00006288,0.00003741,0.000236
 29,-0.00035231,0.00012988,0.00013496,0.00000932,-0.00005835,-0.0004834
 8,0.00176040,0.00162161,0.00315354,0.00086946,-0.00116727,0.00010558,-
 0.00005196,-0.00019323,0.01846141,0.02048121,-0.01987734,0.00181152,0.
 00241701,-0.00466504,-0.00053507,0.00002481,-0.00022265,0.00040327,-0.
 00005255,0.00032773,-0.00007803,0.00002185,-0.00005293,-0.00002799,0.0
 0005924,0.00006133,-0.00001503,-0.00007454,0.00006643,0.00000421,-0.00
 000648,0.00002122,0.00000231,-0.00000878,0.00001138,0.00204085,-0.0000
 0113,-0.00127673,0.00001538,0.00000589,-0.00001978,-0.00000391,-0.0000
 0851,0.00000075,-0.00705385,0.03044639,0.06394330,0.00000136,-0.000047
 40,0.00005140,-0.00001947,0.00000989,0.00003092,-0.00004113,0.00001152
 ,-0.00002553,-0.00006401,0.00003655,-0.00002276,-0.00007013,-0.0000221
 7,0.00000892,0.00000796,-0.00001893,-0.00000151,0.00002555,0.00004441,
 -0.00003601,-0.00002002,0.00002082,-0.00004275,-0.00013498,-0.00002758
 ,0.00009848,0.00019486,-0.00039786,-0.00034081,0.00024932,0.00035674,0
 .00002483,0.00014447,0.00005497,-0.00007419,-0.00009006,-0.00008399,0.
 00018692,-0.00017203,0.00006982,-0.00000580,-0.00016751,0.00011657,0.0
 0011791,0.00000077,0.00002114,-0.00003109,0.00019668,-0.00012787,-0.00
 033415,0.00001336,-0.00001472,-0.00004088,0.00000422,-0.00001718,0.000
 07106,-0.00000915,0.00001226,0.00004635,-0.00016936,0.00003496,-0.0000
 0226,0.00007531,-0.00000072,0.00002643,0.00002584,0.00001425,0.0000008
 7,0.00031071,0.00076899,0.00093479,0.00006314,-0.00007543,-0.00025059,
 -0.00003658,-0.00011297,-0.00003618,0.00155419,0.00077285,0.00237405,-
 0.00213068,-0.00094954,0.00003439,-0.00098179,0.00038368,0.00110085,-0
 .04125251,0.02603923,0.01368995,-0.00203419,-0.02596092,-0.01323759,-0
 .00082074,0.00049372,-0.00084569,0.00046208,0.00095066,0.00063155,-0.0
 0395525,0.00063502,-0.00372085,0.00002607,-0.00004096,0.00003200,-0.00
 012404,0.00004694,0.00012519,0.00001170,-0.00000358,0.00000407,0.00000
 630,0.00001158,-0.00000900,0.00002004,0.00001088,-0.00004084,-0.000006
 46,-0.00001532,0.00003445,0.00000701,0.00000037,-0.00000470,-0.0001166
 4,0.00005144,-0.00012408,-0.00001422,-0.00002395,0.00000319,0.00000652
 ,0.00000219,0.00003420,0.00011269,-0.00003338,0.00004298,-0.00003421,0
 .00001554,-0.00002438,-0.00001150,0.00001105,-0.00001585,0.00004666,-0
 .00002313,0.00003575,0.00003562,-0.00000916,-0.00001608,-0.00000576,0.
 00001458,-0.00002046,0.00008190,-0.00029959,0.00025791,0.00007085,0.00
 034636,0.00043010,0.00008375,-0.00037419,0.00037628,0.00017265,-0.0003
 1864,-0.00241776,0.00085431,-0.00190645,0.00346830,0.00016090,-0.00167
 242,-0.00070630,-0.01473262,0.00504116,-0.01397544,-0.00087274,-0.0007
 9327,-0.00412510,-0.00013576,0.00000202,-0.00017187,0.00003719,-0.0000
 5053,0.00007680,-0.00000180,-0.00000824,0.00001079,-0.00000637,-0.0000
 1514,0.00003122,0.00009465,0.00000704,0.00000528,0.06307310,0.00001293
 ,0.00002114,-0.00004380,0.00001416,0.00004869,-0.00006170,0.00002423,-
 0.00000670,0.00002028,0.00000382,-0.00000975,0.00001258,-0.00000015,-0
 .00001780,-0.00000728,0.00002841,-0.00000599,0.00000344,-0.00003379,-0
 .00001716,0.00001712,0.00003716,-0.00002497,0.00001953,0.00014207,0.00
 011044,-0.00006427,-0.00005031,0.00049711,0.00027276,0.00013514,-0.000
 19100,-0.00044159,-0.00002747,-0.00005600,0.00017998,0.00003220,0.0000
 2713,-0.00008090,-0.00011781,0.00029686,0.00015653,0.00010130,0.000296
 10,-0.00002083,-0.00000206,-0.00000920,0.00000390,-0.00060014,-0.00001
 181,0.00063222,-0.00001988,0.00001740,0.00001615,-0.00000262,0.0000117
 6,-0.00003171,0.00001212,-0.00000972,-0.00003580,0.00012225,0.00006487
 ,0.00000727,-0.00005097,0.00000946,-0.00000497,-0.00000762,-0.00003057
 ,-0.00002428,-0.00007208,-0.00109313,-0.00118928,-0.00002599,0.0005398
 5,0.00036801,0.00002540,0.00009762,0.00022441,-0.00155549,-0.00013106,
 0.00122661,-0.00294564,0.00135459,-0.00012140,0.00087126,-0.00055643,-
 0.00100037,0.02936904,-0.02671447,-0.00769020,-0.02693236,-0.09853963,
 -0.05685427,0.00027735,0.00046283,-0.00033869,0.00213344,-0.00008585,-
 0.00174552,-0.00040426,0.00070908,0.00224335,-0.00001062,-0.00009740,0
 .00017532,-0.00033636,0.00000307,-0.00018248,-0.00004226,0.00002637,-0
 .00002498,-0.00001315,-0.00000875,0.00005413,-0.00003601,0.00004482,-0
 .00003114,-0.00000042,0.00000601,0.00000232,0.00001626,-0.00003527,0.0
 0004380,0.00003485,-0.00003843,0.00006882,0.00000692,0.00001865,-0.000
 00400,-0.00000209,-0.00000365,-0.00001749,-0.00007426,0.00001006,-0.00
 000816,0.00001027,-0.00000900,0.00000739,0.00001910,-0.00000149,-0.000
 00259,-0.00004363,-0.00000372,0.00000090,-0.00003789,-0.00001079,0.000
 00431,0.00001380,0.00000076,-0.00000740,-0.00007228,0.00002734,-0.0001
 7444,0.00022769,-0.00000367,0.00007556,-0.00037182,0.00040100,-0.00039
 935,-0.00055020,-0.00171501,0.00071795,0.00027593,-0.00060922,0.006198
 57,-0.00126227,0.00197522,0.00005340,0.00488090,-0.00917121,0.00144609
 ,-0.00009182,-0.00026229,0.00209247,-0.00005508,-0.00019134,0.00040109
 ,-0.00003018,0.00006249,-0.00007636,0.00002006,0.00001149,-0.00001952,
 0.00000206,-0.00000278,-0.00000991,-0.00000717,0.00007596,-0.00000200,
 -0.00296395,0.13244709,0.00003268,-0.00003463,0.00007054,0.00008404,0.
 00002826,-0.00004600,-0.00001519,-0.00000041,-0.00000899,-0.00005824,0
 .00003013,-0.00004221,-0.00003481,-0.00002602,-0.00001671,-0.00000472,
 0.00001461,-0.00002670,0.00000272,0.00000896,-0.00001481,-0.00003716,-
 0.00001035,-0.00002125,0.00008397,-0.00009519,0.00015237,-0.00010758,0
 .00014876,-0.00004755,-0.00032544,-0.00013564,0.00002063,0.00013455,0.
 00024516,-0.00046113,-0.00005975,-0.00002630,0.00013897,-0.00021338,0.
 00009307,0.00016804,0.00010053,0.00046641,-0.00009190,0.00000913,0.000
 01740,-0.00002129,0.00005243,0.00014978,0.00005668,0.00000609,-0.00000
 180,-0.00001509,0.00000230,-0.00001374,0.00004630,-0.00000026,0.000009
 01,0.00002287,-0.00015617,0.00009435,0.00016291,0.00001233,0.00001788,
 0.00004960,0.00004552,-0.00002002,-0.00004113,-0.00034680,-0.00064538,
 0.00013796,-0.00024700,0.00012238,0.00020140,-0.00008242,0.00016484,0.
 00007739,0.00072609,-0.00534484,-0.00054002,0.00101189,0.00317627,0.00
 162739,0.00066136,0.00154252,0.00028291,0.01467876,-0.01266977,-0.0180
 5089,-0.01286112,-0.05459163,-0.02223411,0.00093955,-0.00108259,0.0012
 3343,-0.00079581,-0.00186327,-0.00010907,-0.00561055,0.00575533,-0.001
 22831,-0.00000213,-0.00003865,-0.00001799,-0.00008249,-0.00007810,-0.0
 0004009,0.00002300,-0.00000866,-0.00000034,0.00001974,-0.00001249,0.00
 004619,0.00000479,0.00004782,-0.00005072,-0.00000539,-0.00001325,0.000
 02734,0.00001981,-0.00001568,0.00001639,-0.00009200,0.00002613,-0.0000
 7819,-0.00000991,-0.00000869,-0.00000308,0.00001058,0.00000186,0.00002
 301,0.00005463,-0.00002672,0.00004024,-0.00002416,0.00001022,-0.000025
 07,0.00000458,0.00001036,-0.00001942,0.00003634,-0.00002171,0.00000763
 ,0.00000601,-0.00004201,-0.00004092,0.00000660,0.00001301,-0.00002622,
 -0.00018007,-0.00039124,0.00026285,0.00070325,0.00043349,0.00068215,0.
 00015447,-0.00002709,0.00023069,-0.00116287,-0.00233342,-0.00178479,0.
 00156104,0.00433275,0.00078298,0.00292154,0.00061419,-0.00330448,-0.01
 462503,0.00674747,-0.07438307,-0.00340595,0.00141304,-0.00040857,0.000
 03952,-0.00015285,0.00001909,0.00000116,-0.00000401,0.00003360,0.00001
 307,0.00000021,-0.00000311,-0.00000387,-0.00001336,0.00001937,0.000083
 88,0.00004342,0.00003303,0.01630233,0.05397042,0.11652928\\0.00000161,
 -0.00000011,0.00000087,-0.00000253,0.00000375,-0.00000298,0.00000234,-
 0.00000111,-0.00000069,0.00000317,-0.00000251,0.00000291,0.00000815,-0
 .00000689,-0.00000900,-0.00000036,-0.00000276,-0.00000015,-0.00000052,
 0.00000270,0.00000238,0.00000551,0.00000471,0.00000524,-0.00002050,0.0
 0000230,0.00000054,0.00000003,-0.00000058,-0.00000790,-0.00000162,0.00
 000580,-0.00000456,-0.00000305,-0.00000871,0.00001478,0.00001174,-0.00
 000471,0.00000216,0.00000702,0.00000294,0.00000033,-0.00000138,0.00000
 086,-0.00000690,-0.00000155,-0.00000476,-0.00000236,-0.00000219,0.0000
 0692,-0.00000823,-0.00000600,0.00000790,-0.00000516,0.00000016,0.00000
 309,-0.00000410,0.00000299,0.00000054,-0.00000165,-0.00001016,0.000036
 10,-0.00000969,0.00000478,-0.00001668,0.00000800,-0.00000350,0.0000008
 4,-0.00000426,0.00001564,-0.00001496,0.00000664,-0.00000761,-0.0000045
 0,0.00001980,-0.00000049,0.00000623,-0.00000206,-0.00000495,-0.0000116
 5,0.00001731,0.00000754,-0.00000702,-0.00000371,0.00001533,0.00000254,
 0.00000650,-0.00001895,-0.00001307,-0.00002529,-0.00002679,-0.00000757
 ,0.00000819,0.00000532,0.00000981,-0.00000697,0.00001007,0.00000033,0.
 00000127,-0.00000214,0.00000129,0.00000361,-0.00001690,0.00000133,0.00
 000448,0.00002620,-0.00002577,0.00000788,-0.00001125,-0.00000131,-0.00
 001234,-0.00000330,0.00001145,-0.00000575,0.00002042,0.00000731,-0.000
 00820,-0.00000044,-0.00000365,-0.00000842,-0.00001436,-0.00000017,0.00
 000557,0.00000752,-0.00000840,0.00002588,-0.00000855,0.00000717,0.0000
 0339,-0.00000029,0.00000086,-0.00000569,0.00001064,-0.00000717,-0.0000
 3181,0.00000221,-0.00000617,0.00000093,-0.00000085,0.00000492,0.000003
 20,-0.00000619,-0.00000103,0.00004412,0.00000647,-0.00000212,-0.000002
 92,-0.00000447,0.00000096,-0.00000436,-0.00002224,0.00002095,0.0000188
 6,0.00000566,-0.00000403,-0.00000122,-0.00000067,0.00000585,-0.0000093
 9,-0.00000357,-0.00001197,-0.00000933,0.00000739,-0.00000080,-0.000005
 01,0.00000491,0.00001205,0.00000430,0.00001181,-0.00000773,0.00000162,
 -0.00000105,-0.00000189,-0.00001157,0.00000592,0.00000605,0.00000192,0
 .00000066,0.00000278,-0.00000545,-0.00000333,0.00000160,-0.00000358,-0
 .00000145,0.00000126,-0.00000296,-0.00000618,-0.00000703,-0.00001198,0
 .00000822,0.00001365,0.00002295\\\@
 The archive entry for this job was punched.


 TO DETECT ERRORS, THE PROGRAMMER MUST HAVE A CONNIVING MIND,
 ONE THAT DELIGHTS IN UNCOVERING FLAWS WHERE BEAUTY AND
 PERFECTION WERE ONCE THOUGHT TO LIE.

             -- THE PSYCHOLOGY OF COMPUTER PROGRAMMING
                GERALD M. WEINBERG
 Job cpu time:       6 days  8 hours 18 minutes 35.1 seconds.
 Elapsed time:       0 days  3 hours 14 minutes 40.8 seconds.
 File lengths (MBytes):  RWF=  13884 Int=      0 D2E=      0 Chk=    138 Scr=      2
 Normal termination of Gaussian 16 at Wed Feb 22 15:31:18 2023.
