 Entering Gaussian System, Link 0=/apps/GAU16/avx2/g16/g16
 Initial command:
 /apps/GAU16/avx2//g16/l1.exe "/localscratch/chegho/Gau-120256.inp" -scrdir="/localscratch/chegho/"
 Entering Link 1 = /apps/GAU16/avx2//g16/l1.exe PID=    120257.
  
 Copyright (c) 1988-2019, Gaussian, Inc.  All Rights Reserved.
  
 This is part of the Gaussian(R) 16 program.  It is based on
 the Gaussian(R) 09 system (copyright 2009, Gaussian, Inc.),
 the Gaussian(R) 03 system (copyright 2003, Gaussian, Inc.),
 the Gaussian(R) 98 system (copyright 1998, Gaussian, Inc.),
 the Gaussian(R) 94 system (copyright 1995, Gaussian, Inc.),
 the Gaussian 92(TM) system (copyright 1992, Gaussian, Inc.),
 the Gaussian 90(TM) system (copyright 1990, Gaussian, Inc.),
 the Gaussian 88(TM) system (copyright 1988, Gaussian, Inc.),
 the Gaussian 86(TM) system (copyright 1986, Carnegie Mellon
 University), and the Gaussian 82(TM) system (copyright 1983,
 Carnegie Mellon University). Gaussian is a federally registered
 trademark of Gaussian, Inc.
  
 This software contains proprietary and confidential information,
 including trade secrets, belonging to Gaussian, Inc.
  
 This software is provided under written license and may be
 used, copied, transmitted, or stored only in accord with that
 written license.
  
 The following legend is applicable only to US Government
 contracts under FAR:
  
                    RESTRICTED RIGHTS LEGEND
  
 Use, reproduction and disclosure by the US Government is
 subject to restrictions as set forth in subparagraphs (a)
 and (c) of the Commercial Computer Software - Restricted
 Rights clause in FAR 52.227-19.
  
 Gaussian, Inc.
 340 Quinnipiac St., Bldg. 40, Wallingford CT 06492
  
  
 ---------------------------------------------------------------
 Warning -- This program may not be used in any manner that
 competes with the business of Gaussian, Inc. or will provide
 assistance to any competitor of Gaussian, Inc.  The licensee
 of this program is prohibited from giving any competitor of
 Gaussian, Inc. access to this program.  By using this program,
 the user acknowledges that Gaussian, Inc. is engaged in the
 business of creating and licensing software in the field of
 computational chemistry and represents and warrants to the
 licensee that it is not a competitor of Gaussian, Inc. and that
 it will not use this program in any manner prohibited above.
 ---------------------------------------------------------------
  

 Cite this work as:
 Gaussian 16, Revision C.01,
 M. J. Frisch, G. W. Trucks, H. B. Schlegel, G. E. Scuseria, 
 M. A. Robb, J. R. Cheeseman, G. Scalmani, V. Barone, 
 G. A. Petersson, H. Nakatsuji, X. Li, M. Caricato, A. V. Marenich, 
 J. Bloino, B. G. Janesko, R. Gomperts, B. Mennucci, H. P. Hratchian, 
 J. V. Ortiz, A. F. Izmaylov, J. L. Sonnenberg, D. Williams-Young, 
 F. Ding, F. Lipparini, F. Egidi, J. Goings, B. Peng, A. Petrone, 
 T. Henderson, D. Ranasinghe, V. G. Zakrzewski, J. Gao, N. Rega, 
 G. Zheng, W. Liang, M. Hada, M. Ehara, K. Toyota, R. Fukuda, 
 J. Hasegawa, M. Ishida, T. Nakajima, Y. Honda, O. Kitao, H. Nakai, 
 T. Vreven, K. Throssell, J. A. Montgomery, Jr., J. E. Peralta, 
 F. Ogliaro, M. J. Bearpark, J. J. Heyd, E. N. Brothers, K. N. Kudin, 
 V. N. Staroverov, T. A. Keith, R. Kobayashi, J. Normand, 
 K. Raghavachari, A. P. Rendell, J. C. Burant, S. S. Iyengar, 
 J. Tomasi, M. Cossi, J. M. Millam, M. Klene, C. Adamo, R. Cammi, 
 J. W. Ochterski, R. L. Martin, K. Morokuma, O. Farkas, 
 J. B. Foresman, and D. J. Fox, Gaussian, Inc., Wallingford CT, 2019.
 
 ******************************************
 Gaussian 16:  ES64L-G16RevC.01  3-Jul-2019
                22-Feb-2023 
 ******************************************
 %nprocshared=48
 Will use up to   48 processors via shared memory.
 %chk=Mo19S45_Szz_MoCO3.chk
 %mem=100GB
 ----------------------------------------------------------
 # opt freq b3lyp/gen nosymm pseudo=read scf=maxcycles=1000
 ----------------------------------------------------------
 1/18=20,19=15,26=3,38=1/1,3;
 2/9=110,12=2,15=1,17=6,18=5,40=1/2;
 3/5=7,11=2,16=1,17=8,25=1,30=1,71=1,74=-5/1,2,3;
 4//1;
 5/5=2,7=1000,38=5/2;
 6/7=2,8=2,9=2,10=2,28=1/1;
 7/30=1/1,2,3,16;
 1/18=20,19=15,26=3/3(2);
 2/9=110,15=1/2;
 99//99;
 2/9=110,15=1/2;
 3/5=7,6=1,11=2,16=1,17=8,25=1,30=1,71=1,74=-5,82=7/1,2,3;
 4/5=5,16=3,69=1/1;
 5/5=2,7=1000,38=5/2;
 7/30=1/1,2,3,16;
 1/18=20,19=15,26=3/3(-5);
 2/9=110,15=1/2;
 6/7=2,8=2,9=2,10=2,19=2,28=1/1;
 99/9=1/99;
 -------------------
 Title Card Required
 -------------------
 Symbolic Z-matrix:
 Charge =  0 Multiplicity = 1
 Mo                    0.37209   1.30173   12.56812 
 S                     2.39744   2.22894   13.57588 
 S                    -0.67861   2.09117   14.75376 
 S                    -0.43752   0.9399    10.30553 
 S                     1.96637  -0.44155   11.95938 
 Mo                   -2.0023    2.65561   10.96686 
 S                    -2.83926   2.4062    8.67602 
 S                    -0.02721   3.60625   11.98918 
 Mo                    0.98577   2.87765   9.88677 
 S                     0.15304   2.60661   7.59545 
 S                     2.56749   1.12353   9.25488 
 Mo                    3.41891   1.45684   11.50245 
 Mo                   -1.41049   4.33237   8.26947 
 S                     5.52532   2.4022    12.58872 
 S                     3.03824   3.76755   10.88789 
 S                    -2.35342   5.00806   10.40984 
 S                     1.21495   6.92751   6.62728 
 Mo                   -4.34186   4.10695   9.46687 
 S                    -5.82747   2.07512   9.6905 
 S                    -5.43557   4.67864   11.40751 
 Mo                    2.64812  -0.06562   14.23791 
 S                     4.92193   0.16546   15.30522 
 S                     1.75506   0.73584   16.27856 
 Mo                    1.61325   4.49406   7.22139 
 S                     0.88933   4.39879   4.83177 
 S                     0.61902   5.21934   9.29872 
 Mo                    4.03453   3.00492   8.80683 
 S                     3.12697   2.69      6.56902 
 S                     3.69929   5.32801   8.19787 
 Mo                    4.5508    4.53321   6.08589 
 S                     6.99692   4.95652   6.40929 
 S                     4.40609   7.00971   5.61375 
 Mo                    2.48489   6.3308    4.67347 
 S                     3.85942   4.40442   3.89699 
 S                    -1.18419   7.19081   3.93943 
 Mo                   -0.83838   5.98517   5.64108 
 S                    -2.2614    4.03651   5.85528 
 S                    -1.78553   6.82866   7.70151 
 Mo                   -3.59548   5.85799   6.56624 
 S                    -5.57877   4.52717   7.3353 
 S                    -4.40207   7.03881   5.01405 
 Mo                   -5.12086   2.23514   11.81709 
 S                    -3.22631   3.26464   13.07388 
 S                    -3.40784   0.5965    11.48286 
 Mo                   -2.54512   0.9777    13.77671 
 S                    -1.05817  -0.74368   13.07969 
 S                    -4.00749   0.32564   15.15549 
 Mo                   -0.24269  -0.23488   15.30615 
 S                     1.34411  -1.97068   14.69185 
 S                    -1.21566  -1.0814    16.98673 
 Mo                    5.88553   0.12307   13.01239 
 S                     5.02285  -0.43733   10.90493 
 S                     8.3663    1.00909   10.72842 
 Mo                    6.34467   1.58448   10.40663 
 S                     5.6253    1.09157   8.12296 
 S                     6.20472   3.95056   9.80406 
 Mo                    7.05113   2.92525   7.86562 
 S                     9.1193    2.47334   7.86897 
 S                     2.25782   7.59382   2.98557 
 S                     7.87042  -0.49284   13.46456 
 S                    -6.7667    1.6033    12.9932 
 S                    -5.14564   6.26315   8.4638 
 S                     4.62232  -1.6308    14.23595 
 S                     6.54154   3.12819   5.44914 
 Mo                   -7.44622   3.66609   10.06262 
 C                    -8.07618   3.48186   8.10998 
 C                    -8.89606   5.09104   10.39592 
 C                    -8.7671    2.18989   10.62804 
 O                    -8.41727   3.3821    7.05271 
 O                    -9.68108   5.86259   10.57638 
 O                    -9.4823    1.39059   10.93419 
 

 GradGradGradGradGradGradGradGradGradGradGradGradGradGradGradGradGradGrad
 Berny optimization.
 Initialization pass.
                           ----------------------------
                           !    Initial Parameters    !
                           ! (Angstroms and Degrees)  !
 --------------------------                            --------------------------
 ! Name  Definition              Value          Derivative Info.                !
 --------------------------------------------------------------------------------
 ! R1    R(1,2)                  2.4449         estimate D2E/DX2                !
 ! R2    R(1,3)                  2.5503         estimate D2E/DX2                !
 ! R3    R(1,4)                  2.4302         estimate D2E/DX2                !
 ! R4    R(1,5)                  2.4395         estimate D2E/DX2                !
 ! R5    R(1,8)                  2.4094         estimate D2E/DX2                !
 ! R6    R(1,46)                 2.5477         estimate D2E/DX2                !
 ! R7    R(2,12)                 2.4369         estimate D2E/DX2                !
 ! R8    R(2,21)                 2.4013         estimate D2E/DX2                !
 ! R9    R(3,45)                 2.3829         estimate D2E/DX2                !
 ! R10   R(3,48)                 2.4302         estimate D2E/DX2                !
 ! R11   R(4,6)                  2.4144         estimate D2E/DX2                !
 ! R12   R(4,9)                  2.4405         estimate D2E/DX2                !
 ! R13   R(5,12)                 2.4336         estimate D2E/DX2                !
 ! R14   R(5,21)                 2.4079         estimate D2E/DX2                !
 ! R15   R(6,7)                  2.4517         estimate D2E/DX2                !
 ! R16   R(6,8)                  2.4186         estimate D2E/DX2                !
 ! R17   R(6,16)                 2.4429         estimate D2E/DX2                !
 ! R18   R(6,43)                 2.5117         estimate D2E/DX2                !
 ! R19   R(6,44)                 2.5459         estimate D2E/DX2                !
 ! R20   R(7,13)                 2.4324         estimate D2E/DX2                !
 ! R21   R(7,18)                 2.4033         estimate D2E/DX2                !
 ! R22   R(8,9)                  2.4448         estimate D2E/DX2                !
 ! R23   R(9,10)                 2.453          estimate D2E/DX2                !
 ! R24   R(9,11)                 2.445          estimate D2E/DX2                !
 ! R25   R(9,15)                 2.4509         estimate D2E/DX2                !
 ! R26   R(9,26)                 2.4421         estimate D2E/DX2                !
 ! R27   R(10,13)                2.4243         estimate D2E/DX2                !
 ! R28   R(10,24)                2.4155         estimate D2E/DX2                !
 ! R29   R(11,12)                2.4264         estimate D2E/DX2                !
 ! R30   R(11,27)                2.4275         estimate D2E/DX2                !
 ! R31   R(12,14)                2.5516         estimate D2E/DX2                !
 ! R32   R(12,15)                2.4211         estimate D2E/DX2                !
 ! R33   R(12,52)                2.5529         estimate D2E/DX2                !
 ! R34   R(13,16)                2.4345         estimate D2E/DX2                !
 ! R35   R(13,26)                2.4423         estimate D2E/DX2                !
 ! R36   R(13,37)                2.5768         estimate D2E/DX2                !
 ! R37   R(13,38)                2.5874         estimate D2E/DX2                !
 ! R38   R(14,51)                2.346          estimate D2E/DX2                !
 ! R39   R(14,54)                2.4701         estimate D2E/DX2                !
 ! R40   R(15,27)                2.43           estimate D2E/DX2                !
 ! R41   R(16,18)                2.378          estimate D2E/DX2                !
 ! R42   R(17,24)                2.5364         estimate D2E/DX2                !
 ! R43   R(17,33)                2.4054         estimate D2E/DX2                !
 ! R44   R(17,36)                2.4651         estimate D2E/DX2                !
 ! R45   R(18,19)                2.5269         estimate D2E/DX2                !
 ! R46   R(18,20)                2.2998         estimate D2E/DX2                !
 ! R47   R(18,40)                2.5            estimate D2E/DX2                !
 ! R48   R(18,42)                3.1039         estimate D2E/DX2                !
 ! R49   R(18,62)                2.5103         estimate D2E/DX2                !
 ! R50   R(19,42)                2.2466         estimate D2E/DX2                !
 ! R51   R(19,65)                2.3            estimate D2E/DX2                !
 ! R52   R(20,42)                2.4975         estimate D2E/DX2                !
 ! R53   R(20,65)                2.6223         estimate D2E/DX2                !
 ! R54   R(21,22)                2.5225         estimate D2E/DX2                !
 ! R55   R(21,23)                2.3673         estimate D2E/DX2                !
 ! R56   R(21,48)                3.0865         estimate D2E/DX2                !
 ! R57   R(21,49)                2.3528         estimate D2E/DX2                !
 ! R58   R(21,63)                2.5194         estimate D2E/DX2                !
 ! R59   R(22,51)                2.4874         estimate D2E/DX2                !
 ! R60   R(22,63)                2.1118         estimate D2E/DX2                !
 ! R61   R(23,48)                2.4246         estimate D2E/DX2                !
 ! R62   R(24,25)                2.4987         estimate D2E/DX2                !
 ! R63   R(24,26)                2.4145         estimate D2E/DX2                !
 ! R64   R(24,28)                2.4437         estimate D2E/DX2                !
 ! R65   R(24,29)                2.4496         estimate D2E/DX2                !
 ! R66   R(25,33)                2.5107         estimate D2E/DX2                !
 ! R67   R(25,36)                2.4812         estimate D2E/DX2                !
 ! R68   R(27,28)                2.4353         estimate D2E/DX2                !
 ! R69   R(27,29)                2.4249         estimate D2E/DX2                !
 ! R70   R(27,55)                2.5805         estimate D2E/DX2                !
 ! R71   R(27,56)                2.5687         estimate D2E/DX2                !
 ! R72   R(28,30)                2.3787         estimate D2E/DX2                !
 ! R73   R(29,30)                2.4119         estimate D2E/DX2                !
 ! R74   R(30,31)                2.5035         estimate D2E/DX2                !
 ! R75   R(30,32)                2.5253         estimate D2E/DX2                !
 ! R76   R(30,33)                3.0813         estimate D2E/DX2                !
 ! R77   R(30,34)                2.2991         estimate D2E/DX2                !
 ! R78   R(30,64)                2.5184         estimate D2E/DX2                !
 ! R79   R(31,57)                2.5            estimate D2E/DX2                !
 ! R80   R(31,64)                2.1147         estimate D2E/DX2                !
 ! R81   R(32,33)                2.2441         estimate D2E/DX2                !
 ! R82   R(33,34)                2.4906         estimate D2E/DX2                !
 ! R83   R(33,59)                2.1203         estimate D2E/DX2                !
 ! R84   R(35,36)                2.114          estimate D2E/DX2                !
 ! R85   R(36,37)                2.4224         estimate D2E/DX2                !
 ! R86   R(36,38)                2.4195         estimate D2E/DX2                !
 ! R87   R(36,39)                2.911          estimate D2E/DX2                !
 ! R88   R(37,39)                2.3671         estimate D2E/DX2                !
 ! R89   R(38,39)                2.3467         estimate D2E/DX2                !
 ! R90   R(39,40)                2.5092         estimate D2E/DX2                !
 ! R91   R(39,41)                2.1105         estimate D2E/DX2                !
 ! R92   R(39,62)                2.4835         estimate D2E/DX2                !
 ! R93   R(40,62)                2.1154         estimate D2E/DX2                !
 ! R94   R(42,43)                2.4957         estimate D2E/DX2                !
 ! R95   R(42,44)                2.394          estimate D2E/DX2                !
 ! R96   R(42,61)                2.1193         estimate D2E/DX2                !
 ! R97   R(43,45)                2.4876         estimate D2E/DX2                !
 ! R98   R(44,45)                2.4802         estimate D2E/DX2                !
 ! R99   R(45,46)                2.3791         estimate D2E/DX2                !
 ! R100  R(45,47)                2.113          estimate D2E/DX2                !
 ! R101  R(45,48)                3.0184         estimate D2E/DX2                !
 ! R102  R(46,48)                2.4251         estimate D2E/DX2                !
 ! R103  R(48,49)                2.4307         estimate D2E/DX2                !
 ! R104  R(48,50)                2.1184         estimate D2E/DX2                !
 ! R105  R(51,52)                2.3451         estimate D2E/DX2                !
 ! R106  R(51,54)                3.0227         estimate D2E/DX2                !
 ! R107  R(51,60)                2.1269         estimate D2E/DX2                !
 ! R108  R(51,63)                2.4837         estimate D2E/DX2                !
 ! R109  R(52,54)                2.4664         estimate D2E/DX2                !
 ! R110  R(53,54)                2.1264         estimate D2E/DX2                !
 ! R111  R(54,55)                2.4445         estimate D2E/DX2                !
 ! R112  R(54,56)                2.4456         estimate D2E/DX2                !
 ! R113  R(54,57)                2.9586         estimate D2E/DX2                !
 ! R114  R(55,57)                2.337          estimate D2E/DX2                !
 ! R115  R(56,57)                2.3506         estimate D2E/DX2                !
 ! R116  R(57,58)                2.117          estimate D2E/DX2                !
 ! R117  R(57,64)                2.478          estimate D2E/DX2                !
 ! R118  R(65,66)                2.06           estimate D2E/DX2                !
 ! R119  R(65,67)                2.06           estimate D2E/DX2                !
 ! R120  R(65,68)                2.06           estimate D2E/DX2                !
 ! R121  R(66,69)                1.1154         estimate D2E/DX2                !
 ! R122  R(67,70)                1.1154         estimate D2E/DX2                !
 ! R123  R(68,71)                1.1154         estimate D2E/DX2                !
 ! A1    A(2,1,3)               82.568          estimate D2E/DX2                !
 ! A2    A(2,1,4)              135.7433         estimate D2E/DX2                !
 ! A3    A(2,1,5)               80.3563         estimate D2E/DX2                !
 ! A4    A(2,1,8)               82.7381         estimate D2E/DX2                !
 ! A5    A(2,1,46)             133.3741         estimate D2E/DX2                !
 ! A6    A(3,1,4)              134.9706         estimate D2E/DX2                !
 ! A7    A(3,1,5)              134.7721         estimate D2E/DX2                !
 ! A8    A(3,1,8)               80.8848         estimate D2E/DX2                !
 ! A9    A(3,1,46)              81.092          estimate D2E/DX2                !
 ! A10   A(4,1,5)               83.0498         estimate D2E/DX2                !
 ! A11   A(4,1,8)               82.1541         estimate D2E/DX2                !
 ! A12   A(4,1,46)              83.1304         estimate D2E/DX2                !
 ! A13   A(5,1,8)              137.0393         estimate D2E/DX2                !
 ! A14   A(5,1,46)              80.9833         estimate D2E/DX2                !
 ! A15   A(8,1,46)             136.3097         estimate D2E/DX2                !
 ! A16   A(1,2,12)              82.8986         estimate D2E/DX2                !
 ! A17   A(1,2,21)              80.6615         estimate D2E/DX2                !
 ! A18   A(12,2,21)             83.5734         estimate D2E/DX2                !
 ! A19   A(1,3,45)              80.0186         estimate D2E/DX2                !
 ! A20   A(1,3,48)              79.899          estimate D2E/DX2                !
 ! A21   A(1,4,6)               81.6677         estimate D2E/DX2                !
 ! A22   A(1,4,9)               81.2135         estimate D2E/DX2                !
 ! A23   A(6,4,9)               81.9951         estimate D2E/DX2                !
 ! A24   A(1,5,12)              83.078          estimate D2E/DX2                !
 ! A25   A(1,5,21)              80.6387         estimate D2E/DX2                !
 ! A26   A(12,5,21)             83.5053         estimate D2E/DX2                !
 ! A27   A(4,6,7)               83.8588         estimate D2E/DX2                !
 ! A28   A(4,6,8)               82.2899         estimate D2E/DX2                !
 ! A29   A(4,6,16)             135.6431         estimate D2E/DX2                !
 ! A30   A(4,6,43)             135.8822         estimate D2E/DX2                !
 ! A31   A(4,6,44)              80.711          estimate D2E/DX2                !
 ! A32   A(7,6,8)              135.5384         estimate D2E/DX2                !
 ! A33   A(7,6,16)              80.551          estimate D2E/DX2                !
 ! A34   A(7,6,43)             129.9525         estimate D2E/DX2                !
 ! A35   A(7,6,44)              85.3328         estimate D2E/DX2                !
 ! A36   A(8,6,16)              80.5177         estimate D2E/DX2                !
 ! A37   A(8,6,43)              87.0231         estimate D2E/DX2                !
 ! A38   A(8,6,44)             133.0828         estimate D2E/DX2                !
 ! A39   A(16,6,43)             83.554          estimate D2E/DX2                !
 ! A40   A(16,6,44)            138.2203         estimate D2E/DX2                !
 ! A41   A(43,6,44)             75.9394         estimate D2E/DX2                !
 ! A42   A(6,7,13)              82.8246         estimate D2E/DX2                !
 ! A43   A(6,7,18)              80.4429         estimate D2E/DX2                !
 ! A44   A(13,7,18)             82.06           estimate D2E/DX2                !
 ! A45   A(1,8,6)               82.0077         estimate D2E/DX2                !
 ! A46   A(1,8,9)               81.5424         estimate D2E/DX2                !
 ! A47   A(6,8,9)               81.8207         estimate D2E/DX2                !
 ! A48   A(4,9,8)               81.2241         estimate D2E/DX2                !
 ! A49   A(4,9,10)              82.7943         estimate D2E/DX2                !
 ! A50   A(4,9,11)              81.4883         estimate D2E/DX2                !
 ! A51   A(4,9,15)             134.959          estimate D2E/DX2                !
 ! A52   A(4,9,26)             135.651          estimate D2E/DX2                !
 ! A53   A(8,9,10)             134.0712         estimate D2E/DX2                !
 ! A54   A(8,9,11)             134.7564         estimate D2E/DX2                !
 ! A55   A(8,9,15)              83.5409         estimate D2E/DX2                !
 ! A56   A(8,9,26)              81.899          estimate D2E/DX2                !
 ! A57   A(10,9,11)             84.1994         estimate D2E/DX2                !
 ! A58   A(10,9,15)            134.9079         estimate D2E/DX2                !
 ! A59   A(10,9,26)             80.2148         estimate D2E/DX2                !
 ! A60   A(11,9,15)             79.8806         estimate D2E/DX2                !
 ! A61   A(11,9,26)            136.2905         estimate D2E/DX2                !
 ! A62   A(15,9,26)             82.8744         estimate D2E/DX2                !
 ! A63   A(9,10,13)             83.1414         estimate D2E/DX2                !
 ! A64   A(9,10,24)             81.5524         estimate D2E/DX2                !
 ! A65   A(13,10,24)            82.9169         estimate D2E/DX2                !
 ! A66   A(9,11,12)             83.6305         estimate D2E/DX2                !
 ! A67   A(9,11,27)             83.2596         estimate D2E/DX2                !
 ! A68   A(12,11,27)            81.5145         estimate D2E/DX2                !
 ! A69   A(2,12,5)              80.6314         estimate D2E/DX2                !
 ! A70   A(2,12,11)            133.2008         estimate D2E/DX2                !
 ! A71   A(2,12,14)             82.3239         estimate D2E/DX2                !
 ! A72   A(2,12,15)             81.239          estimate D2E/DX2                !
 ! A73   A(2,12,52)            134.2315         estimate D2E/DX2                !
 ! A74   A(5,12,11)             81.7974         estimate D2E/DX2                !
 ! A75   A(5,12,14)            134.5722         estimate D2E/DX2                !
 ! A76   A(5,12,15)            134.2906         estimate D2E/DX2                !
 ! A77   A(5,12,52)             80.8024         estimate D2E/DX2                !
 ! A78   A(11,12,14)           137.299          estimate D2E/DX2                !
 ! A79   A(11,12,15)            80.8403         estimate D2E/DX2                !
 ! A80   A(11,12,52)            84.3609         estimate D2E/DX2                !
 ! A81   A(14,12,15)            83.3535         estimate D2E/DX2                !
 ! A82   A(14,12,52)            81.7137         estimate D2E/DX2                !
 ! A83   A(15,12,52)           138.3729         estimate D2E/DX2                !
 ! A84   A(7,13,10)             82.0448         estimate D2E/DX2                !
 ! A85   A(7,13,16)             81.1026         estimate D2E/DX2                !
 ! A86   A(7,13,26)            134.849          estimate D2E/DX2                !
 ! A87   A(7,13,37)             82.6289         estimate D2E/DX2                !
 ! A88   A(7,13,38)            135.6861         estimate D2E/DX2                !
 ! A89   A(10,13,16)           133.7737         estimate D2E/DX2                !
 ! A90   A(10,13,26)            80.7792         estimate D2E/DX2                !
 ! A91   A(10,13,37)            82.5743         estimate D2E/DX2                !
 ! A92   A(10,13,38)           135.9923         estimate D2E/DX2                !
 ! A93   A(16,13,26)            81.4049         estimate D2E/DX2                !
 ! A94   A(16,13,37)           136.6906         estimate D2E/DX2                !
 ! A95   A(16,13,38)            82.4766         estimate D2E/DX2                !
 ! A96   A(26,13,37)           135.3106         estimate D2E/DX2                !
 ! A97   A(26,13,38)            82.1012         estimate D2E/DX2                !
 ! A98   A(37,13,38)            81.793          estimate D2E/DX2                !
 ! A99   A(12,14,51)            81.0076         estimate D2E/DX2                !
 ! A100  A(12,14,54)            77.0029         estimate D2E/DX2                !
 ! A101  A(9,15,12)             83.6166         estimate D2E/DX2                !
 ! A102  A(9,15,27)             83.0834         estimate D2E/DX2                !
 ! A103  A(12,15,27)            81.5698         estimate D2E/DX2                !
 ! A104  A(6,16,13)             82.9649         estimate D2E/DX2                !
 ! A105  A(6,16,18)             81.1237         estimate D2E/DX2                !
 ! A106  A(13,16,18)            82.5344         estimate D2E/DX2                !
 ! A107  A(24,17,33)            82.4931         estimate D2E/DX2                !
 ! A108  A(24,17,36)            81.8221         estimate D2E/DX2                !
 ! A109  A(33,17,36)            91.1448         estimate D2E/DX2                !
 ! A110  A(7,18,16)             82.8686         estimate D2E/DX2                !
 ! A111  A(7,18,19)             80.0773         estimate D2E/DX2                !
 ! A112  A(7,18,20)            138.671          estimate D2E/DX2                !
 ! A113  A(7,18,40)             98.4947         estimate D2E/DX2                !
 ! A114  A(7,18,42)             88.8148         estimate D2E/DX2                !
 ! A115  A(7,18,62)            132.5759         estimate D2E/DX2                !
 ! A116  A(16,18,19)           139.5689         estimate D2E/DX2                !
 ! A117  A(16,18,20)            88.215          estimate D2E/DX2                !
 ! A118  A(16,18,40)           133.4799         estimate D2E/DX2                !
 ! A119  A(16,18,42)            97.9393         estimate D2E/DX2                !
 ! A120  A(16,18,62)            95.7797         estimate D2E/DX2                !
 ! A121  A(19,18,20)            81.1185         estimate D2E/DX2                !
 ! A122  A(19,18,40)            85.3961         estimate D2E/DX2                !
 ! A123  A(19,18,62)           122.5321         estimate D2E/DX2                !
 ! A124  A(20,18,40)           116.2563         estimate D2E/DX2                !
 ! A125  A(20,18,62)            88.3602         estimate D2E/DX2                !
 ! A126  A(40,18,42)           128.5198         estimate D2E/DX2                !
 ! A127  A(42,18,62)           137.7482         estimate D2E/DX2                !
 ! A128  A(18,19,65)            82.6402         estimate D2E/DX2                !
 ! A129  A(42,19,65)            91.0856         estimate D2E/DX2                !
 ! A130  A(18,20,65)            80.5545         estimate D2E/DX2                !
 ! A131  A(42,20,65)            78.6353         estimate D2E/DX2                !
 ! A132  A(2,21,5)              81.879          estimate D2E/DX2                !
 ! A133  A(2,21,22)             97.078          estimate D2E/DX2                !
 ! A134  A(2,21,23)             82.806          estimate D2E/DX2                !
 ! A135  A(2,21,48)             92.8686         estimate D2E/DX2                !
 ! A136  A(2,21,49)            140.2678         estimate D2E/DX2                !
 ! A137  A(2,21,63)            132.4726         estimate D2E/DX2                !
 ! A138  A(5,21,22)            132.0613         estimate D2E/DX2                !
 ! A139  A(5,21,23)            139.6191         estimate D2E/DX2                !
 ! A140  A(5,21,48)             93.0818         estimate D2E/DX2                !
 ! A141  A(5,21,49)             84.2167         estimate D2E/DX2                !
 ! A142  A(5,21,63)             97.131          estimate D2E/DX2                !
 ! A143  A(22,21,23)            86.8077         estimate D2E/DX2                !
 ! A144  A(22,21,48)           134.6566         estimate D2E/DX2                !
 ! A145  A(22,21,49)           119.4817         estimate D2E/DX2                !
 ! A146  A(23,21,49)            84.1875         estimate D2E/DX2                !
 ! A147  A(23,21,63)           120.4385         estimate D2E/DX2                !
 ! A148  A(48,21,63)           134.4367         estimate D2E/DX2                !
 ! A149  A(49,21,63)            86.0678         estimate D2E/DX2                !
 ! A150  A(21,22,51)            87.5711         estimate D2E/DX2                !
 ! A151  A(10,24,17)           133.7113         estimate D2E/DX2                !
 ! A152  A(10,24,25)            86.742          estimate D2E/DX2                !
 ! A153  A(10,24,26)            81.5216         estimate D2E/DX2                !
 ! A154  A(10,24,28)            80.7315         estimate D2E/DX2                !
 ! A155  A(10,24,29)           135.9792         estimate D2E/DX2                !
 ! A156  A(17,24,25)            76.5304         estimate D2E/DX2                !
 ! A157  A(17,24,26)            81.296          estimate D2E/DX2                !
 ! A158  A(17,24,28)           137.9903         estimate D2E/DX2                !
 ! A159  A(17,24,29)            84.288          estimate D2E/DX2                !
 ! A160  A(25,24,26)           135.6397         estimate D2E/DX2                !
 ! A161  A(25,24,28)            84.031          estimate D2E/DX2                !
 ! A162  A(25,24,29)           129.8609         estimate D2E/DX2                !
 ! A163  A(26,24,28)           134.9519         estimate D2E/DX2                !
 ! A164  A(26,24,29)            84.5736         estimate D2E/DX2                !
 ! A165  A(28,24,29)            80.2263         estimate D2E/DX2                !
 ! A166  A(24,25,33)            81.1901         estimate D2E/DX2                !
 ! A167  A(24,25,36)            82.2658         estimate D2E/DX2                !
 ! A168  A(33,25,36)            88.3433         estimate D2E/DX2                !
 ! A169  A(9,26,13)             82.9944         estimate D2E/DX2                !
 ! A170  A(9,26,24)             81.7955         estimate D2E/DX2                !
 ! A171  A(13,26,24)            82.5597         estimate D2E/DX2                !
 ! A172  A(11,27,15)            80.6417         estimate D2E/DX2                !
 ! A173  A(11,27,28)            81.0343         estimate D2E/DX2                !
 ! A174  A(11,27,29)           134.8551         estimate D2E/DX2                !
 ! A175  A(11,27,55)            81.1878         estimate D2E/DX2                !
 ! A176  A(11,27,56)           136.4063         estimate D2E/DX2                !
 ! A177  A(15,27,28)           132.4342         estimate D2E/DX2                !
 ! A178  A(15,27,29)            81.8205         estimate D2E/DX2                !
 ! A179  A(15,27,55)           135.4297         estimate D2E/DX2                !
 ! A180  A(15,27,56)            84.1673         estimate D2E/DX2                !
 ! A181  A(28,27,29)            80.8857         estimate D2E/DX2                !
 ! A182  A(28,27,55)            83.7037         estimate D2E/DX2                !
 ! A183  A(28,27,56)           135.9878         estimate D2E/DX2                !
 ! A184  A(29,27,55)           136.8032         estimate D2E/DX2                !
 ! A185  A(29,27,56)            82.0455         estimate D2E/DX2                !
 ! A186  A(55,27,56)            81.6645         estimate D2E/DX2                !
 ! A187  A(24,28,27)            83.6886         estimate D2E/DX2                !
 ! A188  A(24,28,30)            81.5438         estimate D2E/DX2                !
 ! A189  A(27,28,30)            82.1466         estimate D2E/DX2                !
 ! A190  A(24,29,27)            83.7818         estimate D2E/DX2                !
 ! A191  A(24,29,30)            80.7584         estimate D2E/DX2                !
 ! A192  A(27,29,30)            81.6856         estimate D2E/DX2                !
 ! A193  A(28,30,29)            82.3092         estimate D2E/DX2                !
 ! A194  A(28,30,31)           133.6031         estimate D2E/DX2                !
 ! A195  A(28,30,32)           139.7827         estimate D2E/DX2                !
 ! A196  A(28,30,33)            98.2697         estimate D2E/DX2                !
 ! A197  A(28,30,34)            88.2789         estimate D2E/DX2                !
 ! A198  A(28,30,64)            95.2904         estimate D2E/DX2                !
 ! A199  A(29,30,31)           100.144          estimate D2E/DX2                !
 ! A200  A(29,30,32)            79.6488         estimate D2E/DX2                !
 ! A201  A(29,30,33)            88.4205         estimate D2E/DX2                !
 ! A202  A(29,30,34)           138.2427         estimate D2E/DX2                !
 ! A203  A(29,30,64)           133.1813         estimate D2E/DX2                !
 ! A204  A(31,30,32)            85.0847         estimate D2E/DX2                !
 ! A205  A(31,30,33)           128.0019         estimate D2E/DX2                !
 ! A206  A(31,30,34)           115.2322         estimate D2E/DX2                !
 ! A207  A(32,30,34)            81.9345         estimate D2E/DX2                !
 ! A208  A(32,30,64)           123.0345         estimate D2E/DX2                !
 ! A209  A(33,30,64)           137.6936         estimate D2E/DX2                !
 ! A210  A(34,30,64)            88.0365         estimate D2E/DX2                !
 ! A211  A(30,31,57)            87.6533         estimate D2E/DX2                !
 ! A212  A(17,33,25)            78.7064         estimate D2E/DX2                !
 ! A213  A(17,33,30)            97.2597         estimate D2E/DX2                !
 ! A214  A(17,33,32)            92.0975         estimate D2E/DX2                !
 ! A215  A(17,33,34)           137.4304         estimate D2E/DX2                !
 ! A216  A(17,33,59)           116.2498         estimate D2E/DX2                !
 ! A217  A(25,33,30)            87.0343         estimate D2E/DX2                !
 ! A218  A(25,33,32)           138.6291         estimate D2E/DX2                !
 ! A219  A(25,33,34)            77.0091         estimate D2E/DX2                !
 ! A220  A(25,33,59)           116.1368         estimate D2E/DX2                !
 ! A221  A(30,33,59)           141.6483         estimate D2E/DX2                !
 ! A222  A(32,33,34)            83.8085         estimate D2E/DX2                !
 ! A223  A(32,33,59)           104.1827         estimate D2E/DX2                !
 ! A224  A(34,33,59)           105.7625         estimate D2E/DX2                !
 ! A225  A(17,36,25)            78.1645         estimate D2E/DX2                !
 ! A226  A(17,36,35)           103.9028         estimate D2E/DX2                !
 ! A227  A(17,36,37)           139.5918         estimate D2E/DX2                !
 ! A228  A(17,36,38)            81.4957         estimate D2E/DX2                !
 ! A229  A(17,36,39)           132.7255         estimate D2E/DX2                !
 ! A230  A(25,36,35)           102.4735         estimate D2E/DX2                !
 ! A231  A(25,36,37)            85.6168         estimate D2E/DX2                !
 ! A232  A(25,36,38)           140.6459         estimate D2E/DX2                !
 ! A233  A(25,36,39)           137.3272         estimate D2E/DX2                !
 ! A234  A(35,36,37)           115.7131         estimate D2E/DX2                !
 ! A235  A(35,36,38)           115.0009         estimate D2E/DX2                !
 ! A236  A(35,36,39)            97.2274         estimate D2E/DX2                !
 ! A237  A(37,36,38)            88.5777         estimate D2E/DX2                !
 ! A238  A(13,37,36)            78.2582         estimate D2E/DX2                !
 ! A239  A(13,37,39)            79.4183         estimate D2E/DX2                !
 ! A240  A(13,38,36)            78.1027         estimate D2E/DX2                !
 ! A241  A(13,38,39)            79.5674         estimate D2E/DX2                !
 ! A242  A(36,39,40)           150.3682         estimate D2E/DX2                !
 ! A243  A(36,39,41)            95.9578         estimate D2E/DX2                !
 ! A244  A(36,39,62)           145.7805         estimate D2E/DX2                !
 ! A245  A(37,39,38)            91.6565         estimate D2E/DX2                !
 ! A246  A(37,39,40)            97.4352         estimate D2E/DX2                !
 ! A247  A(37,39,41)           115.1532         estimate D2E/DX2                !
 ! A248  A(37,39,62)           134.9761         estimate D2E/DX2                !
 ! A249  A(38,39,40)           132.901          estimate D2E/DX2                !
 ! A250  A(38,39,41)           114.78           estimate D2E/DX2                !
 ! A251  A(38,39,62)            92.5389         estimate D2E/DX2                !
 ! A252  A(40,39,41)           102.7139         estimate D2E/DX2                !
 ! A253  A(41,39,62)           103.4213         estimate D2E/DX2                !
 ! A254  A(18,40,39)            87.6738         estimate D2E/DX2                !
 ! A255  A(18,42,43)            86.6761         estimate D2E/DX2                !
 ! A256  A(18,42,44)            97.3242         estimate D2E/DX2                !
 ! A257  A(18,42,61)           142.6478         estimate D2E/DX2                !
 ! A258  A(19,42,20)            82.8087         estimate D2E/DX2                !
 ! A259  A(19,42,43)           138.1429         estimate D2E/DX2                !
 ! A260  A(19,42,44)            92.5307         estimate D2E/DX2                !
 ! A261  A(19,42,61)           105.0593         estimate D2E/DX2                !
 ! A262  A(20,42,43)            76.9769         estimate D2E/DX2                !
 ! A263  A(20,42,44)           137.4721         estimate D2E/DX2                !
 ! A264  A(20,42,61)           106.5497         estimate D2E/DX2                !
 ! A265  A(43,42,44)            79.0166         estimate D2E/DX2                !
 ! A266  A(43,42,61)           115.6614         estimate D2E/DX2                !
 ! A267  A(44,42,61)           115.4107         estimate D2E/DX2                !
 ! A268  A(6,43,42)             81.2264         estimate D2E/DX2                !
 ! A269  A(6,43,45)             83.1452         estimate D2E/DX2                !
 ! A270  A(42,43,45)            88.3335         estimate D2E/DX2                !
 ! A271  A(6,44,42)             82.5151         estimate D2E/DX2                !
 ! A272  A(6,44,45)             82.5941         estimate D2E/DX2                !
 ! A273  A(42,44,45)            90.8351         estimate D2E/DX2                !
 ! A274  A(3,45,43)             84.3044         estimate D2E/DX2                !
 ! A275  A(3,45,44)            136.3441         estimate D2E/DX2                !
 ! A276  A(3,45,46)             88.2039         estimate D2E/DX2                !
 ! A277  A(3,45,47)            114.7559         estimate D2E/DX2                !
 ! A278  A(43,45,44)            77.5694         estimate D2E/DX2                !
 ! A279  A(43,45,46)           138.8998         estimate D2E/DX2                !
 ! A280  A(43,45,47)           106.1736         estimate D2E/DX2                !
 ! A281  A(43,45,48)           136.1678         estimate D2E/DX2                !
 ! A282  A(44,45,46)            80.5161         estimate D2E/DX2                !
 ! A283  A(44,45,47)           108.3805         estimate D2E/DX2                !
 ! A284  A(44,45,48)           132.239          estimate D2E/DX2                !
 ! A285  A(46,45,47)           113.6065         estimate D2E/DX2                !
 ! A286  A(47,45,48)            94.2044         estimate D2E/DX2                !
 ! A287  A(1,46,45)             80.143          estimate D2E/DX2                !
 ! A288  A(1,46,48)             80.0455         estimate D2E/DX2                !
 ! A289  A(3,48,21)             92.1117         estimate D2E/DX2                !
 ! A290  A(3,48,23)             81.7065         estimate D2E/DX2                !
 ! A291  A(3,48,46)             86.09           estimate D2E/DX2                !
 ! A292  A(3,48,49)            138.003          estimate D2E/DX2                !
 ! A293  A(3,48,50)            118.7129         estimate D2E/DX2                !
 ! A294  A(21,48,45)           121.1335         estimate D2E/DX2                !
 ! A295  A(21,48,46)            90.4985         estimate D2E/DX2                !
 ! A296  A(21,48,50)           136.6068         estimate D2E/DX2                !
 ! A297  A(23,48,45)           132.135          estimate D2E/DX2                !
 ! A298  A(23,48,46)           136.8252         estimate D2E/DX2                !
 ! A299  A(23,48,49)            81.337          estimate D2E/DX2                !
 ! A300  A(23,48,50)           102.7235         estimate D2E/DX2                !
 ! A301  A(45,48,49)           131.0558         estimate D2E/DX2                !
 ! A302  A(45,48,50)           102.2491         estimate D2E/DX2                !
 ! A303  A(46,48,49)            80.6578         estimate D2E/DX2                !
 ! A304  A(46,48,50)           119.3448         estimate D2E/DX2                !
 ! A305  A(49,48,50)           102.4136         estimate D2E/DX2                !
 ! A306  A(14,51,22)            95.1881         estimate D2E/DX2                !
 ! A307  A(14,51,52)            90.7666         estimate D2E/DX2                !
 ! A308  A(14,51,60)           117.5819         estimate D2E/DX2                !
 ! A309  A(14,51,63)           134.1785         estimate D2E/DX2                !
 ! A310  A(22,51,52)           133.623          estimate D2E/DX2                !
 ! A311  A(22,51,54)           147.6963         estimate D2E/DX2                !
 ! A312  A(22,51,60)            99.8166         estimate D2E/DX2                !
 ! A313  A(52,51,60)           117.7204         estimate D2E/DX2                !
 ! A314  A(52,51,63)            94.9836         estimate D2E/DX2                !
 ! A315  A(54,51,60)           100.4587         estimate D2E/DX2                !
 ! A316  A(54,51,63)           147.4958         estimate D2E/DX2                !
 ! A317  A(60,51,63)            99.5217         estimate D2E/DX2                !
 ! A318  A(12,52,51)            80.9954         estimate D2E/DX2                !
 ! A319  A(12,52,54)            77.0433         estimate D2E/DX2                !
 ! A320  A(14,54,52)            85.1312         estimate D2E/DX2                !
 ! A321  A(14,54,53)           105.7388         estimate D2E/DX2                !
 ! A322  A(14,54,55)           142.5996         estimate D2E/DX2                !
 ! A323  A(14,54,56)            83.015          estimate D2E/DX2                !
 ! A324  A(14,54,57)           133.4624         estimate D2E/DX2                !
 ! A325  A(51,54,53)            83.2885         estimate D2E/DX2                !
 ! A326  A(51,54,55)           131.5416         estimate D2E/DX2                !
 ! A327  A(51,54,56)           132.1807         estimate D2E/DX2                !
 ! A328  A(52,54,53)           104.9002         estimate D2E/DX2                !
 ! A329  A(52,54,55)            82.2841         estimate D2E/DX2                !
 ! A330  A(52,54,56)           144.3101         estimate D2E/DX2                !
 ! A331  A(52,54,57)           132.2967         estimate D2E/DX2                !
 ! A332  A(53,54,55)           111.5055         estimate D2E/DX2                !
 ! A333  A(53,54,56)           110.7004         estimate D2E/DX2                !
 ! A334  A(53,54,57)            91.4657         estimate D2E/DX2                !
 ! A335  A(55,54,56)            87.0232         estimate D2E/DX2                !
 ! A336  A(27,55,54)            77.5448         estimate D2E/DX2                !
 ! A337  A(27,55,57)            79.8348         estimate D2E/DX2                !
 ! A338  A(27,56,54)            77.7508         estimate D2E/DX2                !
 ! A339  A(27,56,57)            79.8335         estimate D2E/DX2                !
 ! A340  A(31,57,54)           149.6942         estimate D2E/DX2                !
 ! A341  A(31,57,55)           133.5065         estimate D2E/DX2                !
 ! A342  A(31,57,56)            96.787          estimate D2E/DX2                !
 ! A343  A(31,57,58)           101.2772         estimate D2E/DX2                !
 ! A344  A(54,57,58)            97.7688         estimate D2E/DX2                !
 ! A345  A(54,57,64)           145.644          estimate D2E/DX2                !
 ! A346  A(55,57,56)            91.8196         estimate D2E/DX2                !
 ! A347  A(55,57,58)           115.3643         estimate D2E/DX2                !
 ! A348  A(55,57,64)            92.6462         estimate D2E/DX2                !
 ! A349  A(56,57,58)           116.3335         estimate D2E/DX2                !
 ! A350  A(56,57,64)           133.982          estimate D2E/DX2                !
 ! A351  A(58,57,64)           102.7053         estimate D2E/DX2                !
 ! A352  A(18,62,39)            88.0124         estimate D2E/DX2                !
 ! A353  A(21,63,51)            87.7203         estimate D2E/DX2                !
 ! A354  A(30,64,57)            87.8043         estimate D2E/DX2                !
 ! A355  A(19,65,20)            79.0726         estimate D2E/DX2                !
 ! A356  A(19,65,66)            90.0            estimate D2E/DX2                !
 ! A357  A(19,65,68)            90.0            estimate D2E/DX2                !
 ! A358  A(20,65,66)           139.0368         estimate D2E/DX2                !
 ! A359  A(20,65,67)           100.9274         estimate D2E/DX2                !
 ! A360  A(20,65,68)           128.8709         estimate D2E/DX2                !
 ! A361  A(66,65,67)            90.0            estimate D2E/DX2                !
 ! A362  A(66,65,68)            90.0            estimate D2E/DX2                !
 ! A363  A(67,65,68)            90.0            estimate D2E/DX2                !
 ! A364  L(51,54,57,53,-1)     174.7542         estimate D2E/DX2                !
 ! A365  L(19,65,67,20,-1)     180.0            estimate D2E/DX2                !
 ! A366  L(65,66,69,7,-1)      180.0            estimate D2E/DX2                !
 ! A367  L(65,67,70,41,-1)     180.0            estimate D2E/DX2                !
 ! A368  L(65,68,71,23,-1)     180.0            estimate D2E/DX2                !
 ! A369  L(51,54,57,53,-2)     179.4223         estimate D2E/DX2                !
 ! A370  L(19,65,67,20,-2)     180.0            estimate D2E/DX2                !
 ! A371  L(65,66,69,7,-2)      180.0            estimate D2E/DX2                !
 ! A372  L(65,67,70,41,-2)     180.0            estimate D2E/DX2                !
 ! A373  L(65,68,71,23,-2)     180.0            estimate D2E/DX2                !
 ! D1    D(3,1,2,12)           179.3961         estimate D2E/DX2                !
 ! D2    D(3,1,2,21)            94.7797         estimate D2E/DX2                !
 ! D3    D(4,1,2,12)           -28.0537         estimate D2E/DX2                !
 ! D4    D(4,1,2,21)          -112.6701         estimate D2E/DX2                !
 ! D5    D(5,1,2,12)            41.4426         estimate D2E/DX2                !
 ! D6    D(5,1,2,21)           -43.1738         estimate D2E/DX2                !
 ! D7    D(8,1,2,12)           -98.9083         estimate D2E/DX2                !
 ! D8    D(8,1,2,21)           176.4754         estimate D2E/DX2                !
 ! D9    D(46,1,2,12)          109.156          estimate D2E/DX2                !
 ! D10   D(46,1,2,21)           24.5396         estimate D2E/DX2                !
 ! D11   D(2,1,3,45)          -174.8745         estimate D2E/DX2                !
 ! D12   D(2,1,3,48)           -95.7625         estimate D2E/DX2                !
 ! D13   D(4,1,3,45)            32.1724         estimate D2E/DX2                !
 ! D14   D(4,1,3,48)           111.2844         estimate D2E/DX2                !
 ! D15   D(5,1,3,45)          -106.4289         estimate D2E/DX2                !
 ! D16   D(5,1,3,48)           -27.3169         estimate D2E/DX2                !
 ! D17   D(8,1,3,45)           101.3357         estimate D2E/DX2                !
 ! D18   D(8,1,3,48)          -179.5522         estimate D2E/DX2                !
 ! D19   D(46,1,3,45)          -38.6978         estimate D2E/DX2                !
 ! D20   D(46,1,3,48)           40.4142         estimate D2E/DX2                !
 ! D21   D(2,1,4,6)           -111.9653         estimate D2E/DX2                !
 ! D22   D(2,1,4,9)            -28.8444         estimate D2E/DX2                !
 ! D23   D(3,1,4,6)             27.7862         estimate D2E/DX2                !
 ! D24   D(3,1,4,9)            110.907          estimate D2E/DX2                !
 ! D25   D(5,1,4,6)            179.561          estimate D2E/DX2                !
 ! D26   D(5,1,4,9)            -97.3182         estimate D2E/DX2                !
 ! D27   D(8,1,4,6)            -40.8862         estimate D2E/DX2                !
 ! D28   D(8,1,4,9)             42.2346         estimate D2E/DX2                !
 ! D29   D(46,1,4,6)            97.86           estimate D2E/DX2                !
 ! D30   D(46,1,4,9)          -179.0192         estimate D2E/DX2                !
 ! D31   D(2,1,5,12)           -41.4917         estimate D2E/DX2                !
 ! D32   D(2,1,5,21)            43.0302         estimate D2E/DX2                !
 ! D33   D(3,1,5,12)          -110.7968         estimate D2E/DX2                !
 ! D34   D(3,1,5,21)           -26.2749         estimate D2E/DX2                !
 ! D35   D(4,1,5,12)            97.3226         estimate D2E/DX2                !
 ! D36   D(4,1,5,21)          -178.1555         estimate D2E/DX2                !
 ! D37   D(8,1,5,12)            26.755          estimate D2E/DX2                !
 ! D38   D(8,1,5,21)           111.2769         estimate D2E/DX2                !
 ! D39   D(46,1,5,12)         -178.5698         estimate D2E/DX2                !
 ! D40   D(46,1,5,21)          -94.0479         estimate D2E/DX2                !
 ! D41   D(2,1,8,6)            179.0373         estimate D2E/DX2                !
 ! D42   D(2,1,8,9)             96.1816         estimate D2E/DX2                !
 ! D43   D(3,1,8,6)            -97.3713         estimate D2E/DX2                !
 ! D44   D(3,1,8,9)            179.773          estimate D2E/DX2                !
 ! D45   D(4,1,8,6)             40.7583         estimate D2E/DX2                !
 ! D46   D(4,1,8,9)            -42.0974         estimate D2E/DX2                !
 ! D47   D(5,1,8,6)            111.6586         estimate D2E/DX2                !
 ! D48   D(5,1,8,9)             28.8029         estimate D2E/DX2                !
 ! D49   D(46,1,8,6)           -30.6367         estimate D2E/DX2                !
 ! D50   D(46,1,8,9)          -113.4924         estimate D2E/DX2                !
 ! D51   D(2,1,46,45)          109.5941         estimate D2E/DX2                !
 ! D52   D(2,1,46,48)           30.3455         estimate D2E/DX2                !
 ! D53   D(3,1,46,45)           38.7543         estimate D2E/DX2                !
 ! D54   D(3,1,46,48)          -40.4944         estimate D2E/DX2                !
 ! D55   D(4,1,46,45)          -98.9285         estimate D2E/DX2                !
 ! D56   D(4,1,46,48)         -178.1771         estimate D2E/DX2                !
 ! D57   D(5,1,46,45)          177.0577         estimate D2E/DX2                !
 ! D58   D(5,1,46,48)           97.809          estimate D2E/DX2                !
 ! D59   D(8,1,46,45)          -27.904          estimate D2E/DX2                !
 ! D60   D(8,1,46,48)         -107.1527         estimate D2E/DX2                !
 ! D61   D(1,2,12,5)           -41.5245         estimate D2E/DX2                !
 ! D62   D(1,2,12,11)           27.7859         estimate D2E/DX2                !
 ! D63   D(1,2,12,14)         -179.2528         estimate D2E/DX2                !
 ! D64   D(1,2,12,15)           96.3365         estimate D2E/DX2                !
 ! D65   D(1,2,12,52)         -108.7746         estimate D2E/DX2                !
 ! D66   D(21,2,12,5)           39.8182         estimate D2E/DX2                !
 ! D67   D(21,2,12,11)         109.1286         estimate D2E/DX2                !
 ! D68   D(21,2,12,14)         -97.9101         estimate D2E/DX2                !
 ! D69   D(21,2,12,15)         177.6792         estimate D2E/DX2                !
 ! D70   D(21,2,12,52)         -27.4319         estimate D2E/DX2                !
 ! D71   D(1,2,21,5)            43.6568         estimate D2E/DX2                !
 ! D72   D(1,2,21,22)          175.277          estimate D2E/DX2                !
 ! D73   D(1,2,21,23)          -98.8652         estimate D2E/DX2                !
 ! D74   D(1,2,21,48)          -49.0499         estimate D2E/DX2                !
 ! D75   D(1,2,21,49)          -27.0184         estimate D2E/DX2                !
 ! D76   D(1,2,21,63)          135.9133         estimate D2E/DX2                !
 ! D77   D(12,2,21,5)          -40.1688         estimate D2E/DX2                !
 ! D78   D(12,2,21,22)          91.4515         estimate D2E/DX2                !
 ! D79   D(12,2,21,23)         177.3092         estimate D2E/DX2                !
 ! D80   D(12,2,21,48)        -132.8755         estimate D2E/DX2                !
 ! D81   D(12,2,21,49)        -110.844          estimate D2E/DX2                !
 ! D82   D(12,2,21,63)          52.0878         estimate D2E/DX2                !
 ! D83   D(1,3,45,43)          -98.0985         estimate D2E/DX2                !
 ! D84   D(1,3,45,44)          -32.8003         estimate D2E/DX2                !
 ! D85   D(1,3,45,46)           41.4362         estimate D2E/DX2                !
 ! D86   D(1,3,45,47)          156.6968         estimate D2E/DX2                !
 ! D87   D(1,3,48,21)           47.9436         estimate D2E/DX2                !
 ! D88   D(1,3,48,23)           96.0623         estimate D2E/DX2                !
 ! D89   D(1,3,48,46)          -42.412          estimate D2E/DX2                !
 ! D90   D(1,3,48,49)           28.9796         estimate D2E/DX2                !
 ! D91   D(1,3,48,50)         -163.9213         estimate D2E/DX2                !
 ! D92   D(1,4,6,7)            178.3244         estimate D2E/DX2                !
 ! D93   D(1,4,6,8)             40.6819         estimate D2E/DX2                !
 ! D94   D(1,4,6,16)           108.5804         estimate D2E/DX2                !
 ! D95   D(1,4,6,43)           -36.9084         estimate D2E/DX2                !
 ! D96   D(1,4,6,44)           -95.4211         estimate D2E/DX2                !
 ! D97   D(9,4,6,7)             96.1007         estimate D2E/DX2                !
 ! D98   D(9,4,6,8)            -41.5419         estimate D2E/DX2                !
 ! D99   D(9,4,6,16)            26.3566         estimate D2E/DX2                !
 ! D100  D(9,4,6,43)          -119.1321         estimate D2E/DX2                !
 ! D101  D(9,4,6,44)          -177.6449         estimate D2E/DX2                !
 ! D102  D(1,4,9,8)            -41.6067         estimate D2E/DX2                !
 ! D103  D(1,4,9,10)          -178.402          estimate D2E/DX2                !
 ! D104  D(1,4,9,11)            96.4214         estimate D2E/DX2                !
 ! D105  D(1,4,9,15)            30.0315         estimate D2E/DX2                !
 ! D106  D(1,4,9,26)          -110.3894         estimate D2E/DX2                !
 ! D107  D(6,4,9,8)             41.1351         estimate D2E/DX2                !
 ! D108  D(6,4,9,10)           -95.6602         estimate D2E/DX2                !
 ! D109  D(6,4,9,11)           179.1632         estimate D2E/DX2                !
 ! D110  D(6,4,9,15)           112.7732         estimate D2E/DX2                !
 ! D111  D(6,4,9,26)           -27.6476         estimate D2E/DX2                !
 ! D112  D(1,5,12,2)            41.6159         estimate D2E/DX2                !
 ! D113  D(1,5,12,11)          -94.8335         estimate D2E/DX2                !
 ! D114  D(1,5,12,14)          110.9707         estimate D2E/DX2                !
 ! D115  D(1,5,12,15)          -26.2601         estimate D2E/DX2                !
 ! D116  D(1,5,12,52)          179.5959         estimate D2E/DX2                !
 ! D117  D(21,5,12,2)          -39.6939         estimate D2E/DX2                !
 ! D118  D(21,5,12,11)        -176.1433         estimate D2E/DX2                !
 ! D119  D(21,5,12,14)          29.6609         estimate D2E/DX2                !
 ! D120  D(21,5,12,15)        -107.5699         estimate D2E/DX2                !
 ! D121  D(21,5,12,52)          98.2861         estimate D2E/DX2                !
 ! D122  D(1,5,21,2)           -43.78           estimate D2E/DX2                !
 ! D123  D(1,5,21,22)         -136.0088         estimate D2E/DX2                !
 ! D124  D(1,5,21,23)           24.9334         estimate D2E/DX2                !
 ! D125  D(1,5,21,48)           48.6812         estimate D2E/DX2                !
 ! D126  D(1,5,21,49)           98.8995         estimate D2E/DX2                !
 ! D127  D(1,5,21,63)         -175.8118         estimate D2E/DX2                !
 ! D128  D(12,5,21,2)           40.2409         estimate D2E/DX2                !
 ! D129  D(12,5,21,22)         -51.988          estimate D2E/DX2                !
 ! D130  D(12,5,21,23)         108.9543         estimate D2E/DX2                !
 ! D131  D(12,5,21,48)         132.7021         estimate D2E/DX2                !
 ! D132  D(12,5,21,49)        -177.0796         estimate D2E/DX2                !
 ! D133  D(12,5,21,63)         -91.7909         estimate D2E/DX2                !
 ! D134  D(4,6,7,13)           -97.1557         estimate D2E/DX2                !
 ! D135  D(4,6,7,18)           179.7359         estimate D2E/DX2                !
 ! D136  D(8,6,7,13)           -24.7505         estimate D2E/DX2                !
 ! D137  D(8,6,7,18)          -107.8589         estimate D2E/DX2                !
 ! D138  D(16,6,7,13)           41.1689         estimate D2E/DX2                !
 ! D139  D(16,6,7,18)          -41.9396         estimate D2E/DX2                !
 ! D140  D(43,6,7,13)          114.4378         estimate D2E/DX2                !
 ! D141  D(43,6,7,18)           31.3293         estimate D2E/DX2                !
 ! D142  D(44,6,7,13)         -178.2909         estimate D2E/DX2                !
 ! D143  D(44,6,7,18)           98.6006         estimate D2E/DX2                !
 ! D144  D(4,6,8,1)            -41.0643         estimate D2E/DX2                !
 ! D145  D(4,6,8,9)             41.4739         estimate D2E/DX2                !
 ! D146  D(7,6,8,1)           -114.0818         estimate D2E/DX2                !
 ! D147  D(7,6,8,9)            -31.5436         estimate D2E/DX2                !
 ! D148  D(16,6,8,1)           179.9864         estimate D2E/DX2                !
 ! D149  D(16,6,8,9)           -97.4754         estimate D2E/DX2                !
 ! D150  D(43,6,8,1)            96.0303         estimate D2E/DX2                !
 ! D151  D(43,6,8,9)           178.5685         estimate D2E/DX2                !
 ! D152  D(44,6,8,1)            28.4707         estimate D2E/DX2                !
 ! D153  D(44,6,8,9)           111.0089         estimate D2E/DX2                !
 ! D154  D(4,6,16,13)           29.9036         estimate D2E/DX2                !
 ! D155  D(4,6,16,18)          113.402          estimate D2E/DX2                !
 ! D156  D(7,6,16,13)          -41.1109         estimate D2E/DX2                !
 ! D157  D(7,6,16,18)           42.3874         estimate D2E/DX2                !
 ! D158  D(8,6,16,13)           98.4731         estimate D2E/DX2                !
 ! D159  D(8,6,16,18)         -178.0285         estimate D2E/DX2                !
 ! D160  D(43,6,16,13)        -173.482          estimate D2E/DX2                !
 ! D161  D(43,6,16,18)         -89.9837         estimate D2E/DX2                !
 ! D162  D(44,6,16,13)        -113.0472         estimate D2E/DX2                !
 ! D163  D(44,6,16,18)         -29.5488         estimate D2E/DX2                !
 ! D164  D(4,6,43,42)         -104.3416         estimate D2E/DX2                !
 ! D165  D(4,6,43,45)          -14.9767         estimate D2E/DX2                !
 ! D166  D(7,6,43,42)           27.2196         estimate D2E/DX2                !
 ! D167  D(7,6,43,45)          116.5845         estimate D2E/DX2                !
 ! D168  D(8,6,43,42)          179.9355         estimate D2E/DX2                !
 ! D169  D(8,6,43,45)          -90.6996         estimate D2E/DX2                !
 ! D170  D(16,6,43,42)          99.1505         estimate D2E/DX2                !
 ! D171  D(16,6,43,45)        -171.4846         estimate D2E/DX2                !
 ! D172  D(44,6,43,42)         -44.1644         estimate D2E/DX2                !
 ! D173  D(44,6,43,45)          45.2004         estimate D2E/DX2                !
 ! D174  D(4,6,44,42)         -171.3465         estimate D2E/DX2                !
 ! D175  D(4,6,44,45)           96.8253         estimate D2E/DX2                !
 ! D176  D(7,6,44,42)          -86.8213         estimate D2E/DX2                !
 ! D177  D(7,6,44,45)         -178.6495         estimate D2E/DX2                !
 ! D178  D(8,6,44,42)          118.4752         estimate D2E/DX2                !
 ! D179  D(8,6,44,45)           26.647          estimate D2E/DX2                !
 ! D180  D(16,6,44,42)         -16.6125         estimate D2E/DX2                !
 ! D181  D(16,6,44,45)        -108.4406         estimate D2E/DX2                !
 ! D182  D(43,6,44,42)          46.3856         estimate D2E/DX2                !
 ! D183  D(43,6,44,45)         -45.4426         estimate D2E/DX2                !
 ! D184  D(6,7,13,10)           95.533          estimate D2E/DX2                !
 ! D185  D(6,7,13,16)          -41.2628         estimate D2E/DX2                !
 ! D186  D(6,7,13,26)           27.0776         estimate D2E/DX2                !
 ! D187  D(6,7,13,37)          179.0156         estimate D2E/DX2                !
 ! D188  D(6,7,13,38)         -110.7725         estimate D2E/DX2                !
 ! D189  D(18,7,13,10)         176.8248         estimate D2E/DX2                !
 ! D190  D(18,7,13,16)          40.029          estimate D2E/DX2                !
 ! D191  D(18,7,13,26)         108.3694         estimate D2E/DX2                !
 ! D192  D(18,7,13,37)         -99.6926         estimate D2E/DX2                !
 ! D193  D(18,7,13,38)         -29.4807         estimate D2E/DX2                !
 ! D194  D(6,7,18,16)           43.0418         estimate D2E/DX2                !
 ! D195  D(6,7,18,19)         -100.1511         estimate D2E/DX2                !
 ! D196  D(6,7,18,20)          -36.0169         estimate D2E/DX2                !
 ! D197  D(6,7,18,40)          176.0788         estimate D2E/DX2                !
 ! D198  D(6,7,18,42)          -55.1113         estimate D2E/DX2                !
 ! D199  D(6,7,18,62)          134.3523         estimate D2E/DX2                !
 ! D200  D(13,7,18,16)         -40.9651         estimate D2E/DX2                !
 ! D201  D(13,7,18,19)         175.842          estimate D2E/DX2                !
 ! D202  D(13,7,18,20)        -120.0238         estimate D2E/DX2                !
 ! D203  D(13,7,18,40)          92.0719         estimate D2E/DX2                !
 ! D204  D(13,7,18,42)        -139.1182         estimate D2E/DX2                !
 ! D205  D(13,7,18,62)          50.3454         estimate D2E/DX2                !
 ! D206  D(1,8,9,4)             42.0009         estimate D2E/DX2                !
 ! D207  D(1,8,9,10)           112.9686         estimate D2E/DX2                !
 ! D208  D(1,8,9,11)           -26.6546         estimate D2E/DX2                !
 ! D209  D(1,8,9,15)           -95.477          estimate D2E/DX2                !
 ! D210  D(1,8,9,26)          -179.1628         estimate D2E/DX2                !
 ! D211  D(6,8,9,4)            -41.07           estimate D2E/DX2                !
 ! D212  D(6,8,9,10)            29.8977         estimate D2E/DX2                !
 ! D213  D(6,8,9,11)          -109.7255         estimate D2E/DX2                !
 ! D214  D(6,8,9,15)          -178.5478         estimate D2E/DX2                !
 ! D215  D(6,8,9,26)            97.7663         estimate D2E/DX2                !
 ! D216  D(4,9,10,13)           97.373          estimate D2E/DX2                !
 ! D217  D(4,9,10,24)         -178.8095         estimate D2E/DX2                !
 ! D218  D(8,9,10,13)           27.0332         estimate D2E/DX2                !
 ! D219  D(8,9,10,24)          110.8507         estimate D2E/DX2                !
 ! D220  D(11,9,10,13)         179.4922         estimate D2E/DX2                !
 ! D221  D(11,9,10,24)         -96.6903         estimate D2E/DX2                !
 ! D222  D(15,9,10,13)        -111.0328         estimate D2E/DX2                !
 ! D223  D(15,9,10,24)         -27.2153         estimate D2E/DX2                !
 ! D224  D(26,9,10,13)         -41.4982         estimate D2E/DX2                !
 ! D225  D(26,9,10,24)          42.3193         estimate D2E/DX2                !
 ! D226  D(4,9,11,12)          -98.0916         estimate D2E/DX2                !
 ! D227  D(4,9,11,27)          179.7432         estimate D2E/DX2                !
 ! D228  D(8,9,11,12)          -29.5386         estimate D2E/DX2                !
 ! D229  D(8,9,11,27)         -111.7039         estimate D2E/DX2                !
 ! D230  D(10,9,11,12)         178.3551         estimate D2E/DX2                !
 ! D231  D(10,9,11,27)          96.1898         estimate D2E/DX2                !
 ! D232  D(15,9,11,12)          40.7133         estimate D2E/DX2                !
 ! D233  D(15,9,11,27)         -41.452          estimate D2E/DX2                !
 ! D234  D(26,9,11,12)         109.0561         estimate D2E/DX2                !
 ! D235  D(26,9,11,27)          26.8908         estimate D2E/DX2                !
 ! D236  D(4,9,15,12)           26.1798         estimate D2E/DX2                !
 ! D237  D(4,9,15,27)          108.4196         estimate D2E/DX2                !
 ! D238  D(8,9,15,12)           96.9086         estimate D2E/DX2                !
 ! D239  D(8,9,15,27)          179.1483         estimate D2E/DX2                !
 ! D240  D(10,9,15,12)        -111.9864         estimate D2E/DX2                !
 ! D241  D(10,9,15,27)         -29.7467         estimate D2E/DX2                !
 ! D242  D(11,9,15,12)         -40.8224         estimate D2E/DX2                !
 ! D243  D(11,9,15,27)          41.4173         estimate D2E/DX2                !
 ! D244  D(26,9,15,12)         179.5101         estimate D2E/DX2                !
 ! D245  D(26,9,15,27)         -98.2502         estimate D2E/DX2                !
 ! D246  D(4,9,26,13)          -27.8507         estimate D2E/DX2                !
 ! D247  D(4,9,26,24)         -111.2991         estimate D2E/DX2                !
 ! D248  D(8,9,26,13)          -96.3771         estimate D2E/DX2                !
 ! D249  D(8,9,26,24)         -179.8255         estimate D2E/DX2                !
 ! D250  D(10,9,26,13)          41.1403         estimate D2E/DX2                !
 ! D251  D(10,9,26,24)         -42.3081         estimate D2E/DX2                !
 ! D252  D(11,9,26,13)         111.9422         estimate D2E/DX2                !
 ! D253  D(11,9,26,24)          28.4938         estimate D2E/DX2                !
 ! D254  D(15,9,26,13)         179.1731         estimate D2E/DX2                !
 ! D255  D(15,9,26,24)          95.7247         estimate D2E/DX2                !
 ! D256  D(9,10,13,7)          -96.6723         estimate D2E/DX2                !
 ! D257  D(9,10,13,16)         -27.1695         estimate D2E/DX2                !
 ! D258  D(9,10,13,26)          41.4097         estimate D2E/DX2                !
 ! D259  D(9,10,13,37)         179.7827         estimate D2E/DX2                !
 ! D260  D(9,10,13,38)         109.7895         estimate D2E/DX2                !
 ! D261  D(24,10,13,7)        -178.9625         estimate D2E/DX2                !
 ! D262  D(24,10,13,16)       -109.4597         estimate D2E/DX2                !
 ! D263  D(24,10,13,26)        -40.8805         estimate D2E/DX2                !
 ! D264  D(24,10,13,37)         97.4926         estimate D2E/DX2                !
 ! D265  D(24,10,13,38)         27.4994         estimate D2E/DX2                !
 ! D266  D(9,10,24,17)        -111.9805         estimate D2E/DX2                !
 ! D267  D(9,10,24,25)        -179.821          estimate D2E/DX2                !
 ! D268  D(9,10,24,26)         -42.7236         estimate D2E/DX2                !
 ! D269  D(9,10,24,28)          95.7021         estimate D2E/DX2                !
 ! D270  D(9,10,24,29)          30.3084         estimate D2E/DX2                !
 ! D271  D(13,10,24,17)        -27.9042         estimate D2E/DX2                !
 ! D272  D(13,10,24,25)        -95.7447         estimate D2E/DX2                !
 ! D273  D(13,10,24,26)         41.3528         estimate D2E/DX2                !
 ! D274  D(13,10,24,28)        179.7784         estimate D2E/DX2                !
 ! D275  D(13,10,24,29)        114.3847         estimate D2E/DX2                !
 ! D276  D(9,11,12,2)           27.5325         estimate D2E/DX2                !
 ! D277  D(9,11,12,5)           96.3716         estimate D2E/DX2                !
 ! D278  D(9,11,12,14)        -110.8378         estimate D2E/DX2                !
 ! D279  D(9,11,12,15)         -41.1787         estimate D2E/DX2                !
 ! D280  D(9,11,12,52)         177.858          estimate D2E/DX2                !
 ! D281  D(27,11,12,2)         111.6348         estimate D2E/DX2                !
 ! D282  D(27,11,12,5)        -179.526          estimate D2E/DX2                !
 ! D283  D(27,11,12,14)        -26.7355         estimate D2E/DX2                !
 ! D284  D(27,11,12,15)         42.9236         estimate D2E/DX2                !
 ! D285  D(27,11,12,52)        -98.0396         estimate D2E/DX2                !
 ! D286  D(9,11,27,15)          41.7711         estimate D2E/DX2                !
 ! D287  D(9,11,27,28)         -94.1434         estimate D2E/DX2                !
 ! D288  D(9,11,27,29)         -26.6749         estimate D2E/DX2                !
 ! D289  D(9,11,27,55)        -179.1009         estimate D2E/DX2                !
 ! D290  D(9,11,27,56)         112.9592         estimate D2E/DX2                !
 ! D291  D(12,11,27,15)        -42.7593         estimate D2E/DX2                !
 ! D292  D(12,11,27,28)       -178.6739         estimate D2E/DX2                !
 ! D293  D(12,11,27,29)       -111.2054         estimate D2E/DX2                !
 ! D294  D(12,11,27,55)         96.3686         estimate D2E/DX2                !
 ! D295  D(12,11,27,56)         28.4288         estimate D2E/DX2                !
 ! D296  D(2,12,14,51)         101.6477         estimate D2E/DX2                !
 ! D297  D(2,12,14,54)        -179.0019         estimate D2E/DX2                !
 ! D298  D(5,12,14,51)          32.9545         estimate D2E/DX2                !
 ! D299  D(5,12,14,54)         112.3049         estimate D2E/DX2                !
 ! D300  D(11,12,14,51)       -107.6032         estimate D2E/DX2                !
 ! D301  D(11,12,14,54)        -28.2528         estimate D2E/DX2                !
 ! D302  D(15,12,14,51)       -176.3437         estimate D2E/DX2                !
 ! D303  D(15,12,14,54)        -96.9933         estimate D2E/DX2                !
 ! D304  D(52,12,14,51)        -35.3159         estimate D2E/DX2                !
 ! D305  D(52,12,14,54)         44.0345         estimate D2E/DX2                !
 ! D306  D(2,12,15,9)          -95.5284         estimate D2E/DX2                !
 ! D307  D(2,12,15,27)        -179.4483         estimate D2E/DX2                !
 ! D308  D(5,12,15,9)          -27.8894         estimate D2E/DX2                !
 ! D309  D(5,12,15,27)        -111.8093         estimate D2E/DX2                !
 ! D310  D(11,12,15,9)          41.06           estimate D2E/DX2                !
 ! D311  D(11,12,15,27)        -42.8599         estimate D2E/DX2                !
 ! D312  D(14,12,15,9)        -178.7456         estimate D2E/DX2                !
 ! D313  D(14,12,15,27)         97.3345         estimate D2E/DX2                !
 ! D314  D(52,12,15,9)         111.7138         estimate D2E/DX2                !
 ! D315  D(52,12,15,27)         27.7939         estimate D2E/DX2                !
 ! D316  D(2,12,52,51)         -35.3888         estimate D2E/DX2                !
 ! D317  D(2,12,52,54)        -114.8298         estimate D2E/DX2                !
 ! D318  D(5,12,52,51)        -102.5723         estimate D2E/DX2                !
 ! D319  D(5,12,52,54)         177.9866         estimate D2E/DX2                !
 ! D320  D(11,12,52,51)        174.8537         estimate D2E/DX2                !
 ! D321  D(11,12,52,54)         95.4127         estimate D2E/DX2                !
 ! D322  D(14,12,52,51)         35.3323         estimate D2E/DX2                !
 ! D323  D(14,12,52,54)        -44.1087         estimate D2E/DX2                !
 ! D324  D(15,12,52,51)        105.4581         estimate D2E/DX2                !
 ! D325  D(15,12,52,54)         26.0171         estimate D2E/DX2                !
 ! D326  D(7,13,16,6)           41.4287         estimate D2E/DX2                !
 ! D327  D(7,13,16,18)         -40.487          estimate D2E/DX2                !
 ! D328  D(10,13,16,6)         -28.4513         estimate D2E/DX2                !
 ! D329  D(10,13,16,18)       -110.367          estimate D2E/DX2                !
 ! D330  D(26,13,16,6)         -96.782          estimate D2E/DX2                !
 ! D331  D(26,13,16,18)       -178.6977         estimate D2E/DX2                !
 ! D332  D(37,13,16,6)         110.6116         estimate D2E/DX2                !
 ! D333  D(37,13,16,18)         28.6959         estimate D2E/DX2                !
 ! D334  D(38,13,16,6)        -179.8767         estimate D2E/DX2                !
 ! D335  D(38,13,16,18)         98.2076         estimate D2E/DX2                !
 ! D336  D(7,13,26,9)           27.2949         estimate D2E/DX2                !
 ! D337  D(7,13,26,24)         109.8858         estimate D2E/DX2                !
 ! D338  D(10,13,26,9)         -41.6508         estimate D2E/DX2                !
 ! D339  D(10,13,26,24)         40.9401         estimate D2E/DX2                !
 ! D340  D(16,13,26,9)          95.5185         estimate D2E/DX2                !
 ! D341  D(16,13,26,24)        178.1094         estimate D2E/DX2                !
 ! D342  D(37,13,26,9)        -111.1461         estimate D2E/DX2                !
 ! D343  D(37,13,26,24)        -28.5552         estimate D2E/DX2                !
 ! D344  D(38,13,26,9)         179.0465         estimate D2E/DX2                !
 ! D345  D(38,13,26,24)        -98.3625         estimate D2E/DX2                !
 ! D346  D(7,13,37,36)         178.6523         estimate D2E/DX2                !
 ! D347  D(7,13,37,39)         102.1112         estimate D2E/DX2                !
 ! D348  D(10,13,37,36)        -98.4633         estimate D2E/DX2                !
 ! D349  D(10,13,37,39)       -175.0044         estimate D2E/DX2                !
 ! D350  D(16,13,37,36)        110.0348         estimate D2E/DX2                !
 ! D351  D(16,13,37,39)         33.4936         estimate D2E/DX2                !
 ! D352  D(26,13,37,36)        -29.6577         estimate D2E/DX2                !
 ! D353  D(26,13,37,39)       -106.1988         estimate D2E/DX2                !
 ! D354  D(38,13,37,36)         40.2687         estimate D2E/DX2                !
 ! D355  D(38,13,37,39)        -36.2725         estimate D2E/DX2                !
 ! D356  D(7,13,38,36)        -110.8876         estimate D2E/DX2                !
 ! D357  D(7,13,38,39)         -33.9147         estimate D2E/DX2                !
 ! D358  D(10,13,38,36)         29.9351         estimate D2E/DX2                !
 ! D359  D(10,13,38,39)        106.9079         estimate D2E/DX2                !
 ! D360  D(16,13,38,36)       -179.8741         estimate D2E/DX2                !
 ! D361  D(16,13,38,39)       -102.9012         estimate D2E/DX2                !
 ! D362  D(26,13,38,36)         97.8191         estimate D2E/DX2                !
 ! D363  D(26,13,38,39)        174.792          estimate D2E/DX2                !
 ! D364  D(37,13,38,36)        -40.3551         estimate D2E/DX2                !
 ! D365  D(37,13,38,39)         36.6178         estimate D2E/DX2                !
 ! D366  D(12,14,51,22)        -95.4289         estimate D2E/DX2                !
 ! D367  D(12,14,51,52)         38.5207         estimate D2E/DX2                !
 ! D368  D(12,14,51,60)        160.6504         estimate D2E/DX2                !
 ! D369  D(12,14,51,63)        -59.1884         estimate D2E/DX2                !
 ! D370  D(12,14,54,52)        -45.6058         estimate D2E/DX2                !
 ! D371  D(12,14,54,53)       -149.7352         estimate D2E/DX2                !
[...]
 224,-0.00007811,0.00014039,0.00003821,0.00002049,-0.00009002,0.0000306
 1,0.00007391,-0.00009470,-0.00005951,-0.00003440,-0.00008545,0.0000175
 0,-0.00003622,0.00000853,0.00007693,-0.00002237,0.00002209,-0.00029016
 ,0.00010999,-0.00013239,0.00006010,0.00001165,0.00012588,0.00001499,-0
 .00021055,0.00031118,0.00040562,0.00034705,-0.00056526,-0.00015819,-0.
 00029115,-0.00005959,-0.00007769,0.00020083,0.00023334,-0.00104415,0.0
 0022884,-0.00024812,0.00125125,0.00224331,0.00134522,0.00020560,-0.000
 63119,0.00095061,0.00456008,-0.00175542,0.00275394,-0.00023591,-0.0001
 7779,-0.00031070,-0.00015245,0.00008358,-0.00017333,-0.00189847,0.0010
 6871,-0.00120894,0.00015830,-0.00013299,0.00019464,0.00003352,-0.00017
 526,0.00030114,0.00011172,-0.00002075,-0.00000925,-0.00012772,-0.00000
 258,0.00003249,0.00017584,0.00003406,-0.00009285,0.00016500,0.00003621
 ,-0.00009609,0.00003116,-0.00004339,-0.00005532,-0.00010169,0.00006469
 ,-0.00008333,0.00009852,-0.00018345,0.00028136,0.00001132,0.00002385,-
 0.00004551,0.00000989,0.00002845,-0.00004783,0.00013546,0.00004019,-0.
 00009487,-0.00011725,0.00002508,-0.00001210,0.00003492,-0.00013509,0.0
 0018329,-0.00019160,0.00007107,-0.00007643,0.00052858,-0.00072774,-0.0
 0052137,0.00010884,-0.00242862,-0.00131240,-0.00006659,0.00001710,0.00
 000096,0.00001955,0.00001859,0.00002984,-0.02347995,0.03372436,-0.0307
 9700,-0.33029416,0.36687277,-0.59488863,-0.00595724,0.00360759,0.00961
 459,-0.00695190,-0.00537227,-0.00200598,0.35298527,-0.39786915,0.62112
 217,-0.00013746,0.00011062,-0.00013862,0.00001324,-0.00002447,0.000022
 56,0.00005899,-0.00004788,0.00011619,0.00007348,-0.00005866,0.00001336
 ,0.00001827,-0.00000938,0.00002655,-0.00015841,-0.00011904,0.00020343,
 0.00011405,0.00020860,0.00004027,0.00009528,-0.00000485,0.00003617,-0.
 00018174,0.00005188,-0.00005012,0.00009572,0.00002589,-0.00004323,0.00
 005189,-0.00001505,-0.00000545,-0.00016979,-0.00000416,0.00003271,-0.0
 0052862,-0.00015483,0.00024771,0.00001445,0.00002676,0.00002137,0.0000
 5251,0.00000051,0.00000740,0.00033420,-0.00023845,-0.00017099,-0.00007
 897,0.00001142,0.00000921,-0.00028085,0.00222345,0.00017141,0.00084651
 ,-0.00253596,-0.00175640,0.00313302,-0.00211952,-0.00197466,0.00005512
 ,-0.00001427,0.00002123,-0.00003260,-0.00001627,-0.00001355,-0.0000364
 5,-0.00001516,-0.00003435,-0.00001309,-0.00002889,0.00005118,-0.000023
 62,-0.00000138,-0.00001677,0.00007461,0.00000675,-0.00001977,-0.000153
 15,0.00005090,-0.00003521,0.00003996,0.00000080,-0.00001808,0.00002711
 ,-0.00000617,-0.00002510,-0.00002011,-0.00004214,-0.00000233,-0.000024
 35,-0.00001768,-0.00001712,-0.00011266,-0.00001041,-0.00007217,0.00027
 085,0.00019879,-0.00016380,-0.00000805,-0.00001666,0.00003753,0.000031
 42,-0.00012283,0.00018333,-0.00007116,0.00007522,-0.00011839,0.0000147
 6,-0.00002437,-0.00009506,-0.00001880,0.00007426,-0.00001892,0.0000601
 9,0.00031782,-0.00049053,-0.00000275,-0.00023100,-0.00003340,0.0001785
 8,-0.00026399,0.00040605,-0.00046824,0.00018398,0.00276783,0.00014750,
 0.00005787,0.00008575,-0.00006691,-0.00026734,-0.00020332,-0.00109289,
 0.00037231,-0.00028209,0.00009054,-0.00009835,0.00007025,0.00032305,0.
 00004402,-0.00004363,-0.00002141,-0.00007850,0.00015196,-0.00003239,0.
 00002002,-0.00000514,0.00018085,0.00009443,-0.00019850,0.00014792,-0.0
 0003075,0.00002540,0.00000626,-0.00003471,-0.00001478,-0.00013603,0.00
 003324,-0.00001957,0.00016491,-0.00005610,0.00004726,0.00000066,-0.000
 02009,-0.00001787,0.00000479,0.00002268,0.00000727,0.00016795,-0.00002
 839,0.00000503,-0.00017035,0.00002847,0.00000236,0.00001057,-0.0001258
 0,0.00018185,-0.00016069,0.00005655,-0.00005738,0.00227724,-0.00163446
 ,-0.00113686,0.00034642,0.00015219,0.00022371,-0.00002621,0.00002599,0
 .00001278,-0.00001697,0.00003266,0.00000770,-0.00580685,0.02563335,0.0
 2666205,-0.00479657,0.00343454,-0.00463731,-0.35562690,0.35092043,0.33
 040085,-0.00480083,-0.00275569,0.00054701,0.00258981,-0.00238495,0.003
 64464,0.36056553,0.00016047,-0.00010235,0.00014276,-0.00001268,0.00001
 729,-0.00001136,-0.00007654,0.00005610,-0.00015919,-0.00009026,0.00003
 693,-0.00001551,-0.00001996,0.00000193,-0.00002032,0.00013229,0.000072
 90,-0.00012500,-0.00051369,-0.00047968,-0.00005887,-0.00006187,-0.0000
 0208,-0.00001731,0.00018615,-0.00003799,0.00004518,-0.00009529,-0.0000
 2976,0.00004236,-0.00005598,0.00000613,0.00001933,0.00018454,0.0000263
 0,-0.00006432,0.00033298,0.00023679,-0.00022406,-0.00001837,-0.0000323
 7,-0.00002084,-0.00005463,-0.00001272,0.00000406,-0.00010186,0.0000646
 8,0.00016915,0.00007162,-0.00001182,-0.00001460,-0.00022831,0.00059223
 ,0.00063959,-0.00206082,-0.00270599,0.00127034,-0.00104137,0.00021667,
 0.00053696,-0.00008504,0.00000778,-0.00001138,0.00003900,0.00001140,0.
 00001237,0.00005244,0.00001630,0.00003295,-0.00000621,0.00003863,-0.00
 006577,0.00001475,0.00001007,0.00001646,-0.00007409,-0.00002121,0.0000
 4756,0.00015378,-0.00003238,0.00001718,-0.00004086,-0.00000363,0.00002
 658,-0.00002502,-0.00000680,0.00003156,0.00002366,0.00004623,0.0000091
 3,0.00001885,0.00001938,0.00001303,0.00010145,0.00001175,0.00006621,-0
 .00023040,-0.00019690,0.00015766,0.00000086,0.00001648,-0.00004451,-0.
 00003371,0.00011549,-0.00018627,0.00006720,-0.00007747,0.00012841,-0.0
 0001485,0.00000997,0.00006693,0.00000031,-0.00008033,-0.00000007,0.000
 02871,-0.00022198,0.00045433,-0.00008833,0.00008627,0.00005049,-0.0001
 8083,0.00025176,-0.00039155,0.00005232,0.00002212,-0.00269731,0.000028
 38,-0.00018014,-0.00012284,0.00007010,0.00037406,0.00030626,0.00139814
 ,-0.00050363,0.00055912,-0.00012243,0.00010937,-0.00009827,-0.00027118
 ,-0.00006134,0.00001050,0.00001028,0.00005013,-0.00010720,0.00004941,-
 0.00000894,-0.00000350,-0.00018786,-0.00008765,0.00018293,-0.00015413,
 0.00001822,-0.00000916,-0.00001088,0.00003676,0.00002139,0.00013474,-0
 .00003799,0.00002780,-0.00015948,0.00007519,-0.00007831,-0.00000328,0.
 00001499,0.00002204,-0.00000632,-0.00002431,-0.00000070,-0.00016575,0.
 00002071,0.00000565,0.00016678,-0.00002882,-0.00000068,-0.00001255,0.0
 0012714,-0.00018465,0.00016971,-0.00006028,0.00006160,-0.00273697,0.00
 195339,0.00101191,-0.00007695,-0.00012528,-0.00028069,0.00003296,-0.00
 002515,-0.00001069,0.00001224,-0.00003079,-0.00001114,0.02679600,-0.00
 595420,-0.02764732,0.00369275,-0.00528480,0.00413979,0.34958749,-0.423
 61575,-0.36472557,0.00387221,0.00652121,0.00205497,-0.00245089,0.00291
 093,-0.00365751,-0.37326898,0.42957886,0.00012731,-0.00010824,0.000106
 06,-0.00001044,0.00001995,-0.00002489,-0.00010168,0.00000022,-0.000099
 52,-0.00006680,0.00005737,-0.00003192,-0.00001649,0.00001633,-0.000030
 48,0.00016105,0.00014075,-0.00020932,-0.00016703,-0.00028658,-0.000086
 67,-0.00007113,0.00000386,-0.00004495,0.00018545,-0.00006413,0.0000732
 9,-0.00011019,-0.00002364,0.00003609,-0.00004958,0.00001754,-0.0000018
 2,0.00015515,-0.00000224,-0.00001389,0.00053798,0.00018653,-0.00017932
 ,-0.00001110,-0.00002288,-0.00002198,-0.00004918,0.00000381,-0.0000173
 6,-0.00024228,0.00014540,0.00010251,0.00008319,-0.00001053,-0.00000395
 ,-0.00022214,-0.00135884,-0.00000160,-0.00190158,-0.00006427,-0.001247
 77,-0.00158797,0.00123658,0.00029595,-0.00003953,0.00000520,-0.0000337
 8,0.00002819,0.00001607,0.00001274,0.00002338,0.00001381,0.00004852,0.
 00001497,0.00003775,-0.00006900,0.00002536,-0.00000732,0.00001989,-0.0
 0007960,-0.00001504,0.00001386,0.00015282,-0.00005670,0.00005356,-0.00
 004019,-0.00000049,0.00001347,-0.00002513,0.00000896,0.00001988,0.0000
 1633,0.00004169,-0.00000389,0.00002568,0.00001531,0.00001765,0.0001199
 2,0.00000959,0.00007478,-0.00029018,-0.00019458,0.00015521,0.00001186,
 0.00001828,-0.00002956,-0.00003095,0.00011235,-0.00017314,0.00009488,-
 0.00005047,0.00010057,-0.00003260,0.00000329,0.00008814,0.00002990,-0.
 00006156,0.00002541,-0.00010455,-0.00027720,0.00043752,0.00005066,0.00
 024388,0.00009321,-0.00016713,0.00023429,-0.00036076,0.00088970,0.0009
 1979,-0.00104338,0.00010703,-0.00017213,-0.00010464,-0.00017228,0.0001
 8085,-0.00023559,0.00096217,-0.00008068,0.00019941,-0.00007779,0.00009
 882,-0.00007717,-0.00038022,-0.00005549,0.00016227,0.00006217,0.000070
 84,-0.00013672,0.00002781,-0.00002062,-0.00000264,-0.00017992,-0.00010
 051,0.00020064,-0.00013915,0.00003177,-0.00003315,-0.00000466,0.000032
 93,0.00001134,0.00013200,-0.00002907,0.00001335,-0.00016257,0.00004470
 ,-0.00002721,0.00000009,0.00002199,0.00001492,-0.00000389,-0.00002154,
 -0.00001094,-0.00016093,0.00003127,-0.00001233,0.00016474,-0.00002719,
 -0.00000344,-0.00000845,0.00011884,-0.00017289,0.00015017,-0.00005265,
 0.00005294,-0.00150871,0.00023518,0.00058922,-0.00024074,-0.00021618,-
 0.00026025,0.00002164,-0.00002526,-0.00001305,0.00001859,-0.00003224,-
 0.00000616,0.02731758,-0.02674670,-0.00973171,0.00298591,-0.00217610,0
 .01046962,0.33028368,-0.36668731,-0.38526532,0.00398692,0.00613636,0.0
 0063037,-0.00253717,0.00217326,-0.00515384,-0.35510048,0.38985872,0.39
 183444,-0.00017127,0.00011802,-0.00018193,0.00001890,-0.00002801,0.000
 02271,0.00012546,-0.00004643,0.00014041,0.00010651,-0.00005754,0.00000
 947,0.00001960,-0.00001505,0.00003567,-0.00019856,-0.00012164,0.000266
 27,0.00043550,0.00025799,0.00011184,0.00009946,-0.00000565,0.00006163,
 -0.00022621,0.00007603,-0.00005887,0.00009809,-0.00000123,-0.00004075,
 0.00006432,-0.00002155,-0.00001185,-0.00021206,0.00001193,0.00005557,-
 0.00060912,-0.00007824,0.00037188,0.00001907,0.00003370,0.00002574,0.0
 0006524,-0.00000374,0.00000877,0.00015333,-0.00021547,-0.00027470,-0.0
 0009474,0.00001355,0.00000419,-0.00059005,-0.00107534,-0.00194281,0.00
 395879,0.00223207,0.00062678,0.00184759,0.00225706,0.00078754,0.000069
 02,-0.00002713,0.00001941,-0.00004083,-0.00002239,-0.00001849,-0.00004
 011,0.00000440,-0.00001795,-0.00001571,-0.00002740,0.00008026,-0.00002
 862,-0.00000714,-0.00001997,0.00011112,0.00000325,-0.00006333,-0.00019
 122,0.00006088,-0.00004439,0.00004921,0.00000110,-0.00002313,0.0000346
 8,-0.00000680,-0.00003152,-0.00002857,-0.00005679,-0.00001314,-0.00003
 045,-0.00002475,-0.00002257,-0.00013001,-0.00000551,-0.00008376,0.0003
 2568,0.00023884,-0.00020518,-0.00001047,-0.00001867,0.00005702,0.00003
 904,-0.00015164,0.00022412,-0.00008419,0.00011848,-0.00012618,-0.00002
 798,-0.00000814,-0.00007500,0.00003065,0.00012205,-0.00002657,0.000067
 09,0.00034660,-0.00061348,0.00032015,-0.00039401,-0.00002547,0.0002189
 5,-0.00033399,0.00049053,-0.00094014,-0.00276739,0.00151961,0.00002755
 ,0.00036203,0.00020601,0.00010551,-0.00018608,-0.00005997,-0.00140214,
 0.00037972,-0.00042297,0.00007314,-0.00011899,0.00010758,0.00039247,-0
 .00003927,-0.00012646,-0.00003410,-0.00012147,0.00016557,-0.00004031,0
 .00005902,0.00000451,0.00022679,0.00012229,-0.00024320,0.00018302,-0.0
 0004529,0.00002534,0.00000728,-0.00004437,-0.00001841,-0.00016970,0.00
 004100,-0.00002511,0.00020641,-0.00006512,0.00006433,-0.00000005,-0.00
 002508,-0.00002227,0.00000679,0.00002852,0.00000859,0.00020853,-0.0000
 3631,0.00000433,-0.00021238,0.00003478,0.00000240,0.00001368,-0.000153
 03,0.00021994,-0.00020035,0.00006995,-0.00007198,0.00326161,0.00154889
 ,0.00079290,0.00003971,0.00019359,0.00019195,-0.00003387,0.00002922,0.
 00001409,-0.00002150,0.00003911,0.00000812,-0.02055930,-0.03862254,-0.
 00876648,-0.00562220,0.00426869,-0.00634081,-0.00490607,0.00284950,0.0
 0449170,-0.54859210,-0.50328714,-0.14853344,0.00316466,-0.00320079,0.0
 0456465,0.00259770,-0.00280396,-0.00285985,0.56667206,-0.00016177,0.00
 008966,-0.00015861,0.00001732,-0.00002551,0.00002475,0.00011517,-0.000
 05320,0.00014243,0.00007077,-0.00005123,0.00001101,0.00001511,-0.00001
 464,0.00002831,-0.00017911,-0.00010158,0.00024464,0.00023874,0.0001514
 6,0.00003427,0.00009063,-0.00002065,0.00005818,-0.00021488,0.00008542,
 -0.00006635,0.00009237,-0.00000306,-0.00004939,0.00005710,-0.00002357,
 -0.00000959,-0.00019131,0.00001479,0.00005143,-0.00050513,-0.00000534,
 0.00035623,0.00001774,0.00003049,0.00002369,0.00006014,-0.00000545,0.0
 0000848,0.00026984,-0.00032794,-0.00037184,-0.00008747,0.00001246,-0.0
 0000017,0.00027638,-0.00008531,-0.00073325,0.00152120,0.00028540,0.000
 52165,0.00202922,-0.00187842,-0.00135427,0.00005918,-0.00003455,0.0000
 1430,-0.00003639,-0.00002048,-0.00001696,-0.00003975,-0.00000198,-0.00
 000993,-0.00000878,-0.00003936,0.00008824,-0.00002789,-0.00000629,-0.0
 0001790,0.00011473,-0.00000284,-0.00005613,-0.00017748,0.00006648,-0.0
 0004537,0.00004195,-0.00000069,-0.00002138,0.00003222,-0.00000705,-0.0
 0002804,-0.00002538,-0.00005224,-0.00001076,-0.00002821,-0.00002281,-0
 .00002077,-0.00012013,-0.00000453,-0.00007697,0.00030383,0.00021819,-0
 .00018587,-0.00001105,-0.00001684,0.00005254,0.00003593,-0.00013865,0.
 00019668,-0.00009229,0.00011213,-0.00009599,-0.00002917,-0.00000405,-0
 .00006190,0.00003931,0.00009148,-0.00003937,0.00007546,0.00030139,-0.0
 0049857,0.00012912,-0.00040014,-0.00002283,0.00019643,-0.00028731,0.00
 041791,-0.00077163,-0.00096886,0.00161674,0.00015970,0.00002224,0.0002
 8315,-0.00017802,-0.00020433,-0.00012613,-0.00127237,0.00045853,-0.000
 23637,0.00009997,-0.00013470,0.00006554,0.00040380,0.00002502,-0.00017
 331,-0.00005902,-0.00009226,0.00013172,-0.00003123,0.00006305,-0.00000
 234,0.00021273,0.00011013,-0.00022854,0.00016563,-0.00004379,0.0000220
 5,0.00000551,-0.00004097,-0.00001588,-0.00015529,0.00003643,-0.0000213
 0,0.00019009,-0.00005649,0.00005528,-0.00000043,-0.00002419,-0.0000198
 8,0.00000642,0.00002595,0.00000855,0.00018849,-0.00003467,0.00000560,-
 0.00019345,0.00003138,0.00000241,0.00001183,-0.00013833,0.00019766,-0.
 00018203,0.00006336,-0.00006532,0.00240123,0.00065899,0.00011178,0.000
 02491,0.00021155,0.00012907,-0.00003078,0.00002541,0.00001204,-0.00002
 001,0.00003509,0.00000680,-0.03984344,-0.01866812,-0.00762244,-0.00301
 656,0.00780833,-0.00784322,-0.00287359,0.00572504,0.00660375,-0.502747
 28,-0.53641359,-0.14562124,0.00276115,-0.00403558,0.00484015,0.0024311
 7,-0.00369801,-0.00349572,0.53834885,0.55142973,-0.00006040,0.00005046
 ,-0.00004537,0.00000486,-0.00000526,-0.00000592,0.00006150,-0.00003166
 ,0.00004793,0.00000962,0.00000387,-0.00000962,0.00000686,0.00000432,-0
 .00000029,-0.00002054,0.00000429,-0.00001127,-0.00006030,0.00005795,-0
 .00006138,0.00003817,-0.00000451,-0.00000688,-0.00005503,0.00001434,0.
 00000906,0.00001955,0.00001994,-0.00002748,0.00001829,0.00000153,-0.00
 002046,-0.00006994,-0.00001610,0.00005206,0.00002760,-0.00003374,0.000
 12477,0.00000981,0.00001452,0.00000407,0.00001919,0.00000810,-0.000013
 39,0.00030960,-0.00018087,-0.00025516,-0.00000920,0.00000462,0.0000128
 5,0.00042621,0.00111460,0.00093151,-0.00027024,-0.00015099,-0.00057538
 ,0.00050845,0.00003670,-0.00307133,0.00005010,-0.00000014,-0.00000730,
 -0.00001760,-0.00000195,-0.00000435,-0.00002375,0.00000662,0.00000796,
 0.00001367,-0.00000930,0.00001916,-0.00000308,-0.00001270,-0.00000028,
 0.00001972,0.00000386,-0.00001840,-0.00004497,0.00000113,0.00001559,0.
 00000895,0.00000155,-0.00001574,0.00000925,0.00000922,-0.00001463,-0.0
 0001220,-0.00001593,-0.00001300,-0.00000222,-0.00000931,-0.00000197,-0
 .00001502,-0.00000370,-0.00001252,0.00002979,0.00005571,-0.00005064,0.
 00000566,-0.00000123,0.00002556,0.00001064,-0.00004257,0.00005414,-0.0
 0000397,0.00003710,-0.00005192,0.00000953,-0.00002778,-0.00002520,-0.0
 0000274,0.00001184,-0.00000010,-0.00007041,0.00011913,-0.00008176,-0.0
 0008839,-0.00006602,0.00007290,0.00005946,-0.00008669,0.00012304,0.000
 20269,-0.00161665,0.00033611,-0.00005332,0.00042544,0.00003835,-0.0000
 0884,-0.00007572,-0.00003791,-0.00066203,0.00028131,-0.00042265,0.0000
 1293,-0.00005172,0.00007365,0.00000886,-0.00007722,0.00001322,0.000020
 86,-0.00001927,0.00000411,-0.00003018,0.00001205,0.00000977,0.00006012
 ,0.00001929,-0.00004421,0.00005267,-0.00000212,-0.00001307,0.00000575,
 -0.00001413,-0.00001124,-0.00004124,0.00001575,-0.00001611,0.00004588,
 -0.00003660,0.00005226,0.00000233,-0.00000132,-0.00001022,0.00000368,0
 .00000889,-0.00000554,0.00005078,-0.00000083,-0.00001186,-0.00005040,0
 .00000902,-0.00000143,0.00000604,-0.00004145,0.00005749,-0.00006038,0.
 00002165,-0.00002285,0.00168316,0.00080570,0.00088767,0.00008978,-0.00
 004169,-0.00007180,-0.00001586,0.00000580,0.00000114,-0.00000058,0.000
 00769,0.00000517,-0.00963161,-0.00850461,0.01774683,-0.00202620,-0.002
 83444,-0.00183493,-0.00040531,0.00265187,0.00155066,-0.14710740,-0.143
 81989,-0.08002617,0.00084120,0.00013207,0.00122311,0.00053959,-0.00119
 680,-0.00099076,0.15562056,0.15305690,0.06442235\\0.00000256,0.0000040
 9,0.00000551,-0.00000416,0.00000039,0.00000346,0.00000374,-0.00000233,
 0.00001070,-0.00000720,-0.00000172,0.00000029,-0.00000723,-0.00000044,
 0.00000161,0.00000195,0.00000830,0.00000657,-0.00000393,0.00001555,0.0
 0000136,-0.00000185,0.00000294,-0.00000320,0.00000487,-0.00000527,0.00
 000711,-0.00000060,0.00000469,-0.00000330,-0.00000012,-0.00000111,-0.0
 0000277,-0.00000412,-0.00000122,0.00000155,0.00000817,-0.00000210,0.00
 000267,0.00000027,-0.00000004,0.00000061,0.00000222,0.00000172,-0.0000
 0120,-0.00000592,0.00001371,-0.00000241,-0.00000234,-0.00000455,-0.000
 00339,-0.00001288,-0.00001798,0.00000621,-0.00000820,-0.00000198,-0.00
 002423,-0.00001151,0.00000364,0.00001455,0.00001518,0.00000358,-0.0000
 0341,-0.00000216,0.00000268,0.00000311,0.00000313,0.00000156,0.0000011
 9,0.00000209,0.00000004,0.00000423,0.00000054,0.00000032,-0.00000015,-
 0.00000339,-0.00000667,0.00000005,-0.00000283,0.00000009,0.00000062,-0
 .00000306,0.00000077,-0.00000171,-0.00000099,-0.00000190,-0.00000165,0
 .00000648,0.00000149,0.00000341,0.00000195,-0.00000193,-0.00000283,-0.
 00000353,-0.00000269,-0.00000027,0.00002014,0.00000223,0.00000160,0.00
 000072,-0.00000281,0.00000073,-0.00000108,-0.00000195,0.00000056,-0.00
 000263,-0.00000827,-0.00000880,0.00000016,-0.00000203,-0.00000025,-0.0
 0000010,-0.00000271,-0.00000212,0.00000285,0.00001733,-0.00000085,0.00
 000529,-0.00000397,-0.00000350,-0.00000241,-0.00000076,-0.00000045,0.0
 0001157,0.00001213,0.00001629,0.00000435,-0.00000368,-0.00000385,-0.00
 001785,-0.00002508,0.00000102,0.00000360,0.00002046,-0.00002130,-0.000
 00329,-0.00001107,0.00000606,-0.00000346,-0.00000220,0.00000269,0.0000
 1530,-0.00000196,-0.00000411,0.00000005,0.00000172,-0.00000077,-0.0000
 1894,0.00000751,-0.00000760,-0.00000118,-0.00000403,-0.00000181,0.,0.0
 0000107,0.00000029,0.00000070,0.00000103,-0.00000244,-0.00000426,0.000
 00286,0.00000783,0.00000198,-0.00000340,0.00000017,0.00000211,-0.00000
 050,0.00000180,0.00000029,0.00000027,0.00000529,0.00000122,0.00000002,
 -0.00000152,-0.00000570,-0.00000032,0.00000210,-0.00000077,-0.00000030
 ,0.00000166,-0.00000283,-0.00000892,0.00000343,0.00001183,-0.00000752,
 -0.00001477,-0.00000078,0.00000015,0.00000228,-0.00000153,-0.00000460,
 0.00000096,0.00004510,0.00002658,0.00000079,-0.00002254,0.00001673,-0.
 00004927,0.00000355,-0.00002489,-0.00001382,-0.00005526,-0.00004653,-0
 .00000538,0.00002600,-0.00001957,0.00004173,-0.00001837,0.00001695,0.0
 0000845,0.00003905,0.00004639,0.00001259\\\@
 The archive entry for this job was punched.


 I MET A TRAVELLER FROM AN ANTIQUE LAND
 WHO SAID... TWO VAST AND TRUNKLESS LEGS OF STONE
 STAND IN THE DESERT..... NEAR THEM,  ON THE SAND,
 HALF SUNK,  A SHATTERED VISAGE LIES,  WHOSE FROWN,
 AND WRINKLED LIP,  AND SNEER OF COLD COMMAND
 TELL THAT ITS SCULPTOR WELL THOSE PASSIONS READ
 WHICH YET SURVIVE,  STAMPED ON THESE LIFELESS THINGS
 THE HAND THAT MOCKED THEM,  AND THE HEART THAT FED-
 AND ON THE PEDESTAL THESE WORDS APPEAR 
 MY NAME IS OZYMANDIAS, KING OF KINGS--   
 LOOK ON MY WORKS YE MIGHTY AND DESPAIR. 
 NOTHING BESIDE REMAINS,  ROUND THE DECAY 
 OF THAT COLOSSAL WRECK,  BOUNDLESS AND BARE
 THE LONE AND LEVEL SANDS STRETCH FAR AWAY.
                                    SHELLEY
 Job cpu time:       8 days  2 hours  0 minutes 38.8 seconds.
 Elapsed time:       0 days  4 hours  3 minutes 10.1 seconds.
 File lengths (MBytes):  RWF=  18488 Int=      0 D2E=      0 Chk=    161 Scr=      2
 Normal termination of Gaussian 16 at Wed Feb 22 22:10:22 2023.
