 Entering Gaussian System, Link 0=/apps/GAU16/avx2/g16/g16
 Initial command:
 /apps/GAU16/avx2//g16/l1.exe "/localscratch/chegho/Gau-6841.inp" -scrdir="/localscratch/chegho/"
 Entering Link 1 = /apps/GAU16/avx2//g16/l1.exe PID=      6842.
  
 Copyright (c) 1988-2019, Gaussian, Inc.  All Rights Reserved.
  
 This is part of the Gaussian(R) 16 program.  It is based on
 the Gaussian(R) 09 system (copyright 2009, Gaussian, Inc.),
 the Gaussian(R) 03 system (copyright 2003, Gaussian, Inc.),
 the Gaussian(R) 98 system (copyright 1998, Gaussian, Inc.),
 the Gaussian(R) 94 system (copyright 1995, Gaussian, Inc.),
 the Gaussian 92(TM) system (copyright 1992, Gaussian, Inc.),
 the Gaussian 90(TM) system (copyright 1990, Gaussian, Inc.),
 the Gaussian 88(TM) system (copyright 1988, Gaussian, Inc.),
 the Gaussian 86(TM) system (copyright 1986, Carnegie Mellon
 University), and the Gaussian 82(TM) system (copyright 1983,
 Carnegie Mellon University). Gaussian is a federally registered
 trademark of Gaussian, Inc.
  
 This software contains proprietary and confidential information,
 including trade secrets, belonging to Gaussian, Inc.
  
 This software is provided under written license and may be
 used, copied, transmitted, or stored only in accord with that
 written license.
  
 The following legend is applicable only to US Government
 contracts under FAR:
  
                    RESTRICTED RIGHTS LEGEND
  
 Use, reproduction and disclosure by the US Government is
 subject to restrictions as set forth in subparagraphs (a)
 and (c) of the Commercial Computer Software - Restricted
 Rights clause in FAR 52.227-19.
  
 Gaussian, Inc.
 340 Quinnipiac St., Bldg. 40, Wallingford CT 06492
  
  
 ---------------------------------------------------------------
 Warning -- This program may not be used in any manner that
 competes with the business of Gaussian, Inc. or will provide
 assistance to any competitor of Gaussian, Inc.  The licensee
 of this program is prohibited from giving any competitor of
 Gaussian, Inc. access to this program.  By using this program,
 the user acknowledges that Gaussian, Inc. is engaged in the
 business of creating and licensing software in the field of
 computational chemistry and represents and warrants to the
 licensee that it is not a competitor of Gaussian, Inc. and that
 it will not use this program in any manner prohibited above.
 ---------------------------------------------------------------
  

 Cite this work as:
 Gaussian 16, Revision C.01,
 M. J. Frisch, G. W. Trucks, H. B. Schlegel, G. E. Scuseria, 
 M. A. Robb, J. R. Cheeseman, G. Scalmani, V. Barone, 
 G. A. Petersson, H. Nakatsuji, X. Li, M. Caricato, A. V. Marenich, 
 J. Bloino, B. G. Janesko, R. Gomperts, B. Mennucci, H. P. Hratchian, 
 J. V. Ortiz, A. F. Izmaylov, J. L. Sonnenberg, D. Williams-Young, 
 F. Ding, F. Lipparini, F. Egidi, J. Goings, B. Peng, A. Petrone, 
 T. Henderson, D. Ranasinghe, V. G. Zakrzewski, J. Gao, N. Rega, 
 G. Zheng, W. Liang, M. Hada, M. Ehara, K. Toyota, R. Fukuda, 
 J. Hasegawa, M. Ishida, T. Nakajima, Y. Honda, O. Kitao, H. Nakai, 
 T. Vreven, K. Throssell, J. A. Montgomery, Jr., J. E. Peralta, 
 F. Ogliaro, M. J. Bearpark, J. J. Heyd, E. N. Brothers, K. N. Kudin, 
 V. N. Staroverov, T. A. Keith, R. Kobayashi, J. Normand, 
 K. Raghavachari, A. P. Rendell, J. C. Burant, S. S. Iyengar, 
 J. Tomasi, M. Cossi, J. M. Millam, M. Klene, C. Adamo, R. Cammi, 
 J. W. Ochterski, R. L. Martin, K. Morokuma, O. Farkas, 
 J. B. Foresman, and D. J. Fox, Gaussian, Inc., Wallingford CT, 2019.
 
 ******************************************
 Gaussian 16:  ES64L-G16RevC.01  3-Jul-2019
                22-Feb-2023 
 ******************************************
 %nprocshared=48
 Will use up to   48 processors via shared memory.
 %chk=Mo19S45_Szz_MoCO2.chk
 %mem=100GB
 ----------------------------------------------------------
 # opt freq b3lyp/gen nosymm pseudo=read scf=maxcycles=1000
 ----------------------------------------------------------
 1/18=20,19=15,26=3,38=1/1,3;
 2/9=110,12=2,15=1,17=6,18=5,40=1/2;
 3/5=7,11=2,16=1,17=8,25=1,30=1,71=1,74=-5/1,2,3;
 4//1;
 5/5=2,7=1000,38=5/2;
 6/7=2,8=2,9=2,10=2,28=1/1;
 7/30=1/1,2,3,16;
 1/18=20,19=15,26=3/3(2);
 2/9=110,15=1/2;
 99//99;
 2/9=110,15=1/2;
 3/5=7,6=1,11=2,16=1,17=8,25=1,30=1,71=1,74=-5,82=7/1,2,3;
 4/5=5,16=3,69=1/1;
 5/5=2,7=1000,38=5/2;
 7/30=1/1,2,3,16;
 1/18=20,19=15,26=3/3(-5);
 2/9=110,15=1/2;
 6/7=2,8=2,9=2,10=2,19=2,28=1/1;
 99/9=1/99;
 -------------------
 Title Card Required
 -------------------
 Symbolic Z-matrix:
 Charge =  0 Multiplicity = 1
 42                    0.35169   1.30333   12.50259 
 16                    2.33204   2.25644   13.56942 
 16                   -0.76332   2.0613    14.66454 
 16                   -0.37322   0.90636   10.22544 
 16                    1.97672  -0.42766   11.94213 
 42                   -1.96306   2.61453   10.83515 
 16                   -2.77615   2.26343   8.55473 
 16                   -0.03184   3.61273   11.88916 
 42                    1.01428   2.86414   9.82517 
 16                    0.22835   2.54024   7.52489 
 16                    2.64098   1.13283   9.25014 
 42                    3.41523   1.49397   11.52182 
 42                   -1.41615   4.22498   8.12568 
 16                    5.47519   2.48078   12.66173 
 16                    3.01846   3.79886   10.87698 
 16                   -2.46716   4.91927   10.19313 
 16                    1.18027   6.86788   6.52059 
 42                   -4.44761   3.85866   9.27577 
 16                   -5.75022   1.8278    9.57967 
 16                   -5.41609   4.71664   11.33621 
 42                    2.56915  -0.03728   14.2369 
 16                    4.80987   0.23719   15.3636 
 16                    1.59414   0.71352   16.25325 
 42                    1.64847   4.45813   7.15933 
 16                    1.01038   4.3042    4.75033 
 16                    0.56783   5.18436   9.19037 
 42                    4.07521   3.04199   8.83 
 16                    3.23043   2.68942   6.57153 
 16                    3.68611   5.35287   8.19046 
 42                    4.6192    4.56465   6.11298 
 16                    7.04357   5.05708   6.51076 
 16                    4.41141   7.03106   5.61262 
 42                    2.53827   6.29012   4.6224 
 16                    4.00079   4.40215   3.90555 
 16                   -1.13566   6.99184   3.73988 
 42                   -0.80308   5.83275   5.47616 
 16                   -2.13865   3.82182   5.68172 
 16                   -1.8725    6.67749   7.47727 
 42                   -3.58912   5.57995   6.29816 
 16                   -5.46986   4.10392   6.99631 
 16                   -4.3861    6.66891   4.67599 
 42                   -5.01488   2.37446   11.82556 
 16                   -3.08136   3.32319   12.94581 
 16                   -3.403     0.63771   11.30656 
 42                   -2.64116   1.01777   13.58495 
 16                   -1.11462  -0.73004   12.96253 
 16                   -4.31676   0.48929   14.78491 
 42                   -0.37693  -0.2544    15.20585 
 16                    1.25103  -1.96366   14.62712 
 16                   -1.45322  -1.10047   16.82047 
 42                    5.84575   0.20691   13.10063 
 16                    5.06867  -0.37153   10.96696 
 16                    8.39359   1.14818   10.86839 
 42                    6.36735   1.67492   10.50364 
 16                    5.72735   1.16329   8.19823 
 16                    6.19376   4.03858   9.88465 
 42                    7.11393   3.03024   7.97262 
 16                    9.19229   2.63112   8.03183 
 16                    2.32262   7.52889   2.91553 
 16                    7.82797  -0.37108   13.60494 
 16                   -6.98309   2.03642   12.77277 
 16                   -5.28821   5.89807   8.08641 
 16                    4.56999  -1.56658   14.291 
 16                    6.66794   3.21474   5.54247 
 42                   -7.38105   3.41223   10.56838 
 6                    -8.15807   4.42764   9.01775 
 6                    -8.56876   4.62101   11.71296 
 8                    -8.66844   5.00136   8.15234 
 8                    -9.20289   5.31829   12.3734 
 

 GradGradGradGradGradGradGradGradGradGradGradGradGradGradGradGradGradGrad
 Berny optimization.
 Initialization pass.
                           ----------------------------
                           !    Initial Parameters    !
                           ! (Angstroms and Degrees)  !
 --------------------------                            --------------------------
 ! Name  Definition              Value          Derivative Info.                !
 --------------------------------------------------------------------------------
 ! R1    R(1,2)                  2.443          estimate D2E/DX2                !
 ! R2    R(1,3)                  2.5479         estimate D2E/DX2                !
 ! R3    R(1,4)                  2.4225         estimate D2E/DX2                !
 ! R4    R(1,5)                  2.4395         estimate D2E/DX2                !
 ! R5    R(1,8)                  2.4201         estimate D2E/DX2                !
 ! R6    R(1,21)                 3.118          estimate D2E/DX2                !
 ! R7    R(1,46)                 2.5488         estimate D2E/DX2                !
 ! R8    R(2,12)                 2.4387         estimate D2E/DX2                !
 ! R9    R(2,21)                 2.4006         estimate D2E/DX2                !
 ! R10   R(3,45)                 2.4043         estimate D2E/DX2                !
 ! R11   R(3,48)                 2.4093         estimate D2E/DX2                !
 ! R12   R(4,6)                  2.4119         estimate D2E/DX2                !
 ! R13   R(4,9)                  2.4328         estimate D2E/DX2                !
 ! R14   R(5,12)                 2.4369         estimate D2E/DX2                !
 ! R15   R(5,21)                 2.4019         estimate D2E/DX2                !
 ! R16   R(6,7)                  2.4464         estimate D2E/DX2                !
 ! R17   R(6,8)                  2.416          estimate D2E/DX2                !
 ! R18   R(6,16)                 2.445          estimate D2E/DX2                !
 ! R19   R(6,43)                 2.4915         estimate D2E/DX2                !
 ! R20   R(6,44)                 2.4907         estimate D2E/DX2                !
 ! R21   R(7,13)                 2.4252         estimate D2E/DX2                !
 ! R22   R(7,18)                 2.4204         estimate D2E/DX2                !
 ! R23   R(8,9)                  2.432          estimate D2E/DX2                !
 ! R24   R(9,10)                 2.4523         estimate D2E/DX2                !
 ! R25   R(9,11)                 2.4442         estimate D2E/DX2                !
 ! R26   R(9,15)                 2.4488         estimate D2E/DX2                !
 ! R27   R(9,26)                 2.4466         estimate D2E/DX2                !
 ! R28   R(10,13)                2.4297         estimate D2E/DX2                !
 ! R29   R(10,24)                2.4143         estimate D2E/DX2                !
 ! R30   R(11,12)                2.427          estimate D2E/DX2                !
 ! R31   R(11,27)                2.4245         estimate D2E/DX2                !
 ! R32   R(12,14)                2.5528         estimate D2E/DX2                !
 ! R33   R(12,15)                2.4261         estimate D2E/DX2                !
 ! R34   R(12,52)                2.5538         estimate D2E/DX2                !
 ! R35   R(13,16)                2.421          estimate D2E/DX2                !
 ! R36   R(13,26)                2.4475         estimate D2E/DX2                !
 ! R37   R(13,37)                2.5802         estimate D2E/DX2                !
 ! R38   R(13,38)                2.5775         estimate D2E/DX2                !
 ! R39   R(14,51)                2.3453         estimate D2E/DX2                !
 ! R40   R(14,54)                2.4704         estimate D2E/DX2                !
 ! R41   R(15,27)                2.4248         estimate D2E/DX2                !
 ! R42   R(16,18)                2.4267         estimate D2E/DX2                !
 ! R43   R(17,24)                2.5365         estimate D2E/DX2                !
 ! R44   R(17,33)                2.4044         estimate D2E/DX2                !
 ! R45   R(17,36)                2.469          estimate D2E/DX2                !
 ! R46   R(18,19)                2.4318         estimate D2E/DX2                !
 ! R47   R(18,20)                2.433          estimate D2E/DX2                !
 ! R48   R(18,40)                2.5102         estimate D2E/DX2                !
 ! R49   R(18,42)                3.0043         estimate D2E/DX2                !
 ! R50   R(18,62)                2.5061         estimate D2E/DX2                !
 ! R51   R(19,42)                2.4256         estimate D2E/DX2                !
 ! R52   R(19,65)                2.4794         estimate D2E/DX2                !
 ! R53   R(20,42)                2.4262         estimate D2E/DX2                !
 ! R54   R(20,65)                2.4803         estimate D2E/DX2                !
 ! R55   R(21,22)                2.523          estimate D2E/DX2                !
 ! R56   R(21,23)                2.3622         estimate D2E/DX2                !
 ! R57   R(21,48)                3.1089         estimate D2E/DX2                !
 ! R58   R(21,49)                2.3666         estimate D2E/DX2                !
 ! R59   R(21,63)                2.5189         estimate D2E/DX2                !
 ! R60   R(22,51)                2.489          estimate D2E/DX2                !
 ! R61   R(22,63)                2.1123         estimate D2E/DX2                !
 ! R62   R(23,48)                2.4329         estimate D2E/DX2                !
 ! R63   R(24,25)                2.4968         estimate D2E/DX2                !
 ! R64   R(24,26)                2.4125         estimate D2E/DX2                !
 ! R65   R(24,28)                2.4447         estimate D2E/DX2                !
 ! R66   R(24,29)                2.4527         estimate D2E/DX2                !
 ! R67   R(25,33)                2.5089         estimate D2E/DX2                !
 ! R68   R(25,36)                2.4803         estimate D2E/DX2                !
 ! R69   R(27,28)                2.4369         estimate D2E/DX2                !
 ! R70   R(27,29)                2.4291         estimate D2E/DX2                !
 ! R71   R(27,55)                2.5804         estimate D2E/DX2                !
 ! R72   R(27,56)                2.5678         estimate D2E/DX2                !
 ! R73   R(28,30)                2.3781         estimate D2E/DX2                !
 ! R74   R(29,30)                2.41           estimate D2E/DX2                !
 ! R75   R(30,31)                2.5057         estimate D2E/DX2                !
 ! R76   R(30,32)                2.5252         estimate D2E/DX2                !
 ! R77   R(30,33)                3.087          estimate D2E/DX2                !
 ! R78   R(30,34)                2.2982         estimate D2E/DX2                !
 ! R79   R(30,64)                2.5189         estimate D2E/DX2                !
 ! R80   R(31,57)                2.5            estimate D2E/DX2                !
 ! R81   R(31,64)                2.1149         estimate D2E/DX2                !
 ! R82   R(32,33)                2.2446         estimate D2E/DX2                !
 ! R83   R(33,34)                2.4934         estimate D2E/DX2                !
 ! R84   R(33,59)                2.12           estimate D2E/DX2                !
 ! R85   R(35,36)                2.1139         estimate D2E/DX2                !
 ! R86   R(36,37)                2.4228         estimate D2E/DX2                !
 ! R87   R(36,38)                2.4211         estimate D2E/DX2                !
 ! R88   R(36,39)                2.9158         estimate D2E/DX2                !
 ! R89   R(37,39)                2.3611         estimate D2E/DX2                !
 ! R90   R(38,39)                2.3541         estimate D2E/DX2                !
 ! R91   R(39,40)                2.4906         estimate D2E/DX2                !
 ! R92   R(39,41)                2.1101         estimate D2E/DX2                !
 ! R93   R(39,62)                2.4872         estimate D2E/DX2                !
 ! R94   R(40,62)                2.1072         estimate D2E/DX2                !
 ! R95   R(42,43)                2.4277         estimate D2E/DX2                !
 ! R96   R(42,44)                2.4257         estimate D2E/DX2                !
 ! R97   R(42,61)                2.2103         estimate D2E/DX2                !
 ! R98   R(42,65)                2.8734         estimate D2E/DX2                !
 ! R99   R(43,45)                2.4325         estimate D2E/DX2                !
 ! R100  R(44,45)                2.4323         estimate D2E/DX2                !
 ! R101  R(45,46)                2.4026         estimate D2E/DX2                !
 ! R102  R(45,47)                2.1276         estimate D2E/DX2                !
 ! R103  R(45,48)                3.0615         estimate D2E/DX2                !
 ! R104  R(46,48)                2.4089         estimate D2E/DX2                !
 ! R105  R(48,49)                2.4304         estimate D2E/DX2                !
 ! R106  R(48,50)                2.1169         estimate D2E/DX2                !
 ! R107  R(51,52)                2.3433         estimate D2E/DX2                !
 ! R108  R(51,54)                3.0284         estimate D2E/DX2                !
 ! R109  R(51,60)                2.1255         estimate D2E/DX2                !
 ! R110  R(51,63)                2.4879         estimate D2E/DX2                !
 ! R111  R(52,54)                2.4676         estimate D2E/DX2                !
 ! R112  R(53,54)                2.1251         estimate D2E/DX2                !
 ! R113  R(54,55)                2.4467         estimate D2E/DX2                !
 ! R114  R(54,56)                2.4495         estimate D2E/DX2                !
 ! R115  R(54,57)                2.9665         estimate D2E/DX2                !
 ! R116  R(55,57)                2.3365         estimate D2E/DX2                !
 ! R117  R(56,57)                2.3493         estimate D2E/DX2                !
 ! R118  R(57,58)                2.1172         estimate D2E/DX2                !
 ! R119  R(57,64)                2.4776         estimate D2E/DX2                !
 ! R120  R(61,65)                2.6288         estimate D2E/DX2                !
 ! R121  R(65,66)                2.0098         estimate D2E/DX2                !
 ! R122  R(65,67)                2.045          estimate D2E/DX2                !
 ! R123  R(66,68)                1.157          estimate D2E/DX2                !
 ! R124  R(67,69)                1.1509         estimate D2E/DX2                !
 ! A1    A(2,1,3)               82.423          estimate D2E/DX2                !
 ! A2    A(2,1,4)              135.806          estimate D2E/DX2                !
 ! A3    A(2,1,5)               80.6292         estimate D2E/DX2                !
 ! A4    A(2,1,8)               82.3488         estimate D2E/DX2                !
 ! A5    A(2,1,46)             134.3305         estimate D2E/DX2                !
 ! A6    A(3,1,4)              135.6767         estimate D2E/DX2                !
 ! A7    A(3,1,5)              134.2302         estimate D2E/DX2                !
 ! A8    A(3,1,8)               82.0587         estimate D2E/DX2                !
 ! A9    A(3,1,21)              88.1183         estimate D2E/DX2                !
 ! A10   A(3,1,46)              80.3546         estimate D2E/DX2                !
 ! A11   A(4,1,5)               82.3627         estimate D2E/DX2                !
 ! A12   A(4,1,8)               82.5698         estimate D2E/DX2                !
 ! A13   A(4,1,21)             131.6977         estimate D2E/DX2                !
 ! A14   A(4,1,46)              82.3421         estimate D2E/DX2                !
 ! A15   A(5,1,8)              136.4234         estimate D2E/DX2                !
 ! A16   A(5,1,46)              81.8714         estimate D2E/DX2                !
 ! A17   A(8,1,21)             131.6046         estimate D2E/DX2                !
 ! A18   A(8,1,46)             135.7146         estimate D2E/DX2                !
 ! A19   A(21,1,46)             88.0375         estimate D2E/DX2                !
 ! A20   A(1,2,12)              82.6125         estimate D2E/DX2                !
 ! A21   A(12,2,21)             83.7337         estimate D2E/DX2                !
 ! A22   A(1,3,45)              80.3093         estimate D2E/DX2                !
 ! A23   A(1,3,48)              80.4753         estimate D2E/DX2                !
 ! A24   A(1,4,6)               80.9999         estimate D2E/DX2                !
 ! A25   A(1,4,9)               81.4958         estimate D2E/DX2                !
 ! A26   A(6,4,9)               81.2332         estimate D2E/DX2                !
 ! A27   A(1,5,12)              82.722          estimate D2E/DX2                !
 ! A28   A(12,5,21)             83.744          estimate D2E/DX2                !
 ! A29   A(4,6,7)               83.2114         estimate D2E/DX2                !
 ! A30   A(4,6,8)               82.8767         estimate D2E/DX2                !
 ! A31   A(4,6,16)             137.4866         estimate D2E/DX2                !
 ! A32   A(4,6,43)             135.3535         estimate D2E/DX2                !
 ! A33   A(4,6,44)              82.3465         estimate D2E/DX2                !
 ! A34   A(7,6,8)              137.0248         estimate D2E/DX2                !
 ! A35   A(7,6,16)              79.746          estimate D2E/DX2                !
 ! A36   A(7,6,43)             132.9464         estimate D2E/DX2                !
 ! A37   A(7,6,44)              82.5518         estimate D2E/DX2                !
 ! A38   A(8,6,16)              83.6791         estimate D2E/DX2                !
 ! A39   A(8,6,43)              82.628          estimate D2E/DX2                !
 ! A40   A(8,6,44)             135.0305         estimate D2E/DX2                !
 ! A41   A(16,6,43)             82.0561         estimate D2E/DX2                !
 ! A42   A(16,6,44)            132.7386         estimate D2E/DX2                !
 ! A43   A(43,6,44)             78.809          estimate D2E/DX2                !
 ! A44   A(6,7,13)              82.0937         estimate D2E/DX2                !
 ! A45   A(6,7,18)              81.7926         estimate D2E/DX2                !
 ! A46   A(13,7,18)             84.6574         estimate D2E/DX2                !
 ! A47   A(1,8,6)               80.9669         estimate D2E/DX2                !
 ! A48   A(1,8,9)               81.5598         estimate D2E/DX2                !
 ! A49   A(6,8,9)               81.1653         estimate D2E/DX2                !
 ! A50   A(4,9,8)               82.111          estimate D2E/DX2                !
 ! A51   A(4,9,10)              82.2562         estimate D2E/DX2                !
 ! A52   A(4,9,11)              81.2717         estimate D2E/DX2                !
 ! A53   A(4,9,15)             134.6915         estimate D2E/DX2                !
 ! A54   A(4,9,26)             134.5728         estimate D2E/DX2                !
 ! A55   A(8,9,10)             134.3349         estimate D2E/DX2                !
 ! A56   A(8,9,11)             134.7449         estimate D2E/DX2                !
 ! A57   A(8,9,15)              82.5323         estimate D2E/DX2                !
 ! A58   A(8,9,26)              81.3616         estimate D2E/DX2                !
 ! A59   A(10,9,11)             84.2069         estimate D2E/DX2                !
 ! A60   A(10,9,15)            135.6919         estimate D2E/DX2                !
 ! A61   A(10,9,26)             79.8281         estimate D2E/DX2                !
 ! A62   A(11,9,15)             80.0221         estimate D2E/DX2                !
 ! A63   A(11,9,26)            137.0669         estimate D2E/DX2                !
 ! A64   A(15,9,26)             84.1918         estimate D2E/DX2                !
 ! A65   A(9,10,13)             83.8803         estimate D2E/DX2                !
 ! A66   A(9,10,24)             81.2912         estimate D2E/DX2                !
 ! A67   A(13,10,24)            83.3813         estimate D2E/DX2                !
 ! A68   A(9,11,12)             83.4951         estimate D2E/DX2                !
 ! A69   A(9,11,27)             82.9173         estimate D2E/DX2                !
 ! A70   A(12,11,27)            81.7388         estimate D2E/DX2                !
 ! A71   A(2,12,5)              80.7662         estimate D2E/DX2                !
 ! A72   A(2,12,11)            133.6862         estimate D2E/DX2                !
 ! A73   A(2,12,14)             82.1047         estimate D2E/DX2                !
 ! A74   A(2,12,15)             81.5751         estimate D2E/DX2                !
 ! A75   A(2,12,52)            134.2978         estimate D2E/DX2                !
 ! A76   A(5,12,11)             81.7084         estimate D2E/DX2                !
 ! A77   A(5,12,14)            134.7608         estimate D2E/DX2                !
 ! A78   A(5,12,15)            134.3039         estimate D2E/DX2                !
 ! A79   A(5,12,52)             81.0044         estimate D2E/DX2                !
 ! A80   A(11,12,14)           137.1307         estimate D2E/DX2                !
 ! A81   A(11,12,15)            80.817          estimate D2E/DX2                !
 ! A82   A(11,12,52)            83.9432         estimate D2E/DX2                !
 ! A83   A(14,12,15)            83.304          estimate D2E/DX2                !
 ! A84   A(14,12,52)            81.7752         estimate D2E/DX2                !
 ! A85   A(15,12,52)           137.9138         estimate D2E/DX2                !
 ! A86   A(7,13,10)             82.0949         estimate D2E/DX2                !
 ! A87   A(7,13,16)             80.6433         estimate D2E/DX2                !
 ! A88   A(7,13,26)            134.0015         estimate D2E/DX2                !
 ! A89   A(7,13,37)             83.3481         estimate D2E/DX2                !
 ! A90   A(7,13,38)            135.6294         estimate D2E/DX2                !
 ! A91   A(10,13,16)           134.7357         estimate D2E/DX2                !
 ! A92   A(10,13,26)            80.2538         estimate D2E/DX2                !
 ! A93   A(10,13,37)            81.1974         estimate D2E/DX2                !
 ! A94   A(10,13,38)           135.839          estimate D2E/DX2                !
 ! A95   A(16,13,26)            82.4151         estimate D2E/DX2                !
 ! A96   A(16,13,37)           137.0656         estimate D2E/DX2                !
 ! A97   A(16,13,38)            82.2468         estimate D2E/DX2                !
 ! A98   A(26,13,37)           134.4496         estimate D2E/DX2                !
 ! A99   A(26,13,38)            83.1068         estimate D2E/DX2                !
 ! A100  A(37,13,38)            81.9994         estimate D2E/DX2                !
 ! A101  A(12,14,51)            80.5767         estimate D2E/DX2                !
 ! A102  A(12,14,54)            77.0108         estimate D2E/DX2                !
 ! A103  A(9,15,12)             83.418          estimate D2E/DX2                !
 ! A104  A(9,15,27)             82.8158         estimate D2E/DX2                !
 ! A105  A(12,15,27)            81.753          estimate D2E/DX2                !
 ! A106  A(6,16,13)             82.2071         estimate D2E/DX2                !
 ! A107  A(6,16,18)             81.6938         estimate D2E/DX2                !
 ! A108  A(13,16,18)            84.6135         estimate D2E/DX2                !
 ! A109  A(24,17,33)            82.3149         estimate D2E/DX2                !
 ! A110  A(24,17,36)            81.7501         estimate D2E/DX2                !
 ! A111  A(33,17,36)            91.0891         estimate D2E/DX2                !
 ! A112  A(7,18,16)             80.6238         estimate D2E/DX2                !
 ! A113  A(7,18,19)             81.7627         estimate D2E/DX2                !
 ! A114  A(7,18,20)            139.4276         estimate D2E/DX2                !
 ! A115  A(7,18,40)             94.3073         estimate D2E/DX2                !
 ! A116  A(7,18,42)             93.3036         estimate D2E/DX2                !
 ! A117  A(7,18,62)            128.7995         estimate D2E/DX2                !
 ! A118  A(16,18,19)           139.0198         estimate D2E/DX2                !
 ! A119  A(16,18,20)            81.4072         estimate D2E/DX2                !
 ! A120  A(16,18,40)           129.2672         estimate D2E/DX2                !
 ! A121  A(16,18,42)            92.8189         estimate D2E/DX2                !
 ! A122  A(16,18,62)            95.5937         estimate D2E/DX2                !
 ! A123  A(19,18,20)            88.5932         estimate D2E/DX2                !
 ! A124  A(19,18,40)            88.6785         estimate D2E/DX2                !
 ! A125  A(19,18,62)           124.0048         estimate D2E/DX2                !
 ! A126  A(20,18,40)           124.9225         estimate D2E/DX2                !
 ! A127  A(20,18,62)            88.9355         estimate D2E/DX2                !
 ! A128  A(40,18,42)           137.9077         estimate D2E/DX2                !
 ! A129  A(42,18,62)           137.8576         estimate D2E/DX2                !
 ! A130  A(18,19,65)            82.4428         estimate D2E/DX2                !
 ! A131  A(18,20,65)            82.3991         estimate D2E/DX2                !
 ! A132  A(1,21,22)            146.4302         estimate D2E/DX2                !
 ! A133  A(1,21,23)             92.5555         estimate D2E/DX2                !
 ! A134  A(1,21,48)             61.9308         estimate D2E/DX2                !
 ! A135  A(1,21,49)             92.6129         estimate D2E/DX2                !
 ! A136  A(1,21,63)            146.9164         estimate D2E/DX2                !
 ! A137  A(2,21,5)              82.2579         estimate D2E/DX2                !
 ! A138  A(2,21,22)             96.1968         estimate D2E/DX2                !
 ! A139  A(2,21,23)             83.8509         estimate D2E/DX2                !
 ! A140  A(2,21,48)             93.4277         estimate D2E/DX2                !
 ! A141  A(2,21,49)            140.2271         estimate D2E/DX2                !
 ! A142  A(2,21,63)            131.6453         estimate D2E/DX2                !
 ! A143  A(5,21,22)            131.5575         estimate D2E/DX2                !
 ! A144  A(5,21,23)            139.9386         estimate D2E/DX2                !
 ! A145  A(5,21,48)             93.0199         estimate D2E/DX2                !
 ! A146  A(5,21,49)             83.5612         estimate D2E/DX2                !
 ! A147  A(5,21,63)             96.763          estimate D2E/DX2                !
 ! A148  A(22,21,23)            87.1805         estimate D2E/DX2                !
 ! A149  A(22,21,48)           135.2359         estimate D2E/DX2                !
 ! A150  A(22,21,49)           120.6357         estimate D2E/DX2                !
 ! A151  A(23,21,49)            83.5741         estimate D2E/DX2                !
 ! A152  A(23,21,63)           120.165          estimate D2E/DX2                !
 ! A153  A(48,21,63)           134.7181         estimate D2E/DX2                !
 ! A154  A(49,21,63)            86.8288         estimate D2E/DX2                !
 ! A155  A(21,22,51)            87.8382         estimate D2E/DX2                !
 ! A156  A(10,24,17)           133.1758         estimate D2E/DX2                !
 ! A157  A(10,24,25)            86.9495         estimate D2E/DX2                !
 ! A158  A(10,24,26)            81.2675         estimate D2E/DX2                !
 ! A159  A(10,24,28)            80.9267         estimate D2E/DX2                !
 ! A160  A(10,24,29)           135.6282         estimate D2E/DX2                !
 ! A161  A(17,24,25)            76.6109         estimate D2E/DX2                !
 ! A162  A(17,24,26)            80.9872         estimate D2E/DX2                !
 ! A163  A(17,24,28)           138.2643         estimate D2E/DX2                !
 ! A164  A(17,24,29)            84.989          estimate D2E/DX2                !
 ! A165  A(25,24,26)           135.7533         estimate D2E/DX2                !
 ! A166  A(25,24,28)            83.6145         estimate D2E/DX2                !
 ! A167  A(25,24,29)           129.8233         estimate D2E/DX2                !
 ! A168  A(26,24,28)           135.2403         estimate D2E/DX2                !
 ! A169  A(26,24,29)            84.7437         estimate D2E/DX2                !
 ! A170  A(28,24,29)            80.062          estimate D2E/DX2                !
 ! A171  A(24,25,33)            81.0695         estimate D2E/DX2                !
 ! A172  A(24,25,36)            82.329          estimate D2E/DX2                !
 ! A173  A(33,25,36)            88.4166         estimate D2E/DX2                !
 ! A174  A(9,26,13)             83.63           estimate D2E/DX2                !
 ! A175  A(9,26,24)             81.4438         estimate D2E/DX2                !
 ! A176  A(13,26,24)            83.0432         estimate D2E/DX2                !
 ! A177  A(11,27,15)            80.8919         estimate D2E/DX2                !
 ! A178  A(11,27,28)            80.8864         estimate D2E/DX2                !
 ! A179  A(11,27,29)           134.4249         estimate D2E/DX2                !
 ! A180  A(11,27,55)            81.2495         estimate D2E/DX2                !
 ! A181  A(11,27,56)           136.2598         estimate D2E/DX2                !
 ! A182  A(15,27,28)           132.5666         estimate D2E/DX2                !
 ! A183  A(15,27,29)            81.692          estimate D2E/DX2                !
 ! A184  A(15,27,55)           135.4783         estimate D2E/DX2                !
 ! A185  A(15,27,56)            83.7824         estimate D2E/DX2                !
 ! A186  A(28,27,29)            80.6833         estimate D2E/DX2                !
 ! A187  A(28,27,55)            83.6679         estimate D2E/DX2                !
 ! A188  A(28,27,56)           136.2855         estimate D2E/DX2                !
 ! A189  A(29,27,55)           136.9485         estimate D2E/DX2                !
 ! A190  A(29,27,56)            82.5924         estimate D2E/DX2                !
 ! A191  A(55,27,56)            81.6556         estimate D2E/DX2                !
 ! A192  A(24,28,27)            84.0772         estimate D2E/DX2                !
 ! A193  A(24,28,30)            81.5906         estimate D2E/DX2                !
 ! A194  A(27,28,30)            82.0779         estimate D2E/DX2                !
 ! A195  A(24,29,27)            84.0719         estimate D2E/DX2                !
 ! A196  A(24,29,30)            80.7896         estimate D2E/DX2                !
 ! A197  A(27,29,30)            81.5927         estimate D2E/DX2                !
 ! A198  A(28,30,29)            82.2749         estimate D2E/DX2                !
 ! A199  A(28,30,31)           133.5824         estimate D2E/DX2                !
 ! A200  A(28,30,32)           139.4928         estimate D2E/DX2                !
 ! A201  A(28,30,33)            98.0593         estimate D2E/DX2                !
 ! A202  A(28,30,34)            88.4131         estimate D2E/DX2                !
 ! A203  A(28,30,64)            95.5126         estimate D2E/DX2                !
 ! A204  A(29,30,31)            99.9909         estimate D2E/DX2                !
 ! A205  A(29,30,32)            79.6011         estimate D2E/DX2                !
 ! A206  A(29,30,33)            88.4202         estimate D2E/DX2                !
 ! A207  A(29,30,34)           138.3263         estimate D2E/DX2                !
 ! A208  A(29,30,64)           133.2694         estimate D2E/DX2                !
 ! A209  A(31,30,32)            85.3608         estimate D2E/DX2                !
 ! A210  A(31,30,33)           128.246          estimate D2E/DX2                !
 ! A211  A(31,30,34)           115.261          estimate D2E/DX2                !
 ! A212  A(32,30,34)            81.7549         estimate D2E/DX2                !
 ! A213  A(32,30,64)           123.0568         estimate D2E/DX2                !
 ! A214  A(33,30,64)           137.5996         estimate D2E/DX2                !
 ! A215  A(34,30,64)            87.9038         estimate D2E/DX2                !
 ! A216  A(30,31,57)            87.7491         estimate D2E/DX2                !
 ! A217  A(17,33,25)            78.8133         estimate D2E/DX2                !
 ! A218  A(17,33,30)            97.6916         estimate D2E/DX2                !
 ! A219  A(17,33,32)            92.5067         estimate D2E/DX2                !
 ! A220  A(17,33,34)           137.7478         estimate D2E/DX2                !
 ! A221  A(17,33,59)           115.961          estimate D2E/DX2                !
 ! A222  A(25,33,30)            86.7587         estimate D2E/DX2                !
 ! A223  A(25,33,32)           138.331          estimate D2E/DX2                !
 ! A224  A(25,33,34)            76.8511         estimate D2E/DX2                !
 ! A225  A(25,33,59)           116.2073         estimate D2E/DX2                !
 ! A226  A(30,33,59)           141.623          estimate D2E/DX2                !
 ! A227  A(32,33,34)            83.5287         estimate D2E/DX2                !
 ! A228  A(32,33,59)           104.3113         estimate D2E/DX2                !
 ! A229  A(34,33,59)           105.7016         estimate D2E/DX2                !
 ! A230  A(17,36,25)            78.1607         estimate D2E/DX2                !
 ! A231  A(17,36,35)           104.1194         estimate D2E/DX2                !
 ! A232  A(17,36,37)           139.0177         estimate D2E/DX2                !
 ! A233  A(17,36,38)            81.8892         estimate D2E/DX2                !
 ! A234  A(17,36,39)           133.2086         estimate D2E/DX2                !
 ! A235  A(25,36,35)           102.2734         estimate D2E/DX2                !
 ! A236  A(25,36,37)            85.2022         estimate D2E/DX2                !
 ! A237  A(25,36,38)           141.2467         estimate D2E/DX2                !
 ! A238  A(25,36,39)           136.6926         estimate D2E/DX2                !
 ! A239  A(35,36,37)           115.9803         estimate D2E/DX2                !
 ! A240  A(35,36,38)           114.7129         estimate D2E/DX2                !
 ! A241  A(35,36,39)            97.3984         estimate D2E/DX2                !
 ! A242  A(37,36,38)            88.6234         estimate D2E/DX2                !
 ! A243  A(13,37,36)            78.2473         estimate D2E/DX2                !
 ! A244  A(13,37,39)            78.9522         estimate D2E/DX2                !
 ! A245  A(13,38,36)            78.3306         estimate D2E/DX2                !
 ! A246  A(13,38,39)            79.1344         estimate D2E/DX2                !
 ! A247  A(36,39,40)           148.4231         estimate D2E/DX2                !
 ! A248  A(36,39,41)            95.7057         estimate D2E/DX2                !
 ! A249  A(36,39,62)           147.6037         estimate D2E/DX2                !
 ! A250  A(37,39,38)            91.7173         estimate D2E/DX2                !
 ! A251  A(37,39,40)            95.4963         estimate D2E/DX2                !
 ! A252  A(37,39,41)           114.5564         estimate D2E/DX2                !
 ! A253  A(37,39,62)           134.6378         estimate D2E/DX2                !
 ! A254  A(38,39,40)           133.3575         estimate D2E/DX2                !
 ! A255  A(38,39,41)           114.8268         estimate D2E/DX2                !
 ! A256  A(38,39,62)            94.4964         estimate D2E/DX2                !
 ! A257  A(40,39,41)           103.658          estimate D2E/DX2                !
 ! A258  A(41,39,62)           103.2212         estimate D2E/DX2                !
 ! A259  A(18,40,39)            90.2826         estimate D2E/DX2                !
 ! A260  A(18,42,43)            92.7622         estimate D2E/DX2                !
 ! A261  A(18,42,44)            92.6739         estimate D2E/DX2                !
 ! A262  A(18,42,61)           127.4016         estimate D2E/DX2                !
 ! A263  A(18,42,65)            66.7796         estimate D2E/DX2                !
 ! A264  A(19,42,20)            88.8932         estimate D2E/DX2                !
 ! A265  A(19,42,43)           139.1816         estimate D2E/DX2                !
 ! A266  A(19,42,44)            80.9078         estimate D2E/DX2                !
 ! A267  A(19,42,61)            95.3001         estimate D2E/DX2                !
 ! A268  A(20,42,43)            81.2287         estimate D2E/DX2                !
 ! A269  A(20,42,44)           139.2831         estimate D2E/DX2                !
 ! A270  A(20,42,61)            94.981          estimate D2E/DX2                !
 ! A271  A(43,42,44)            81.332          estimate D2E/DX2                !
 ! A272  A(43,42,61)           124.8369         estimate D2E/DX2                !
 ! A273  A(43,42,65)           135.7762         estimate D2E/DX2                !
 ! A274  A(44,42,61)           125.0244         estimate D2E/DX2                !
 ! A275  A(44,42,65)           135.4135         estimate D2E/DX2                !
 ! A276  A(6,43,42)             81.6867         estimate D2E/DX2                !
 ! A277  A(6,43,45)             82.634          estimate D2E/DX2                !
 ! A278  A(42,43,45)            83.9725         estimate D2E/DX2                !
 ! A279  A(6,44,42)             81.7436         estimate D2E/DX2                !
 ! A280  A(6,44,45)             82.657          estimate D2E/DX2                !
 ! A281  A(42,44,45)            84.021          estimate D2E/DX2                !
 ! A282  A(3,45,43)             81.2554         estimate D2E/DX2                !
 ! A283  A(3,45,44)            137.1444         estimate D2E/DX2                !
 ! A284  A(3,45,46)             86.3204         estimate D2E/DX2                !
 ! A285  A(3,45,47)            118.0121         estimate D2E/DX2                !
 ! A286  A(43,45,44)            81.0999         estimate D2E/DX2                !
 ! A287  A(43,45,46)           137.422          estimate D2E/DX2                !
 ! A288  A(43,45,47)           103.9501         estimate D2E/DX2                !
 ! A289  A(43,45,48)           131.8191         estimate D2E/DX2                !
 ! A290  A(44,45,46)            80.948          estimate D2E/DX2                !
 ! A291  A(44,45,47)           104.0527         estimate D2E/DX2                !
 ! A292  A(44,45,48)           131.5051         estimate D2E/DX2                !
 ! A293  A(46,45,47)           117.7613         estimate D2E/DX2                !
 ! A294  A(47,45,48)           100.4071         estimate D2E/DX2                !
 ! A295  A(1,46,45)             80.3237         estimate D2E/DX2                !
 ! A296  A(1,46,48)             80.465          estimate D2E/DX2                !
 ! A297  A(3,48,21)             90.8494         estimate D2E/DX2                !
 ! A298  A(3,48,23)             81.0407         estimate D2E/DX2                !
 ! A299  A(3,48,46)             86.0685         estimate D2E/DX2                !
 ! A300  A(3,48,49)            136.8769         estimate D2E/DX2                !
 ! A301  A(3,48,50)            118.2923         estimate D2E/DX2                !
 ! A302  A(21,48,45)           120.4523         estimate D2E/DX2                !
 ! A303  A(21,48,46)            90.7875         estimate D2E/DX2                !
 ! A304  A(21,48,50)           138.3684         estimate D2E/DX2                !
 ! A305  A(23,48,45)           131.4383         estimate D2E/DX2                !
 ! A306  A(23,48,46)           136.6834         estimate D2E/DX2                !
 ! A307  A(23,48,49)            80.7719         estimate D2E/DX2                !
 ! A308  A(23,48,50)           104.0376         estimate D2E/DX2                !
 ! A309  A(45,48,49)           131.4204         estimate D2E/DX2                !
 ! A310  A(45,48,50)           101.1793         estimate D2E/DX2                !
 ! A311  A(46,48,49)            81.0548         estimate D2E/DX2                !
 ! A312  A(46,48,50)           118.4038         estimate D2E/DX2                !
 ! A313  A(49,48,50)           103.9519         estimate D2E/DX2                !
 ! A314  A(14,51,22)            95.3129         estimate D2E/DX2                !
 ! A315  A(14,51,52)            90.9472         estimate D2E/DX2                !
 ! A316  A(14,51,60)           117.0914         estimate D2E/DX2                !
 ! A317  A(14,51,63)           134.3985         estimate D2E/DX2                !
 ! A318  A(22,51,52)           133.8564         estimate D2E/DX2                !
 ! A319  A(22,51,54)           147.7201         estimate D2E/DX2                !
 ! A320  A(22,51,60)           100.1207         estimate D2E/DX2                !
 ! A321  A(52,51,60)           117.2704         estimate D2E/DX2                !
 ! A322  A(52,51,63)            95.1433         estimate D2E/DX2                !
 ! A323  A(54,51,60)           100.0589         estimate D2E/DX2                !
 ! A324  A(54,51,63)           147.5812         estimate D2E/DX2                !
 ! A325  A(60,51,63)            99.8373         estimate D2E/DX2                !
 ! A326  A(12,52,51)            80.5931         estimate D2E/DX2                !
 ! A327  A(12,52,54)            77.0403         estimate D2E/DX2                !
 ! A328  A(14,54,52)            85.2069         estimate D2E/DX2                !
 ! A329  A(14,54,53)           105.9772         estimate D2E/DX2                !
 ! A330  A(14,54,55)           142.8345         estimate D2E/DX2                !
 ! A331  A(14,54,56)            83.1302         estimate D2E/DX2                !
 ! A332  A(14,54,57)           133.4081         estimate D2E/DX2                !
 ! A333  A(51,54,53)            84.0814         estimate D2E/DX2                !
 ! A334  A(51,54,55)           131.4219         estimate D2E/DX2                !
 ! A335  A(51,54,56)           132.2403         estimate D2E/DX2                !
 ! A336  A(52,54,53)           105.3085         estimate D2E/DX2                !
 ! A337  A(52,54,55)            82.2895         estimate D2E/DX2                !
 ! A338  A(52,54,56)           144.1348         estimate D2E/DX2                !
 ! A339  A(52,54,57)           132.1856         estimate D2E/DX2                !
 ! A340  A(53,54,55)           111.0574         estimate D2E/DX2                !
 ! A341  A(53,54,56)           110.4943         estimate D2E/DX2                !
 ! A342  A(53,54,57)            91.1302         estimate D2E/DX2                !
 ! A343  A(55,54,56)            86.855          estimate D2E/DX2                !
 ! A344  A(27,55,54)            77.5569         estimate D2E/DX2                !
 ! A345  A(27,55,57)            79.7374         estimate D2E/DX2                !
 ! A346  A(27,56,54)            77.746          estimate D2E/DX2                !
 ! A347  A(27,56,57)            79.7644         estimate D2E/DX2                !
 ! A348  A(31,57,54)           149.566          estimate D2E/DX2                !
 ! A349  A(31,57,55)           133.4389         estimate D2E/DX2                !
 ! A350  A(31,57,56)            96.7138         estimate D2E/DX2                !
 ! A351  A(31,57,58)           101.3508         estimate D2E/DX2                !
 ! A352  A(54,57,58)            97.878          estimate D2E/DX2                !
 ! A353  A(54,57,64)           145.6458         estimate D2E/DX2                !
 ! A354  A(55,57,56)            91.8299         estimate D2E/DX2                !
 ! A355  A(55,57,58)           115.4193         estimate D2E/DX2                !
 ! A356  A(55,57,64)            92.716          estimate D2E/DX2                !
 ! A357  A(56,57,58)           116.2728         estimate D2E/DX2                !
 ! A358  A(56,57,64)           134.0917         estimate D2E/DX2                !
 ! A359  A(58,57,64)           102.6019         estimate D2E/DX2                !
 ! A360  A(18,62,39)            90.4582         estimate D2E/DX2                !
 ! A361  A(21,63,51)            87.9516         estimate D2E/DX2                !
 ! A362  A(30,64,57)            87.946          estimate D2E/DX2                !
 ! A363  A(19,65,20)            86.4705         estimate D2E/DX2                !
 ! A364  A(19,65,61)            84.2824         estimate D2E/DX2                !
 ! A365  A(19,65,66)           105.6341         estimate D2E/DX2                !
 ! A366  A(20,65,61)            84.0142         estimate D2E/DX2                !
 ! A367  A(20,65,66)           106.2259         estimate D2E/DX2                !
 ! A368  A(20,65,67)            88.6242         estimate D2E/DX2                !
 ! A369  A(42,65,66)           146.9735         estimate D2E/DX2                !
 ! A370  A(42,65,67)           116.5435         estimate D2E/DX2                !
 ! A371  A(61,65,67)            85.8675         estimate D2E/DX2                !
 ! A372  A(66,65,67)            84.7582         estimate D2E/DX2                !
 ! A373  L(51,54,57,53,-1)     175.2116         estimate D2E/DX2                !
 ! A374  L(19,65,67,20,-1)     175.0946         estimate D2E/DX2                !
 ! A375  L(61,65,66,19,-1)     189.9165         estimate D2E/DX2                !
 ! A376  L(65,66,68,13,-1)     183.4436         estimate D2E/DX2                !
 ! A377  L(65,67,69,50,-1)     178.7843         estimate D2E/DX2                !
 ! A378  L(51,54,57,53,-2)     179.3579         estimate D2E/DX2                !
 ! A379  L(19,65,67,20,-2)     189.3994         estimate D2E/DX2                !
 ! A380  L(61,65,66,19,-2)     169.8019         estimate D2E/DX2                !
 ! A381  L(65,66,68,13,-2)     179.9374         estimate D2E/DX2                !
 ! A382  L(65,67,69,50,-2)     178.1373         estimate D2E/DX2                !
 ! D1    D(3,1,2,12)           178.9326         estimate D2E/DX2                !
 ! D2    D(4,1,2,12)           -27.1054         estimate D2E/DX2                !
 ! D3    D(5,1,2,12)            41.6122         estimate D2E/DX2                !
 ! D4    D(8,1,2,12)           -98.1187         estimate D2E/DX2                !
 ! D5    D(46,1,2,12)          110.4165         estimate D2E/DX2                !
 ! D6    D(2,1,3,45)          -177.6865         estimate D2E/DX2                !
 ! D7    D(2,1,3,48)           -97.3491         estimate D2E/DX2                !
 ! D8    D(4,1,3,45)            28.2868         estimate D2E/DX2                !
 ! D9    D(4,1,3,48)           108.6242         estimate D2E/DX2                !
 ! D10   D(5,1,3,45)          -108.7086         estimate D2E/DX2                !
 ! D11   D(5,1,3,48)           -28.3712         estimate D2E/DX2                !
 ! D12   D(8,1,3,45)            99.0359         estimate D2E/DX2                !
 ! D13   D(8,1,3,48)           179.3733         estimate D2E/DX2                !
 ! D14   D(21,1,3,45)         -128.4819         estimate D2E/DX2                !
 ! D15   D(21,1,3,48)          -48.1445         estimate D2E/DX2                !
 ! D16   D(46,1,3,45)          -40.1535         estimate D2E/DX2                !
 ! D17   D(46,1,3,48)           40.1839         estimate D2E/DX2                !
 ! D18   D(2,1,4,6)           -112.1683         estimate D2E/DX2                !
 ! D19   D(2,1,4,9)            -29.7735         estimate D2E/DX2                !
 ! D20   D(3,1,4,6)             29.3128         estimate D2E/DX2                !
 ! D21   D(3,1,4,9)            111.7076         estimate D2E/DX2                !
 ! D22   D(5,1,4,6)            179.7685         estimate D2E/DX2                !
 ! D23   D(5,1,4,9)            -97.8367         estimate D2E/DX2                !
 ! D24   D(8,1,4,6)            -41.2399         estimate D2E/DX2                !
 ! D25   D(8,1,4,9)             41.1549         estimate D2E/DX2                !
 ! D26   D(21,1,4,6)           177.4431         estimate D2E/DX2                !
 ! D27   D(21,1,4,9)          -100.1621         estimate D2E/DX2                !
 ! D28   D(46,1,4,6)            97.0021         estimate D2E/DX2                !
 ! D29   D(46,1,4,9)           179.3969         estimate D2E/DX2                !
 ! D30   D(2,1,5,12)           -41.6369         estimate D2E/DX2                !
 ! D31   D(3,1,5,12)          -111.3234         estimate D2E/DX2                !
 ! D32   D(4,1,5,12)            97.4158         estimate D2E/DX2                !
 ! D33   D(8,1,5,12)            26.697          estimate D2E/DX2                !
 ! D34   D(46,1,5,12)         -179.2837         estimate D2E/DX2                !
 ! D35   D(2,1,8,6)            179.4968         estimate D2E/DX2                !
 ! D36   D(2,1,8,9)             97.1759         estimate D2E/DX2                !
 ! D37   D(3,1,8,6)            -97.1409         estimate D2E/DX2                !
 ! D38   D(3,1,8,9)           -179.4618         estimate D2E/DX2                !
 ! D39   D(4,1,8,6)             41.1596         estimate D2E/DX2                !
 ! D40   D(4,1,8,9)            -41.1613         estimate D2E/DX2                !
 ! D41   D(5,1,8,6)            111.8003         estimate D2E/DX2                !
 ! D42   D(5,1,8,9)             29.4794         estimate D2E/DX2                !
 ! D43   D(21,1,8,6)          -177.4572         estimate D2E/DX2                !
 ! D44   D(21,1,8,9)           100.2219         estimate D2E/DX2                !
 ! D45   D(46,1,8,6)           -29.8037         estimate D2E/DX2                !
 ! D46   D(46,1,8,9)          -112.1246         estimate D2E/DX2                !
 ! D47   D(3,1,21,22)          -90.4902         estimate D2E/DX2                !
 ! D48   D(3,1,21,23)           -1.739          estimate D2E/DX2                !
 ! D49   D(3,1,21,48)           40.1767         estimate D2E/DX2                !
 ! D50   D(3,1,21,49)           81.9394         estimate D2E/DX2                !
 ! D51   D(3,1,21,63)          170.14           estimate D2E/DX2                !
 ! D52   D(4,1,21,22)          111.1705         estimate D2E/DX2                !
 ! D53   D(4,1,21,23)         -160.0783         estimate D2E/DX2                !
 ! D54   D(4,1,21,48)         -118.1627         estimate D2E/DX2                !
 ! D55   D(4,1,21,49)          -76.3999         estimate D2E/DX2                !
 ! D56   D(4,1,21,63)           11.8007         estimate D2E/DX2                !
 ! D57   D(8,1,21,22)          -12.8494         estimate D2E/DX2                !
 ! D58   D(8,1,21,23)           75.9018         estimate D2E/DX2                !
 ! D59   D(8,1,21,48)          117.8174         estimate D2E/DX2                !
 ! D60   D(8,1,21,49)          159.5802         estimate D2E/DX2                !
 ! D61   D(8,1,21,63)         -112.2192         estimate D2E/DX2                !
 ! D62   D(46,1,21,22)        -170.8992         estimate D2E/DX2                !
 ! D63   D(46,1,21,23)         -82.148          estimate D2E/DX2                !
 ! D64   D(46,1,21,48)         -40.2324         estimate D2E/DX2                !
 ! D65   D(46,1,21,49)           1.5303         estimate D2E/DX2                !
 ! D66   D(46,1,21,63)          89.731          estimate D2E/DX2                !
 ! D67   D(2,1,46,45)          109.5148         estimate D2E/DX2                !
 ! D68   D(2,1,46,48)           29.1356         estimate D2E/DX2                !
 ! D69   D(3,1,46,45)           40.1859         estimate D2E/DX2                !
 ! D70   D(3,1,46,48)          -40.1933         estimate D2E/DX2                !
 ! D71   D(4,1,46,45)          -98.8436         estimate D2E/DX2                !
 ! D72   D(4,1,46,48)         -179.2229         estimate D2E/DX2                !
 ! D73   D(5,1,46,45)          177.8323         estimate D2E/DX2                !
 ! D74   D(5,1,46,48)           97.4531         estimate D2E/DX2                !
 ! D75   D(8,1,46,45)          -27.7927         estimate D2E/DX2                !
 ! D76   D(8,1,46,48)         -108.172          estimate D2E/DX2                !
 ! D77   D(21,1,46,45)         128.61           estimate D2E/DX2                !
 ! D78   D(21,1,46,48)          48.2307         estimate D2E/DX2                !
 ! D79   D(1,2,12,5)           -41.6459         estimate D2E/DX2                !
 ! D80   D(1,2,12,11)           27.4182         estimate D2E/DX2                !
 ! D81   D(1,2,12,14)         -179.6134         estimate D2E/DX2                !
 ! D82   D(1,2,12,15)           96.0372         estimate D2E/DX2                !
 ! D83   D(1,2,12,52)         -109.3144         estimate D2E/DX2                !
 ! D84   D(21,2,12,5)           39.1752         estimate D2E/DX2                !
 ! D85   D(21,2,12,11)         108.2393         estimate D2E/DX2                !
 ! D86   D(21,2,12,14)         -98.7923         estimate D2E/DX2                !
 ! D87   D(21,2,12,15)         176.8582         estimate D2E/DX2                !
 ! D88   D(21,2,12,52)         -28.4933         estimate D2E/DX2                !
 ! D89   D(12,2,21,5)          -39.6733         estimate D2E/DX2                !
 ! D90   D(12,2,21,22)          91.5234         estimate D2E/DX2                !
 ! D91   D(12,2,21,23)         177.9996         estimate D2E/DX2                !
 ! D92   D(12,2,21,48)        -132.2594         estimate D2E/DX2                !
 ! D93   D(12,2,21,49)        -109.7819         estimate D2E/DX2                !
 ! D94   D(12,2,21,63)          52.5125         estimate D2E/DX2                !
 ! D95   D(1,3,45,43)          -96.6368         estimate D2E/DX2                !
 ! D96   D(1,3,45,44)          -29.9606         estimate D2E/DX2                !
 ! D97   D(1,3,45,46)           42.5154         estimate D2E/DX2                !
 ! D98   D(1,3,45,47)          162.1506         estimate D2E/DX2                !
 ! D99   D(1,3,48,21)           48.305          estimate D2E/DX2                !
 ! D100  D(1,3,48,23)           96.0894         estimate D2E/DX2                !
 ! D101  D(1,3,48,46)          -42.426          estimate D2E/DX2                !
 ! D102  D(1,3,48,49)           30.033          estimate D2E/DX2                !
 ! D103  D(1,3,48,50)         -162.724          estimate D2E/DX2                !
 ! D104  D(1,4,6,7)           -179.4719         estimate D2E/DX2                !
 ! D105  D(1,4,6,8)             41.2906         estimate D2E/DX2                !
 ! D106  D(1,4,6,16)           113.8025         estimate D2E/DX2                !
 ! D107  D(1,4,6,43)           -30.6182         estimate D2E/DX2                !
 ! D108  D(1,4,6,44)           -96.1172         estimate D2E/DX2                !
 ! D109  D(9,4,6,7)             97.8284         estimate D2E/DX2                !
 ! D110  D(9,4,6,8)            -41.4091         estimate D2E/DX2                !
 ! D111  D(9,4,6,16)            31.1028         estimate D2E/DX2                !
 ! D112  D(9,4,6,43)          -113.3179         estimate D2E/DX2                !
 ! D113  D(9,4,6,44)          -178.8168         estimate D2E/DX2                !
 ! D114  D(1,4,9,8)            -40.9623         estimate D2E/DX2                !
 ! D115  D(1,4,9,10)          -177.9213         estimate D2E/DX2                !
 ! D116  D(1,4,9,11)            96.7927         estimate D2E/DX2                !
 ! D117  D(1,4,9,15)            30.2751         estimate D2E/DX2                !
 ! D118  D(1,4,9,26)          -110.5132         estimate D2E/DX2                !
 ! D119  D(6,4,9,8)             41.1642         estimate D2E/DX2                !
 ! D120  D(6,4,9,10)           -95.7947         estimate D2E/DX2                !
 ! D121  D(6,4,9,11)           178.9193         estimate D2E/DX2                !
 ! D122  D(6,4,9,15)           112.4016         estimate D2E/DX2                !
 ! D123  D(6,4,9,26)           -28.3866         estimate D2E/DX2                !
 ! D124  D(1,5,12,2)            41.7067         estimate D2E/DX2                !
 ! D125  D(1,5,12,11)          -95.2518         estimate D2E/DX2                !
 ! D126  D(1,5,12,14)          110.7776         estimate D2E/DX2                !
 ! D127  D(1,5,12,15)          -26.819          estimate D2E/DX2                !
 ! D128  D(1,5,12,52)          179.6177         estimate D2E/DX2                !
 ! D129  D(21,5,12,2)          -39.1484         estimate D2E/DX2                !
 ! D130  D(21,5,12,11)        -176.107          estimate D2E/DX2                !
 ! D131  D(21,5,12,14)          29.9224         estimate D2E/DX2                !
 ! D132  D(21,5,12,15)        -107.6741         estimate D2E/DX2                !
 ! D133  D(21,5,12,52)          98.7625         estimate D2E/DX2                !
 ! D134  D(12,5,21,2)           39.7072         estimate D2E/DX2                !
 ! D135  D(12,5,21,22)         -51.7284         estimate D2E/DX2                !
 ! D136  D(12,5,21,23)         110.4607         estimate D2E/DX2                !
 ! D137  D(12,5,21,48)         132.7597         estimate D2E/DX2                !
 ! D138  D(12,5,21,49)        -177.5502         estimate D2E/DX2                !
 ! D139  D(12,5,21,63)         -91.5322         estimate D2E/DX2                !
 ! D140  D(4,6,7,13)           -98.3131         estimate D2E/DX2                !
 ! D141  D(4,6,7,18)           175.9851         estimate D2E/DX2                !
 ! D142  D(8,6,7,13)           -26.4304         estimate D2E/DX2                !
 ! D143  D(8,6,7,18)          -112.1322         estimate D2E/DX2                !
 ! D144  D(16,6,7,13)           42.5743         estimate D2E/DX2                !
 ! D145  D(16,6,7,18)          -43.1275         estimate D2E/DX2                !
 ! D146  D(43,6,7,13)          111.4589         estimate D2E/DX2                !
 ! D147  D(43,6,7,18)           25.7571         estimate D2E/DX2                !
 ! D148  D(44,6,7,13)          178.5617         estimate D2E/DX2                !
 ! D149  D(44,6,7,18)           92.8599         estimate D2E/DX2                !
 ! D150  D(4,6,8,1)            -41.3459         estimate D2E/DX2                !
 ! D151  D(4,6,8,9)             41.4332         estimate D2E/DX2                !
 ! D152  D(7,6,8,1)           -113.3539         estimate D2E/DX2                !
 ! D153  D(7,6,8,9)            -30.5748         estimate D2E/DX2                !
 ! D154  D(16,6,8,1)           179.0804         estimate D2E/DX2                !
 ! D155  D(16,6,8,9)           -98.1405         estimate D2E/DX2                !
 ! D156  D(43,6,8,1)            96.3118         estimate D2E/DX2                !
 ! D157  D(43,6,8,9)           179.0909         estimate D2E/DX2                !
 ! D158  D(44,6,8,1)            30.2922         estimate D2E/DX2                !
 ! D159  D(44,6,8,9)           113.0713         estimate D2E/DX2                !
 ! D160  D(4,6,16,13)           25.3188         estimate D2E/DX2                !
 ! D161  D(4,6,16,18)          110.9732         estimate D2E/DX2                !
 ! D162  D(7,6,16,13)          -42.6513         estimate D2E/DX2                !
 ! D163  D(7,6,16,18)           43.0031         estimate D2E/DX2                !
 ! D164  D(8,6,16,13)           97.5332         estimate D2E/DX2                !
 ! D165  D(8,6,16,18)         -176.8124         estimate D2E/DX2                !
 ! D166  D(43,6,16,13)        -179.064          estimate D2E/DX2                !
 ! D167  D(43,6,16,18)         -93.4096         estimate D2E/DX2                !
 ! D168  D(44,6,16,13)        -112.3767         estimate D2E/DX2                !
 ! D169  D(44,6,16,18)         -26.7223         estimate D2E/DX2                !
 ! D170  D(4,6,43,42)         -109.7031         estimate D2E/DX2                !
 ! D171  D(4,6,43,45)          -24.7582         estimate D2E/DX2                !
 ! D172  D(7,6,43,42)           25.7377         estimate D2E/DX2                !
 ! D173  D(7,6,43,45)          110.6825         estimate D2E/DX2                !
 ! D174  D(8,6,43,42)          178.2911         estimate D2E/DX2                !
 ! D175  D(8,6,43,45)          -96.7641         estimate D2E/DX2                !
 ! D176  D(16,6,43,42)          93.6869         estimate D2E/DX2                !
 ! D177  D(16,6,43,45)         178.6318         estimate D2E/DX2                !
 ! D178  D(44,6,43,42)         -42.8751         estimate D2E/DX2                !
 ! D179  D(44,6,43,45)          42.0698         estimate D2E/DX2                !
 ! D180  D(4,6,44,42)         -177.7696         estimate D2E/DX2                !
 ! D181  D(4,6,44,45)           97.2459         estimate D2E/DX2                !
 ! D182  D(7,6,44,42)          -93.6652         estimate D2E/DX2                !
 ! D183  D(7,6,44,45)         -178.6497         estimate D2E/DX2                !
 ! D184  D(8,6,44,42)          110.3839         estimate D2E/DX2                !
 ! D185  D(8,6,44,45)           25.3994         estimate D2E/DX2                !
 ! D186  D(16,6,44,42)         -25.0873         estimate D2E/DX2                !
 ! D187  D(16,6,44,45)        -110.0717         estimate D2E/DX2                !
 ! D188  D(43,6,44,42)          42.9114         estimate D2E/DX2                !
 ! D189  D(43,6,44,45)         -42.073          estimate D2E/DX2                !
 ! D190  D(6,7,13,10)           95.0369         estimate D2E/DX2                !
 ! D191  D(6,7,13,16)          -42.9551         estimate D2E/DX2                !
 ! D192  D(6,7,13,26)           26.8569         estimate D2E/DX2                !
 ! D193  D(6,7,13,37)          177.0264         estimate D2E/DX2                !
 ! D194  D(6,7,13,38)         -111.612          estimate D2E/DX2                !
 ! D195  D(18,7,13,10)         177.465          estimate D2E/DX2                !
 ! D196  D(18,7,13,16)          39.473          estimate D2E/DX2                !
 ! D197  D(18,7,13,26)         109.285          estimate D2E/DX2                !
 ! D198  D(18,7,13,37)        -100.5454         estimate D2E/DX2                !
 ! D199  D(18,7,13,38)         -29.1839         estimate D2E/DX2                !
 ! D200  D(6,7,18,16)           43.3912         estimate D2E/DX2                !
 ! D201  D(6,7,18,19)          -99.4571         estimate D2E/DX2                !
 ! D202  D(6,7,18,20)          -21.4159         estimate D2E/DX2                !
 ! D203  D(6,7,18,40)          172.5069         estimate D2E/DX2                !
 ! D204  D(6,7,18,42)          -48.924          estimate D2E/DX2                !
 ! D205  D(6,7,18,62)          133.0478         estimate D2E/DX2                !
 ! D206  D(13,7,18,16)         -39.3649         estimate D2E/DX2                !
 ! D207  D(13,7,18,19)         177.7868         estimate D2E/DX2                !
 ! D208  D(13,7,18,20)        -104.172          estimate D2E/DX2                !
 ! D209  D(13,7,18,40)          89.7508         estimate D2E/DX2                !
 ! D210  D(13,7,18,42)        -131.6801         estimate D2E/DX2                !
 ! D211  D(13,7,18,62)          50.2917         estimate D2E/DX2                !
 ! D212  D(1,8,9,4)             41.0042         estimate D2E/DX2                !
 ! D213  D(1,8,9,10)           112.0042         estimate D2E/DX2                !
 ! D214  D(1,8,9,11)           -28.3228         estimate D2E/DX2                !
 ! D215  D(1,8,9,15)           -96.2393         estimate D2E/DX2                !
 ! D216  D(1,8,9,26)           178.5402         estimate D2E/DX2                !
 ! D217  D(6,8,9,4)            -41.0887         estimate D2E/DX2                !
 ! D218  D(6,8,9,10)            29.9113         estimate D2E/DX2                !
 ! D219  D(6,8,9,11)          -110.4157         estimate D2E/DX2                !
 ! D220  D(6,8,9,15)          -178.3322         estimate D2E/DX2                !
 ! D221  D(6,8,9,26)            96.4473         estimate D2E/DX2                !
 ! D222  D(4,9,10,13)           96.8167         estimate D2E/DX2                !
 ! D223  D(4,9,10,24)         -178.9714         estimate D2E/DX2                !
 ! D224  D(8,9,10,13)           25.8745         estimate D2E/DX2                !
 ! D225  D(8,9,10,24)          110.0864         estimate D2E/DX2                !
 ! D226  D(11,9,10,13)         178.7611         estimate D2E/DX2                !
 ! D227  D(11,9,10,24)         -97.0271         estimate D2E/DX2                !
 ! D228  D(15,9,10,13)        -111.9257         estimate D2E/DX2                !
 ! D229  D(15,9,10,24)         -27.7139         estimate D2E/DX2                !
 ! D230  D(26,9,10,13)         -41.2551         estimate D2E/DX2                !
 ! D231  D(26,9,10,24)          42.9568         estimate D2E/DX2                !
 ! D232  D(4,9,11,12)          -97.6364         estimate D2E/DX2                !
 ! D233  D(4,9,11,27)          179.9235         estimate D2E/DX2                !
 ! D234  D(8,9,11,12)          -27.9817         estimate D2E/DX2                !
 ! D235  D(8,9,11,27)         -110.4219         estimate D2E/DX2                !
 ! D236  D(10,9,11,12)         179.3392         estimate D2E/DX2                !
 ! D237  D(10,9,11,27)          96.8991         estimate D2E/DX2                !
 ! D238  D(15,9,11,12)          40.9078         estimate D2E/DX2                !
 ! D239  D(15,9,11,27)         -41.5324         estimate D2E/DX2                !
 ! D240  D(26,9,11,12)         111.0337         estimate D2E/DX2                !
 ! D241  D(26,9,11,27)          28.5935         estimate D2E/DX2                !
 ! D242  D(4,9,15,12)           26.0619         estimate D2E/DX2                !
 ! D243  D(4,9,15,27)          108.5351         estimate D2E/DX2                !
 ! D244  D(8,9,15,12)           97.1329         estimate D2E/DX2                !
 ! D245  D(8,9,15,27)          179.6061         estimate D2E/DX2                !
 ! D246  D(10,9,15,12)        -111.8512         estimate D2E/DX2                !
 ! D247  D(10,9,15,27)         -29.378          estimate D2E/DX2                !
 ! D248  D(11,9,15,12)         -40.935          estimate D2E/DX2                !
 ! D249  D(11,9,15,27)          41.5381         estimate D2E/DX2                !
 ! D250  D(26,9,15,12)         179.1469         estimate D2E/DX2                !
 ! D251  D(26,9,15,27)         -98.38           estimate D2E/DX2                !
 ! D252  D(4,9,26,13)          -27.434          estimate D2E/DX2                !
 ! D253  D(4,9,26,24)         -111.3233         estimate D2E/DX2                !
 ! D254  D(8,9,26,13)          -97.2791         estimate D2E/DX2                !
 ! D255  D(8,9,26,24)          178.8316         estimate D2E/DX2                !
 ! D256  D(10,9,26,13)          40.9158         estimate D2E/DX2                !
 ! D257  D(10,9,26,24)         -42.9735         estimate D2E/DX2                !
 ! D258  D(11,9,26,13)         110.8309         estimate D2E/DX2                !
 ! D259  D(11,9,26,24)          26.9415         estimate D2E/DX2                !
 ! D260  D(15,9,26,13)         179.4216         estimate D2E/DX2                !
 ! D261  D(15,9,26,24)          95.5323         estimate D2E/DX2                !
 ! D262  D(9,10,13,7)          -96.1753         estimate D2E/DX2                !
 ! D263  D(9,10,13,16)         -27.8073         estimate D2E/DX2                !
 ! D264  D(9,10,13,26)          41.171          estimate D2E/DX2                !
 ! D265  D(9,10,13,37)         179.382          estimate D2E/DX2                !
 ! D266  D(9,10,13,38)         110.5818         estimate D2E/DX2                !
 ! D267  D(24,10,13,7)        -178.0776         estimate D2E/DX2                !
 ! D268  D(24,10,13,16)       -109.7096         estimate D2E/DX2                !
 ! D269  D(24,10,13,26)        -40.7314         estimate D2E/DX2                !
 ! D270  D(24,10,13,37)         97.4796         estimate D2E/DX2                !
 ! D271  D(24,10,13,38)         28.6795         estimate D2E/DX2                !
 ! D272  D(9,10,24,17)        -112.2963         estimate D2E/DX2                !
 ! D273  D(9,10,24,25)         179.295          estimate D2E/DX2                !
 ! D274  D(9,10,24,26)         -43.4858         estimate D2E/DX2                !
 ! D275  D(9,10,24,28)          95.2804         estimate D2E/DX2                !
 ! D276  D(9,10,24,29)          29.6835         estimate D2E/DX2                !
 ! D277  D(13,10,24,17)        -27.5059         estimate D2E/DX2                !
 ! D278  D(13,10,24,25)        -95.9146         estimate D2E/DX2                !
 ! D279  D(13,10,24,26)         41.3046         estimate D2E/DX2                !
 ! D280  D(13,10,24,28)       -179.9291         estimate D2E/DX2                !
 ! D281  D(13,10,24,29)        114.4739         estimate D2E/DX2                !
 ! D282  D(9,11,12,2)           27.6637         estimate D2E/DX2                !
 ! D283  D(9,11,12,5)           96.3519         estimate D2E/DX2                !
 ! D284  D(9,11,12,14)        -110.9066         estimate D2E/DX2                !
 ! D285  D(9,11,12,15)         -41.2575         estimate D2E/DX2                !
 ! D286  D(9,11,12,52)         178.1053         estimate D2E/DX2                !
 ! D287  D(27,11,12,2)         111.4149         estimate D2E/DX2                !
 ! D288  D(27,11,12,5)        -179.8969         estimate D2E/DX2                !
 ! D289  D(27,11,12,14)        -27.1554         estimate D2E/DX2                !
 ! D290  D(27,11,12,15)         42.4937         estimate D2E/DX2                !
 ! D291  D(27,11,12,52)        -98.1435         estimate D2E/DX2                !
 ! D292  D(9,11,27,15)          41.9056         estimate D2E/DX2                !
 ! D293  D(9,11,27,28)         -94.1127         estimate D2E/DX2                !
 ! D294  D(9,11,27,29)         -26.8689         estimate D2E/DX2                !
 ! D295  D(9,11,27,55)        -179.0454         estimate D2E/DX2                !
 ! D296  D(9,11,27,56)         112.8688         estimate D2E/DX2                !
 ! D297  D(12,11,27,15)        -42.5098         estimate D2E/DX2                !
 ! D298  D(12,11,27,28)       -178.5281         estimate D2E/DX2                !
 ! D299  D(12,11,27,29)       -111.2843         estimate D2E/DX2                !
 ! D300  D(12,11,27,55)         96.5392         estimate D2E/DX2                !
 ! D301  D(12,11,27,56)         28.4534         estimate D2E/DX2                !
 ! D302  D(2,12,14,51)         101.433          estimate D2E/DX2                !
 ! D303  D(2,12,14,54)        -178.9383         estimate D2E/DX2                !
 ! D304  D(5,12,14,51)          32.8822         estimate D2E/DX2                !
 ! D305  D(5,12,14,54)         112.5109         estimate D2E/DX2                !
 ! D306  D(11,12,14,51)       -107.4536         estimate D2E/DX2                !
 ! D307  D(11,12,14,54)        -27.8248         estimate D2E/DX2                !
 ! D308  D(15,12,14,51)       -176.1898         estimate D2E/DX2                !
 ! D309  D(15,12,14,54)        -96.5611         estimate D2E/DX2                !
 ! D310  D(52,12,14,51)        -35.6587         estimate D2E/DX2                !
 ! D311  D(52,12,14,54)         43.9701         estimate D2E/DX2                !
 ! D312  D(2,12,15,9)          -95.8208         estimate D2E/DX2                !
 ! D313  D(2,12,15,27)        -179.4777         estimate D2E/DX2                !
 ! D314  D(5,12,15,9)          -27.6118         estimate D2E/DX2                !
 ! D315  D(5,12,15,27)        -111.2688         estimate D2E/DX2                !
 ! D316  D(11,12,15,9)          41.1708         estimate D2E/DX2                !
 ! D317  D(11,12,15,27)        -42.4862         estimate D2E/DX2                !
 ! D318  D(14,12,15,9)        -178.7885         estimate D2E/DX2                !
 ! D319  D(14,12,15,27)         97.5546         estimate D2E/DX2                !
 ! D320  D(52,12,15,9)         111.3871         estimate D2E/DX2                !
 ! D321  D(52,12,15,27)         27.7301         estimate D2E/DX2                !
 ! D322  D(2,12,52,51)         -34.7376         estimate D2E/DX2                !
 ! D323  D(2,12,52,54)        -114.4546         estimate D2E/DX2                !
 ! D324  D(5,12,52,51)        -102.3133         estimate D2E/DX2                !
 ! D325  D(5,12,52,54)         177.9697         estimate D2E/DX2                !
 ! D326  D(11,12,52,51)        175.158          estimate D2E/DX2                !
 ! D327  D(11,12,52,54)         95.441          estimate D2E/DX2                !
 ! D328  D(14,12,52,51)         35.6921         estimate D2E/DX2                !
 ! D329  D(14,12,52,54)        -44.0248         estimate D2E/DX2                !
 ! D330  D(15,12,52,51)        106.0696         estimate D2E/DX2                !
 ! D331  D(15,12,52,54)         26.3527         estimate D2E/DX2                !
 ! D332  D(7,13,16,6)           42.9698         estimate D2E/DX2                !
 ! D333  D(7,13,16,18)         -39.3552         estimate D2E/DX2                !
 ! D334  D(10,13,16,6)         -25.9619         estimate D2E/DX2                !
 ! D335  D(10,13,16,18)       -108.2869         estimate D2E/DX2                !
 ! D336  D(26,13,16,6)         -94.1013         estimate D2E/DX2                !
 ! D337  D(26,13,16,18)       -176.4264         estimate D2E/DX2                !
 ! D338  D(37,13,16,6)         112.5158         estimate D2E/DX2                !
 ! D339  D(37,13,16,18)         30.1907         estimate D2E/DX2                !
 ! D340  D(38,13,16,6)        -178.128          estimate D2E/DX2                !
 ! D341  D(38,13,16,18)         99.5469         estimate D2E/DX2                !
 ! D342  D(7,13,26,9)           27.5943         estimate D2E/DX2                !
 ! D343  D(7,13,26,24)         109.7089         estimate D2E/DX2                !
 ! D344  D(10,13,26,9)         -41.3131         estimate D2E/DX2                !
 ! D345  D(10,13,26,24)         40.8016         estimate D2E/DX2                !
 ! D346  D(16,13,26,9)          96.702          estimate D2E/DX2                !
 ! D347  D(16,13,26,24)        178.8166         estimate D2E/DX2                !
 ! D348  D(37,13,26,9)        -108.607          estimate D2E/DX2                !
 ! D349  D(37,13,26,24)        -26.4924         estimate D2E/DX2                !
 ! D350  D(38,13,26,9)         179.7528         estimate D2E/DX2                !
 ! D351  D(38,13,26,24)        -98.1326         estimate D2E/DX2                !
 ! D352  D(7,13,37,36)         178.0759         estimate D2E/DX2                !
 ! D353  D(7,13,37,39)         101.2021         estimate D2E/DX2                !
 ! D354  D(10,13,37,36)        -98.9349         estimate D2E/DX2                !
 ! D355  D(10,13,37,39)       -175.8087         estimate D2E/DX2                !
 ! D356  D(16,13,37,36)        109.5234         estimate D2E/DX2                !
 ! D357  D(16,13,37,39)         32.6497         estimate D2E/DX2                !
 ! D358  D(26,13,37,36)        -32.006          estimate D2E/DX2                !
 ! D359  D(26,13,37,39)       -108.8797         estimate D2E/DX2                !
 ! D360  D(38,13,37,36)         40.0762         estimate D2E/DX2                !
 ! D361  D(38,13,37,39)        -36.7976         estimate D2E/DX2                !
 ! D362  D(7,13,38,36)        -111.9788         estimate D2E/DX2                !
 ! D363  D(7,13,38,39)         -34.9838         estimate D2E/DX2                !
[...]
 0373147,0.00031451,0.00016313,0.00041298,-0.00006432,0.00004076,0.0000
 1703,-0.00001455,0.00004977,0.00002264,0.00945227,-0.07379394,0.004068
 03,-0.00805533,0.00531877,-0.00886446,-0.48125670,0.59341788,-0.000034
 59,0.00004279,0.00002936,0.00001035,-0.00000333,0.00001504,0.00017975,
 0.00003247,0.00000079,0.00001632,-0.00006743,0.00003047,0.00001240,-0.
 00003061,0.00002640,0.00017312,-0.00006644,0.00003223,0.00048498,0.000
 28038,0.00005223,-0.00000528,0.00000774,0.00006666,-0.00018097,0.00007
 302,-0.00009257,0.00012932,0.00002264,-0.00000734,0.00004386,-0.000021
 02,0.00002073,-0.00010790,0.00002851,-0.00002781,-0.00035938,-0.000090
 29,-0.00006619,0.00000590,0.00001429,0.00002320,0.00003574,-0.00001940
 ,0.00003494,0.00028107,0.00018120,0.00022570,-0.00007235,0.00000051,-0
 .00001381,0.00023750,-0.00113084,-0.00078616,0.00519342,0.00119989,0.0
 0323036,0.00233653,-0.00197288,0.00176776,0.00000621,0.00003209,0.0000
 3871,-0.00001533,-0.00001807,-0.00001283,0.00001739,-0.00000907,-0.000
 06593,-0.00001199,-0.00002508,0.00005274,-0.00001718,0.00001644,-0.000
 01883,0.00008313,-0.00000609,-0.00004112,-0.00013652,0.00005673,-0.000
 06104,0.00003656,0.00000107,-0.00000449,0.00002138,-0.00001461,-0.0000
 1137,-0.00000211,-0.00003843,0.00000910,-0.00002630,-0.00001108,-0.000
 01776,-0.00012054,-0.00000785,-0.00007372,0.00029036,0.00018126,-0.000
 13476,-0.00001582,-0.00002017,0.00001900,0.00004073,-0.00008131,0.0001
 3780,-0.00015864,0.00001763,-0.00002965,0.00010354,0.00006355,-0.00001
 761,0.00007530,0.00000176,-0.00004122,-0.00001398,0.00018450,-0.000285
 04,0.00006001,-0.00017331,-0.00026673,0.00014735,-0.00015888,0.0002260
 8,-0.00247805,-0.00068547,-0.00206621,0.00022287,0.00041908,0.00049629
 ,0.00077374,-0.00010387,0.00105061,-0.00004284,-0.00051074,0.00039920,
 0.00005924,-0.00004870,0.00003844,0.00038986,-0.00009299,-0.00025953,-
 0.00019489,-0.00010718,0.00015961,-0.00001681,0.00004088,0.00002263,0.
 00015128,0.00011018,-0.00019170,0.00011098,-0.00003569,0.00004042,-0.0
 0000025,-0.00003113,-0.00000469,-0.00012159,0.00002048,-0.00000032,0.0
 0015770,-0.00001790,-0.00001534,-0.00000281,-0.00002501,-0.00000838,0.
 00000215,0.00001910,0.00001688,0.00013682,-0.00003582,0.00002348,-0.00
 014469,0.00002312,0.00000592,0.00000649,-0.00010144,0.00014783,-0.0001
 1792,0.00004146,-0.00003987,-0.00464261,0.00358249,-0.00143308,0.00010
 560,0.00022820,-0.00002361,-0.00000931,0.00002373,0.00001354,-0.000019
 75,0.00002910,0.00000359,0.00503481,0.00078030,-0.04203581,-0.00382592
 ,-0.01462352,-0.02164961,-0.23185361,0.24267489,0.20458986,-0.00015720
 ,0.00007877,-0.00012828,0.00001196,-0.00001496,-0.00001449,0.00011218,
 -0.00004580,0.00014969,0.00010240,-0.00001588,-0.00002702,0.00001925,0
 .00001184,0.00000673,-0.00030466,-0.00017065,0.00035474,0.00017326,0.0
 0022752,-0.00003658,0.00010507,0.00001174,0.00000054,-0.00019019,0.000
 04189,-0.00002210,0.00007553,0.00004944,-0.00008206,0.00005481,0.00001
 314,-0.00004547,-0.00018801,-0.00004217,0.00011871,-0.00024665,-0.0002
 2249,0.00045975,0.00002445,0.00003752,0.00001470,0.00005131,0.00002094
 ,-0.00003623,0.00004397,-0.00024321,-0.00038616,-0.00001320,0.00002974
 ,0.00006016,-0.00216045,-0.00029439,0.00026230,0.00193441,-0.00143030,
 0.00211725,0.00229595,0.00148545,0.00074782,0.00011419,-0.00000066,-0.
 00000817,-0.00004325,-0.00000826,-0.00001117,-0.00004641,0.00000756,-0
 .00000279,0.00002554,-0.00003282,0.00006952,0.00000741,-0.00007008,-0.
 00000345,0.00008191,0.00002626,-0.00010815,-0.00012843,-0.00000131,0.0
 0002949,0.00003636,0.00001118,-0.00004748,0.00002726,0.00002991,-0.000
 05280,-0.00003156,-0.00003719,-0.00004001,-0.00000400,-0.00002438,-0.0
 0000487,-0.00001783,-0.00001271,-0.00002377,-0.00000021,0.00014324,-0.
 00013469,0.00002208,-0.00000337,0.00007623,0.00002704,-0.00014559,0.00
 021839,0.00010507,0.00019609,-0.00028969,-0.00009299,-0.00012961,-0.00
 002449,-0.00002513,0.00012922,0.00009418,-0.00035103,0.00041633,-0.000
 47915,-0.00134074,0.00052265,0.00109603,0.00025384,-0.00040831,0.00063
 179,-0.00208697,0.00071453,-0.00023934,0.00006813,-0.00014244,-0.00002
 954,0.00003373,0.00012559,0.00013652,-0.00095389,0.00019972,0.00006901
 ,0.00007285,-0.00009804,0.00005518,0.00047963,-0.00007437,0.00004917,-
 0.00002315,-0.00004490,0.00003690,-0.00006524,0.00002391,0.00001423,0.
 00014880,0.00006063,-0.00012754,0.00013313,-0.00000026,-0.00003052,0.0
 0001404,-0.00003670,-0.00002880,-0.00010921,0.00004300,-0.00004274,0.0
 0012550,-0.00010059,0.00013583,0.00000347,0.00000075,-0.00002644,0.000
 00534,0.00002273,-0.00001608,0.00013306,0.00000272,-0.00003803,-0.0001
 2796,0.00002360,-0.00000326,0.00002100,-0.00011940,0.00016488,-0.00015
 053,0.00005504,-0.00005658,0.00067194,-0.00175405,0.00204907,-0.000017
 72,-0.00066992,-0.00053639,-0.00003815,0.00001975,0.00000764,0.0000002
 3,0.00002267,0.00001601,-0.00003322,0.00754858,-0.03724517,-0.29079042
 ,0.16025597,-0.41426078,-0.00823632,0.00532264,0.00426822,0.29565470,0
 .00010819,-0.00006923,0.00004625,-0.00000621,0.00000554,0.00002282,-0.
 00007931,0.00002833,-0.00009173,-0.00007141,-0.00001174,0.00003129,-0.
 00001374,-0.00001510,0.00000634,-0.00008756,0.00010133,-0.00001868,-0.
 00013254,-0.00012651,0.00009283,-0.00005276,-0.00001892,0.00001176,0.0
 0009801,-0.00000882,-0.00001195,-0.00002767,-0.00004788,0.00006141,-0.
 00003393,-0.00001773,0.00004153,0.00011783,0.00004457,-0.00009816,0.00
 013290,0.00021318,-0.00037126,-0.00001769,-0.00002612,-0.00000478,-0.0
 0002678,-0.00002184,0.00003699,-0.00024369,-0.00003290,0.00024222,-0.0
 0001233,-0.00001716,-0.00005554,0.00091426,0.00002225,0.00005376,-0.00
 152698,0.00000454,-0.00082223,-0.00063852,-0.00189431,0.00223857,-0.00
 009379,-0.00000622,0.00001671,0.00003044,0.00000029,0.00000478,0.00004
 258,-0.00000290,-0.00000563,-0.00002299,0.00001183,-0.00001856,-0.0000
 1217,0.00005648,-0.00000681,-0.00002287,-0.00001883,0.00006297,0.00006
 563,0.00002529,-0.00004964,-0.00001817,-0.00000837,0.00003531,-0.00001
 511,-0.00002890,0.00003759,0.00002296,0.00001814,0.00003567,-0.0000044
 8,0.00001621,-0.00000187,-0.00001612,0.00000918,-0.00000033,0.00008174
 ,-0.00006620,0.00006545,-0.00002300,-0.00000061,-0.00005340,-0.0000107
 7,0.00009055,-0.00013387,-0.00015729,-0.00013747,0.00021478,0.00006711
 ,0.00009111,0.00005298,0.00001598,-0.00007215,-0.00008715,0.00040113,-
 0.00018441,0.00019286,-0.00012026,-0.00084838,-0.00088631,-0.00011684,
 0.00028189,-0.00042784,-0.00043232,0.00048853,0.00084129,0.00011918,-0
 .00010140,0.00007325,0.00006103,-0.00041961,-0.00036317,0.00055933,-0.
 00015682,0.00043445,-0.00005583,0.00008891,-0.00008915,-0.00002238,0.0
 0008433,-0.00006693,-0.00000344,0.00001285,0.00000429,0.00005081,-0.00
 000369,-0.00001516,-0.00008654,-0.00002711,0.00005823,-0.00007928,-0.0
 0001067,0.00003561,-0.00001218,0.00002091,0.00002282,0.00005525,-0.000
 02838,0.00003267,-0.00005858,0.00007640,-0.00011168,-0.00000426,-0.000
 00728,0.00001886,-0.00000439,-0.00001378,0.00001760,-0.00006955,-0.000
 01251,0.00003647,0.00006331,-0.00001280,0.00000406,-0.00001484,0.00006
 546,-0.00008895,0.00009035,-0.00003367,0.00003488,0.00132057,-0.001718
 46,-0.00115036,-0.00025626,0.00083533,0.00072043,0.00002768,-0.0000094
 8,-0.00000185,-0.00000600,-0.00001019,-0.00001270,0.00713630,0.0175881
 4,0.01321822,0.16025557,-0.13508781,0.25084136,0.00220024,-0.00329853,
 0.00220407,-0.16749188,0.12168664,-0.00026769,0.00014109,-0.00016756,0
 .00001751,-0.00002033,-0.00004200,0.00018122,-0.00011577,0.00021609,0.
 00015855,0.00001551,-0.00007290,0.00003114,0.00003315,-0.00000394,-0.0
 0057370,-0.00034920,0.00061855,0.00049939,0.00041146,-0.00007483,0.000
 16047,0.00001934,-0.00005012,-0.00024348,0.00005756,-0.00002228,0.0000
 7606,0.00009486,-0.00012714,0.00008271,0.00003119,-0.00009544,-0.00028
 463,-0.00009066,0.00022172,-0.00039133,-0.00044586,0.00090636,0.000042
 15,0.00006159,0.00001662,0.00007274,0.00004727,-0.00007967,0.00018447,
 -0.00033252,-0.00064816,0.00002245,0.00004729,0.00012461,-0.00342895,-
 0.00076375,-0.00068554,0.00227606,-0.00041378,0.00134948,0.00362762,0.
 00254207,-0.00034300,0.00020798,0.00000229,-0.00003197,-0.00007247,-0.
 00000574,-0.00001307,-0.00009266,0.00001020,0.00001554,0.00005059,-0.0
 0002668,0.00008888,0.00002051,-0.00016030,0.00000669,0.00008648,0.0000
 4539,-0.00018273,-0.00016884,-0.00004485,0.00009650,0.00004873,0.00002
 295,-0.00008631,0.00003846,0.00006315,-0.00009769,-0.00005518,-0.00004
 782,-0.00008662,0.00000751,-0.00003973,0.00000132,0.00003204,-0.000021
 73,-0.00000516,-0.00017582,0.00017384,-0.00016198,0.00005031,0.0000008
 3,0.00013363,0.00002162,-0.00024497,0.00034156,0.00038217,0.00041094,-
 0.00051441,-0.00027225,-0.00026414,-0.00007587,-0.00002074,0.00019082,
 0.00023218,-0.00094250,0.00023257,-0.00039571,0.00159674,0.00202577,0.
 00122059,0.00025358,-0.00072886,0.00101080,0.00362376,-0.00157662,0.00
 180418,-0.00011087,0.00013038,-0.00017138,-0.00016466,0.00003777,-0.00
 011635,-0.00173951,0.00076373,-0.00090223,0.00012396,-0.00013332,0.000
 18058,0.00016065,-0.00017979,0.00020691,0.00003600,-0.00004263,0.00001
 113,-0.00011271,0.00001923,0.00002892,0.00020893,0.00006557,-0.0001472
 1,0.00019253,0.00002086,-0.00007920,0.00002594,-0.00005423,-0.00005116
 ,-0.00014414,0.00006917,-0.00007727,0.00015588,-0.00017864,0.00025769,
 0.00000805,0.00001385,-0.00004477,0.00000945,0.00003383,-0.00003851,0.
 00017453,0.00002454,-0.00008161,-0.00016189,0.00003175,-0.00000876,0.0
 0003740,-0.00016597,0.00022368,-0.00021981,0.00008158,-0.00008467,0.00
 128960,0.00013309,-0.00018240,-0.00004867,-0.00200658,-0.00122928,-0.0
 0006517,0.00002468,0.00000764,0.00001140,0.00002745,0.00002948,-0.0305
 3867,0.01238071,-0.04136421,-0.41518813,0.25367373,-0.69645432,-0.0107
 7387,0.00795322,0.00838487,0.44357099,-0.26756994,0.73112233,-0.000200
 74,0.00014592,-0.00018037,0.00001769,-0.00003267,0.00001646,0.00009993
 ,-0.00007496,0.00016191,0.00012894,-0.00005516,0.00000724,0.00002684,-
 0.00000647,0.00003256,-0.00018130,-0.00009048,0.00024819,0.00033226,0.
 00034559,0.00005657,0.00013683,-0.00001500,0.00002138,-0.00021606,0.00
 004795,-0.00003187,0.00011663,0.00002882,-0.00005457,0.00006941,-0.000
 01018,-0.00001983,-0.00022158,-0.00000755,0.00005640,-0.00059248,-0.00
 017889,0.00036239,0.00002220,0.00003740,0.00002687,0.00006703,0.000006
 68,-0.00000394,0.00043903,-0.00011178,-0.00021447,-0.00008976,0.000012
 96,0.00001175,-0.00132626,0.00131553,-0.00016631,0.00189543,-0.0025665
 2,-0.00156985,0.00360077,-0.00357715,-0.00074660,0.00008672,-0.0000100
 7,0.00003147,-0.00004653,-0.00001964,-0.00001728,-0.00004730,-0.000007
 19,-0.00003645,-0.00001246,-0.00001865,0.00004735,-0.00002206,-0.00000
 935,-0.00001904,0.00009793,0.00001021,-0.00005557,-0.00018883,0.000038
 78,-0.00001401,0.00005011,0.00000389,-0.00002918,0.00003317,0.00000020
 ,-0.00003775,-0.00002657,-0.00005513,-0.00001445,-0.00002654,-0.000024
 23,-0.00001863,-0.00013050,-0.00001357,-0.00008490,0.00030343,0.000250
 11,-0.00020191,-0.00000359,-0.00002040,0.00005610,0.00004260,-0.000154
 55,0.00023556,-0.00007558,0.00010524,-0.00015680,0.00000700,-0.0000202
 7,-0.00010064,0.00000100,0.00009625,-0.00001072,0.00001573,0.00038816,
 -0.00062700,0.00020989,-0.00034051,-0.00001817,0.00024011,-0.00035307,
 0.00052962,0.00004990,0.00016633,0.00317821,0.00015895,-0.00030108,-0.
 00000533,0.00002143,-0.00000451,0.00000520,-0.00132973,0.00050624,-0.0
 0053283,0.00008529,-0.00011240,0.00012665,0.00033313,-0.00002885,0.000
 07295,0.00000219,-0.00011204,0.00017427,-0.00005284,0.00002162,-0.0000
 0108,0.00023375,0.00011796,-0.00024338,0.00018947,-0.00003264,0.000016
 63,0.00001048,-0.00004636,-0.00002315,-0.00017218,0.00004720,-0.000031
 70,0.00020529,-0.00008474,0.00008340,0.00000191,-0.00002033,-0.0000259
 1,0.00000706,0.00002988,0.00000316,0.00021057,-0.00003009,-0.00000407,
 -0.00021212,0.00003659,0.00000229,0.00001623,-0.00016258,0.00023209,-0
 .00020892,0.00007473,-0.00007435,0.00325979,-0.00179201,-0.00205690,0.
 00035060,0.00019571,0.00022123,-0.00003742,0.00003288,0.00001614,-0.00
 001738,0.00003936,0.00001253,-0.02138032,0.03761027,0.02248334,-0.0082
 1897,0.00092072,-0.00920069,-0.46845712,0.45941860,0.22330794,0.004703
 95,-0.00183567,0.00640002,0.48561450,0.00021720,-0.00010774,0.00018581
 ,-0.00001843,0.00002733,-0.00000929,-0.00009982,0.00005929,-0.00020117
 ,-0.00013585,0.00004142,-0.00001694,-0.00003009,0.00000108,-0.00002787
 ,0.00016332,0.00000938,-0.00019469,-0.00062362,-0.00055733,-0.00008524
 ,-0.00009218,0.00000996,0.00000092,0.00020940,-0.00004062,0.00002257,-
 0.00012581,-0.00003772,0.00005285,-0.00007166,0.00000469,0.00002748,0.
 00023326,0.00002012,-0.00007736,0.00050783,0.00026790,-0.00031626,-0.0
 0002477,-0.00004114,-0.00002646,-0.00006813,-0.00001449,0.00001156,-0.
 00017111,0.00002721,0.00018494,0.00008610,-0.00001463,-0.00001883,0.00
 049124,0.00072621,0.00110962,-0.00213672,-0.00327700,0.00139827,-0.000
 80879,-0.00005596,-0.00027492,-0.00010425,0.00000663,-0.00002510,0.000
 05115,0.00001636,0.00001633,0.00005606,0.00000866,0.00003745,0.0000029
 3,0.00002467,-0.00005978,0.00001544,0.00001609,0.00001851,-0.00009835,
 -0.00001715,0.00007017,0.00018790,-0.00002482,0.00000672,-0.00005209,-
 0.00000663,0.00003455,-0.00003176,-0.00000844,0.00004319,0.00002956,0.
 00005776,0.00001940,0.00002326,0.00002556,0.00001630,0.00012398,0.0000
 1499,0.00008174,-0.00027866,-0.00025179,0.00020069,-0.00000124,0.00002
 052,-0.00006105,-0.00004361,0.00015382,-0.00024372,0.00007253,-0.00010
 738,0.00017446,-0.00001234,0.00002098,0.00008650,-0.00000821,-0.000105
 29,-0.00000207,0.00007225,-0.00033149,0.00058560,-0.00022834,0.0002076
 0,-0.00001083,-0.00024627,0.00035747,-0.00054296,-0.00053970,-0.000224
 07,-0.00251723,0.00003113,0.00002506,-0.00002300,0.00001269,0.00011054
 ,0.00015785,0.00135478,-0.00049294,0.00048097,-0.00012353,0.00010683,-
 0.00011858,-0.00030621,-0.00007495,-0.00003550,0.00003988,0.00007430,-
 0.00011234,0.00006066,-0.00001536,-0.00000368,-0.00023667,-0.00011171,
 0.00023038,-0.00019495,0.00002512,-0.00000649,-0.00001325,0.00004713,0
 .00002741,0.00017162,-0.00005040,0.00003722,-0.00020236,0.00009753,-0.
 00010421,-0.00000365,0.00001672,0.00002852,-0.00000774,-0.00003067,0.0
 0000101,-0.00021047,0.00002472,0.00001107,0.00021100,-0.00003708,-0.00
 000126,-0.00001778,0.00016582,-0.00023738,0.00021587,-0.00007752,0.000
 07738,-0.00291709,0.00198499,0.00243184,-0.00013823,-0.00014563,-0.000
 27476,0.00004217,-0.00003227,-0.00001493,0.00001469,-0.00003892,-0.000
 01489,0.03529653,-0.00811287,-0.02357708,0.00582042,-0.00375575,0.0081
 2360,0.45836952,-0.52386063,-0.23224994,-0.00404558,0.00266669,-0.0061
 4186,-0.48971506,0.53458927,0.00007484,-0.00005085,0.00004864,-0.00000
 802,0.00001063,-0.00001134,-0.00008073,-0.00000309,-0.00004540,-0.0000
 4310,0.00003470,-0.00001889,-0.00001116,0.00001230,-0.00001939,0.00005
 280,0.00005305,-0.00008244,-0.00027414,-0.00018464,-0.00006946,-0.0000
 3260,0.00000542,-0.00002857,0.00010931,-0.00004234,0.00003706,-0.00007
 571,-0.00001446,0.00001442,-0.00003184,0.00001051,-0.00000290,0.000091
 61,-0.00000974,-0.00000163,0.00031200,0.00008445,-0.00005615,-0.000006
 74,-0.00001365,-0.00001486,-0.00002940,0.00000474,-0.00001267,-0.00015
 082,0.00000734,-0.00001087,0.00004810,-0.00000415,0.00000102,0.0002592
 4,0.00009033,0.00046089,-0.00125039,-0.00097415,-0.00168991,-0.0010992
 5,0.00131679,-0.00049088,-0.00002081,-0.00000641,-0.00002558,0.0000166
 6,0.00001118,0.00000848,0.00000540,0.00000630,0.00003403,0.00000716,0.
 00001194,-0.00003575,0.00001133,-0.00000253,0.00001123,-0.00005482,0.0
 0000056,0.00003052,0.00009600,-0.00002927,0.00003096,-0.00002605,-0.00
 000181,0.00000827,-0.00001563,0.00000596,0.00001348,0.00000714,0.00002
 722,-0.00000112,0.00001603,0.00000945,0.00001101,0.00007478,0.00000601
 ,0.00004686,-0.00017674,-0.00012398,0.00009599,0.00000687,0.00001225,-
 0.00001969,-0.00002383,0.00006684,-0.00010722,0.00006822,-0.00003594,0
 .00005423,-0.00003618,-0.00001237,0.00002984,-0.00001935,-0.00002918,0
 .00001057,0.00000346,-0.00013576,0.00025396,-0.00008783,0.00010394,0.0
 0007460,-0.00010642,0.00014096,-0.00021076,0.00011762,0.00024258,-0.00
 008394,-0.00002514,-0.00006304,-0.00014446,-0.00020360,0.00004533,-0.0
 0027845,0.00034129,0.00005538,-0.00001212,-0.00004149,0.00004407,-0.00
 003811,-0.00020024,-0.00000428,0.00009625,0.00007135,0.00005762,-0.000
 08761,0.00001637,-0.00001801,-0.00000542,-0.00011010,-0.00006702,0.000
 12659,-0.00008503,0.00002122,-0.00002016,-0.00000219,0.00002161,0.0000
 0686,0.00008406,-0.00001822,0.00000715,-0.00010458,0.00002588,-0.00001
 272,0.00000055,0.00001389,0.00000891,-0.00000225,-0.00001365,-0.000007
 24,-0.00009962,0.00002016,-0.00000805,0.00010264,-0.00001707,-0.000002
 78,-0.00000610,0.00007471,-0.00010790,0.00009198,-0.00003261,0.0000319
 5,0.00034375,-0.00038454,0.00082737,-0.00008689,-0.00010220,-0.0000913
 5,0.00001229,-0.00001641,-0.00000895,0.00001157,-0.00002004,-0.0000041
 2,0.01767870,-0.01866125,0.00493997,0.00384981,0.00159759,0.00774347,0
 .22464547,-0.23520723,-0.15162835,-0.00239139,0.00041224,-0.00376112,-
 0.24160820,0.25163478,0.14419373\\-0.00002177,-0.00000247,0.00000687,-
 0.00000039,0.00000124,-0.00000033,-0.00000061,-0.00000060,0.00001325,0
 .00000425,0.00000502,-0.00000420,-0.00000371,0.00000005,0.00000045,-0.
 00000036,-0.00001331,0.00001594,0.00001187,0.00000049,0.00001493,0.000
 00763,0.00000759,-0.00000021,-0.00000008,-0.00000093,0.00000101,0.0000
 0161,-0.00000104,0.00000053,0.00000074,-0.00000305,-0.00000191,-0.0000
 0430,-0.00000075,0.00000401,-0.00000371,-0.00000686,-0.00001005,0.0000
 0043,0.00000118,-0.00000029,0.00000252,0.00000347,0.00000284,0.0000059
 2,0.00000132,-0.00000584,-0.00000067,-0.00000346,0.00000388,0.00000345
 ,0.00000683,0.00000862,0.00000254,0.00002313,-0.00000806,0.00000118,-0
 .00003323,0.00000066,0.00002031,0.00000148,-0.00000737,-0.00000128,-0.
 00000206,0.00000265,-0.00000412,0.00000084,0.00000544,-0.00000077,0.00
 000458,-0.00000591,0.00000190,-0.00000225,0.00000100,0.00000222,-0.000
 00499,0.00000375,-0.00000129,-0.00000205,0.00000102,-0.00000167,-0.000
 00012,0.00000219,0.00000121,-0.00000418,0.00000205,0.00000411,0.000004
 54,-0.00000138,0.00000049,-0.00000288,0.00000205,0.00000148,-0.0000030
 5,0.00000164,-0.00001250,-0.00000219,-0.00000287,0.00000077,-0.0000015
 0,-0.00000211,0.00000115,-0.00000060,-0.00000136,0.00000545,0.00000562
 ,-0.00000242,0.00000167,0.00000242,0.00000494,-0.00000119,0.00000121,-
 0.00000018,0.00000255,-0.00001152,-0.00000460,-0.00001175,0.00000232,0
 .00001176,-0.00000098,0.00000086,0.00000065,0.00001221,0.00005001,-0.0
 0004379,-0.00001671,0.00001582,0.00003052,-0.00002739,-0.00004838,0.00
 000556,-0.00000090,0.00003560,-0.00004601,-0.00000005,-0.00001368,0.00
 000844,0.00001208,-0.00000291,0.00000615,-0.00001787,0.00001168,-0.000
 01940,-0.00000286,-0.00000355,0.00000380,0.00001190,-0.00000346,0.0000
 0760,0.,0.00000288,-0.00000170,-0.00000074,-0.00000020,-0.00000143,-0.
 00000028,0.00000022,-0.00000062,0.00000013,0.00000024,0.00000517,0.000
 00013,-0.00000205,-0.00000064,0.00000028,0.00000028,0.00000186,0.00000
 200,-0.00000035,0.00000120,0.00000026,-0.00000107,0.00000071,0.0000066
 0,-0.00000243,-0.00000285,-0.00000150,-0.00000125,0.00000287,0.0000028
 5,0.00000574,-0.00000183,-0.00000399,0.00000633,-0.00000765,-0.0000009
 8,0.00000016,0.00000247,-0.00000048,-0.00000149,0.00000108,0.00001765,
 -0.00002506,-0.00000556,-0.00001198,0.00000080,0.00000071,0.00002150,-
 0.00001275,-0.00001130,0.00000100,0.00000083,0.00000043,-0.00001716,0.
 00001697,0.00001117\\\@
 The archive entry for this job was punched.


 If fifty million people say a stupid thing,
 it is still a stupid thing.
                   -- Anatole France
 Job cpu time:       8 days 19 hours 49 minutes 57.2 seconds.
 Elapsed time:       0 days  4 hours 25 minutes 25.1 seconds.
 File lengths (MBytes):  RWF=  17316 Int=      0 D2E=      0 Chk=    156 Scr=      2
 Normal termination of Gaussian 16 at Thu Feb 23 03:30:01 2023.
