 Entering Gaussian System, Link 0=g16
 Initial command:
 /home/chesagar/softwares/G16_AVX2//g16/l1.exe "/home/chesagar/scratch/Gau-161382.inp" -scrdir="/home/chesagar/scratch/"
 Entering Link 1 = /home/chesagar/softwares/G16_AVX2//g16/l1.exe PID=    161384.
  
 Copyright (c) 1988-2019, Gaussian, Inc.  All Rights Reserved.
  
 This is part of the Gaussian(R) 16 program.  It is based on
 the Gaussian(R) 09 system (copyright 2009, Gaussian, Inc.),
 the Gaussian(R) 03 system (copyright 2003, Gaussian, Inc.),
 the Gaussian(R) 98 system (copyright 1998, Gaussian, Inc.),
 the Gaussian(R) 94 system (copyright 1995, Gaussian, Inc.),
 the Gaussian 92(TM) system (copyright 1992, Gaussian, Inc.),
 the Gaussian 90(TM) system (copyright 1990, Gaussian, Inc.),
 the Gaussian 88(TM) system (copyright 1988, Gaussian, Inc.),
 the Gaussian 86(TM) system (copyright 1986, Carnegie Mellon
 University), and the Gaussian 82(TM) system (copyright 1983,
 Carnegie Mellon University). Gaussian is a federally registered
 trademark of Gaussian, Inc.
  
 This software contains proprietary and confidential information,
 including trade secrets, belonging to Gaussian, Inc.
  
 This software is provided under written license and may be
 used, copied, transmitted, or stored only in accord with that
 written license.
  
 The following legend is applicable only to US Government
 contracts under FAR:
  
                    RESTRICTED RIGHTS LEGEND
  
 Use, reproduction and disclosure by the US Government is
 subject to restrictions as set forth in subparagraphs (a)
 and (c) of the Commercial Computer Software - Restricted
 Rights clause in FAR 52.227-19.
  
 Gaussian, Inc.
 340 Quinnipiac St., Bldg. 40, Wallingford CT 06492
  
  
 ---------------------------------------------------------------
 Warning -- This program may not be used in any manner that
 competes with the business of Gaussian, Inc. or will provide
 assistance to any competitor of Gaussian, Inc.  The licensee
 of this program is prohibited from giving any competitor of
 Gaussian, Inc. access to this program.  By using this program,
 the user acknowledges that Gaussian, Inc. is engaged in the
 business of creating and licensing software in the field of
 computational chemistry and represents and warrants to the
 licensee that it is not a competitor of Gaussian, Inc. and that
 it will not use this program in any manner prohibited above.
 ---------------------------------------------------------------
  

 Cite this work as:
 Gaussian 16, Revision C.01,
 M. J. Frisch, G. W. Trucks, H. B. Schlegel, G. E. Scuseria, 
 M. A. Robb, J. R. Cheeseman, G. Scalmani, V. Barone, 
 G. A. Petersson, H. Nakatsuji, X. Li, M. Caricato, A. V. Marenich, 
 J. Bloino, B. G. Janesko, R. Gomperts, B. Mennucci, H. P. Hratchian, 
 J. V. Ortiz, A. F. Izmaylov, J. L. Sonnenberg, D. Williams-Young, 
 F. Ding, F. Lipparini, F. Egidi, J. Goings, B. Peng, A. Petrone, 
 T. Henderson, D. Ranasinghe, V. G. Zakrzewski, J. Gao, N. Rega, 
 G. Zheng, W. Liang, M. Hada, M. Ehara, K. Toyota, R. Fukuda, 
 J. Hasegawa, M. Ishida, T. Nakajima, Y. Honda, O. Kitao, H. Nakai, 
 T. Vreven, K. Throssell, J. A. Montgomery, Jr., J. E. Peralta, 
 F. Ogliaro, M. J. Bearpark, J. J. Heyd, E. N. Brothers, K. N. Kudin, 
 V. N. Staroverov, T. A. Keith, R. Kobayashi, J. Normand, 
 K. Raghavachari, A. P. Rendell, J. C. Burant, S. S. Iyengar, 
 J. Tomasi, M. Cossi, J. M. Millam, M. Klene, C. Adamo, R. Cammi, 
 J. W. Ochterski, R. L. Martin, K. Morokuma, O. Farkas, 
 J. B. Foresman, and D. J. Fox, Gaussian, Inc., Wallingford CT, 2019.
 
 ******************************************
 Gaussian 16:  ES64L-G16RevC.01  3-Jul-2019
                25-Feb-2023 
 ******************************************
 %nprocshared=46
 Will use up to   46 processors via shared memory.
 %chk=Mo19S45_Szz_Mo_SH_2.chk
 %mem=100GB
 ----------------------------------------------------------
 # opt freq b3lyp/gen nosymm pseudo=read scf=maxcycles=1000
 ----------------------------------------------------------
 1/18=20,19=15,26=3,38=1/1,3;
 2/9=110,12=2,15=1,17=6,18=5,40=1/2;
 3/5=7,11=2,16=1,17=8,25=1,30=1,71=1,74=-5/1,2,3;
 4//1;
 5/5=2,7=1000,38=5/2;
 6/7=2,8=2,9=2,10=2,28=1/1;
 7/30=1/1,2,3,16;
 1/18=20,19=15,26=3/3(2);
 2/9=110,15=1/2;
 99//99;
 2/9=110,15=1/2;
 3/5=7,6=1,11=2,16=1,17=8,25=1,30=1,71=1,74=-5,82=7/1,2,3;
 4/5=5,16=3,69=1/1;
 5/5=2,7=1000,38=5/2;
 7/30=1/1,2,3,16;
 1/18=20,19=15,26=3/3(-5);
 2/9=110,15=1/2;
 6/7=2,8=2,9=2,10=2,19=2,28=1/1;
 99/9=1/99;
 -------------------
 Title Card Required
 -------------------
 Symbolic Z-matrix:
 Charge =  0 Multiplicity = 1
 42                    0.36483   1.26676   12.4958 
 16                    2.32045   2.25311   13.57615 
 16                   -0.78421   2.01932   14.63397 
 16                   -0.33839   0.86188   10.2094 
 16                    2.0133   -0.44591   11.9524 
 42                   -1.96172   2.55238   10.78762 
 16                   -2.76546   2.16127   8.50917 
 16                   -0.04763   3.56866   11.86587 
 42                    1.02049   2.83551   9.81305 
 16                    0.24538   2.49968   7.5096 
 16                    2.67431   1.12513   9.25718 
 42                    3.42541   1.49745   11.53736 
 42                   -1.43037   4.1603    8.10354 
 16                    5.46579   2.51612   12.68161 
 16                    3.00316   3.79619   10.88067 
 16                   -2.49154   4.86117   10.17308 
 16                    1.13253   6.84096   6.50466 
 42                   -4.40836   3.74585   9.24252 
 16                   -5.80427   1.74439   9.6236 
 16                   -5.51015   4.58901   11.27801 
 42                    2.55975  -0.03644   14.25538 
 16                    4.78948   0.27399   15.39375 
 16                    1.54906   0.70178   16.25934 
 42                    1.63598   4.43917   7.15058 
 16                    1.00873   4.28466   4.73919 
 16                    0.5379    5.14877   9.17635 
 42                    4.08142   3.05593   8.83842 
 16                    3.24896   2.69274   6.57568 
 16                    3.65596   5.35921   8.19614 
 42                    4.60936   4.59023   6.12059 
 16                    7.02369   5.11353   6.52313 
 16                    4.3697    7.05862   5.62861 
 42                    2.52126   6.28836   4.61893 
 16                    4.00349   4.41942   3.90836 
 16                   -1.18109   6.93554   3.71871 
 42                   -0.83624   5.78058   5.45673 
 16                   -2.13573   3.75032   5.65398 
 16                   -1.9242    6.60674   7.45373 
 42                   -3.62021   5.479     6.27636 
 16                   -5.46821   3.95259   6.96191 
 16                   -4.43067   6.55877   4.64988 
 42                   -5.00387   2.22472   11.8723 
 16                   -3.08218   3.25629   12.88531 
 16                   -3.35753   0.55642   11.25504 
 42                   -2.6376    0.96434   13.52104 
 16                   -1.08514  -0.7733    12.94287 
 16                   -4.5011    0.54338   14.52249 
 42                   -0.40849  -0.28789   15.19714 
 16                    1.25394  -1.97601   14.64361 
 16                   -1.53809  -1.12281   16.78207 
 42                    5.84982   0.24639   13.14026 
 16                    5.11177  -0.34013   10.99257 
 16                    8.42793   1.24313   10.87378 
 42                    6.38287   1.72073   10.53331 
 16                    5.76142   1.20389   8.2213 
 16                    6.17532   4.08098   9.90281 
 42                    7.12268   3.09073   7.99271 
 16                    9.20866   2.72816   8.04837 
 16                    2.29077   7.5297    2.91459 
 16                    7.83996  -0.29545   13.64652 
 16                   -7.10172   2.27554   12.94839 
 16                   -5.34484   5.74873   8.06662 
 16                    4.58112  -1.53717   14.32608 
 16                    6.67466   3.26289   5.56064 
 42                   -7.27827   3.21029   10.76659 
 16                   -8.76982   3.3786    8.61679 
 1                    -8.25021   4.34883   7.82798 
 16                   -9.1412    4.71578   11.72239 
 1                    -9.99288   4.00368   12.50072 
 

 GradGradGradGradGradGradGradGradGradGradGradGradGradGradGradGradGradGrad
 Berny optimization.
 Initialization pass.
                           ----------------------------
                           !    Initial Parameters    !
                           ! (Angstroms and Degrees)  !
 --------------------------                            --------------------------
 ! Name  Definition              Value          Derivative Info.                !
 --------------------------------------------------------------------------------
 ! R1    R(1,2)                  2.4422         estimate D2E/DX2                !
 ! R2    R(1,3)                  2.5413         estimate D2E/DX2                !
 ! R3    R(1,4)                  2.4261         estimate D2E/DX2                !
 ! R4    R(1,5)                  2.4384         estimate D2E/DX2                !
 ! R5    R(1,8)                  2.4219         estimate D2E/DX2                !
 ! R6    R(1,21)                 3.1003         estimate D2E/DX2                !
 ! R7    R(1,46)                 2.5425         estimate D2E/DX2                !
 ! R8    R(2,12)                 2.439          estimate D2E/DX2                !
 ! R9    R(2,21)                 2.4001         estimate D2E/DX2                !
 ! R10   R(3,45)                 2.4055         estimate D2E/DX2                !
 ! R11   R(3,48)                 2.4045         estimate D2E/DX2                !
 ! R12   R(4,6)                  2.414          estimate D2E/DX2                !
 ! R13   R(4,9)                  2.4288         estimate D2E/DX2                !
 ! R14   R(5,12)                 2.4378         estimate D2E/DX2                !
 ! R15   R(5,21)                 2.4021         estimate D2E/DX2                !
 ! R16   R(6,7)                  2.4475         estimate D2E/DX2                !
 ! R17   R(6,8)                  2.4206         estimate D2E/DX2                !
 ! R18   R(6,16)                 2.4472         estimate D2E/DX2                !
 ! R19   R(6,43)                 2.4802         estimate D2E/DX2                !
 ! R20   R(6,44)                 2.48           estimate D2E/DX2                !
 ! R21   R(7,13)                 2.4378         estimate D2E/DX2                !
 ! R22   R(7,18)                 2.3975         estimate D2E/DX2                !
 ! R23   R(8,9)                  2.4274         estimate D2E/DX2                !
 ! R24   R(9,10)                 2.4535         estimate D2E/DX2                !
 ! R25   R(9,11)                 2.4433         estimate D2E/DX2                !
 ! R26   R(9,15)                 2.4482         estimate D2E/DX2                !
 ! R27   R(9,26)                 2.4473         estimate D2E/DX2                !
 ! R28   R(10,13)                2.4328         estimate D2E/DX2                !
 ! R29   R(10,24)                2.4134         estimate D2E/DX2                !
 ! R30   R(11,12)                2.4294         estimate D2E/DX2                !
 ! R31   R(11,27)                2.4256         estimate D2E/DX2                !
 ! R32   R(12,14)                2.5515         estimate D2E/DX2                !
 ! R33   R(12,15)                2.4277         estimate D2E/DX2                !
 ! R34   R(12,52)                2.5529         estimate D2E/DX2                !
 ! R35   R(13,16)                2.4291         estimate D2E/DX2                !
 ! R36   R(13,26)                2.4499         estimate D2E/DX2                !
 ! R37   R(13,37)                2.5818         estimate D2E/DX2                !
 ! R38   R(13,38)                2.579          estimate D2E/DX2                !
 ! R39   R(14,51)                2.3472         estimate D2E/DX2                !
 ! R40   R(14,54)                2.4676         estimate D2E/DX2                !
 ! R41   R(15,27)                2.4252         estimate D2E/DX2                !
 ! R42   R(16,18)                2.405          estimate D2E/DX2                !
 ! R43   R(17,24)                2.5376         estimate D2E/DX2                !
 ! R44   R(17,33)                2.4062         estimate D2E/DX2                !
 ! R45   R(17,36)                2.4695         estimate D2E/DX2                !
 ! R46   R(18,19)                2.4697         estimate D2E/DX2                !
 ! R47   R(18,20)                2.4633         estimate D2E/DX2                !
 ! R48   R(18,40)                2.5233         estimate D2E/DX2                !
 ! R49   R(18,42)                3.0958         estimate D2E/DX2                !
 ! R50   R(18,62)                2.5042         estimate D2E/DX2                !
 ! R51   R(19,42)                2.4348         estimate D2E/DX2                !
 ! R52   R(19,65)                2.3723         estimate D2E/DX2                !
 ! R53   R(20,42)                2.4899         estimate D2E/DX2                !
 ! R54   R(20,65)                2.2997         estimate D2E/DX2                !
 ! R55   R(21,22)                2.5227         estimate D2E/DX2                !
 ! R56   R(21,23)                2.3627         estimate D2E/DX2                !
 ! R57   R(21,49)                2.3702         estimate D2E/DX2                !
 ! R58   R(21,63)                2.5186         estimate D2E/DX2                !
 ! R59   R(22,51)                2.4906         estimate D2E/DX2                !
 ! R60   R(22,63)                2.1127         estimate D2E/DX2                !
 ! R61   R(23,48)                2.4372         estimate D2E/DX2                !
 ! R62   R(24,25)                2.4964         estimate D2E/DX2                !
 ! R63   R(24,26)                2.411          estimate D2E/DX2                !
 ! R64   R(24,28)                2.4459         estimate D2E/DX2                !
 ! R65   R(24,29)                2.4536         estimate D2E/DX2                !
 ! R66   R(25,33)                2.5134         estimate D2E/DX2                !
 ! R67   R(25,36)                2.4812         estimate D2E/DX2                !
 ! R68   R(27,28)                2.4382         estimate D2E/DX2                !
 ! R69   R(27,29)                2.4287         estimate D2E/DX2                !
 ! R70   R(27,55)                2.5755         estimate D2E/DX2                !
 ! R71   R(27,56)                2.5628         estimate D2E/DX2                !
 ! R72   R(28,30)                2.3787         estimate D2E/DX2                !
 ! R73   R(29,30)                2.41           estimate D2E/DX2                !
 ! R74   R(30,31)                2.503          estimate D2E/DX2                !
 ! R75   R(30,32)                2.5283         estimate D2E/DX2                !
 ! R76   R(30,33)                3.082          estimate D2E/DX2                !
 ! R77   R(30,34)                2.3            estimate D2E/DX2                !
 ! R78   R(30,64)                2.5181         estimate D2E/DX2                !
 ! R79   R(31,57)                2.5022         estimate D2E/DX2                !
 ! R80   R(31,64)                2.115          estimate D2E/DX2                !
 ! R81   R(32,33)                2.2427         estimate D2E/DX2                !
 ! R82   R(33,34)                2.4889         estimate D2E/DX2                !
 ! R83   R(33,59)                2.121          estimate D2E/DX2                !
 ! R84   R(35,36)                2.1151         estimate D2E/DX2                !
 ! R85   R(36,37)                2.4186         estimate D2E/DX2                !
 ! R86   R(36,38)                2.4195         estimate D2E/DX2                !
 ! R87   R(36,39)                2.9177         estimate D2E/DX2                !
 ! R88   R(37,39)                2.3621         estimate D2E/DX2                !
 ! R89   R(38,39)                2.3525         estimate D2E/DX2                !
 ! R90   R(39,40)                2.493          estimate D2E/DX2                !
 ! R91   R(39,41)                2.1138         estimate D2E/DX2                !
 ! R92   R(39,62)                2.5004         estimate D2E/DX2                !
 ! R93   R(40,62)                2.1123         estimate D2E/DX2                !
 ! R94   R(42,43)                2.4048         estimate D2E/DX2                !
 ! R95   R(42,44)                2.4238         estimate D2E/DX2                !
 ! R96   R(42,61)                2.3583         estimate D2E/DX2                !
 ! R97   R(42,65)                2.7142         estimate D2E/DX2                !
 ! R98   R(43,45)                2.4197         estimate D2E/DX2                !
 ! R99   R(44,45)                2.4124         estimate D2E/DX2                !
 ! R100  R(45,46)                2.4008         estimate D2E/DX2                !
 ! R101  R(45,47)                2.157          estimate D2E/DX2                !
 ! R102  R(45,48)                3.0572         estimate D2E/DX2                !
 ! R103  R(46,48)                2.4032         estimate D2E/DX2                !
 ! R104  R(48,49)                2.4331         estimate D2E/DX2                !
 ! R105  R(48,50)                2.1178         estimate D2E/DX2                !
 ! R106  R(51,52)                2.3455         estimate D2E/DX2                !
 ! R107  R(51,54)                3.042          estimate D2E/DX2                !
 ! R108  R(51,60)                2.1238         estimate D2E/DX2                !
 ! R109  R(51,63)                2.4893         estimate D2E/DX2                !
 ! R110  R(52,54)                2.4645         estimate D2E/DX2                !
 ! R111  R(53,54)                2.1275         estimate D2E/DX2                !
 ! R112  R(54,55)                2.4492         estimate D2E/DX2                !
 ! R113  R(54,56)                2.4518         estimate D2E/DX2                !
 ! R114  R(54,57)                2.9797         estimate D2E/DX2                !
 ! R115  R(55,57)                2.3378         estimate D2E/DX2                !
 ! R116  R(56,57)                2.3509         estimate D2E/DX2                !
 ! R117  R(57,58)                2.118          estimate D2E/DX2                !
 ! R118  R(57,64)                2.479          estimate D2E/DX2                !
 ! R119  R(61,65)                2.3802         estimate D2E/DX2                !
 ! R120  R(65,66)                2.622          estimate D2E/DX2                !
 ! R121  R(65,68)                2.5789         estimate D2E/DX2                !
 ! R122  R(66,67)                1.3541         estimate D2E/DX2                !
 ! R123  R(68,69)                1.3558         estimate D2E/DX2                !
 ! A1    A(2,1,3)               82.5458         estimate D2E/DX2                !
 ! A2    A(2,1,4)              135.7572         estimate D2E/DX2                !
 ! A3    A(2,1,5)               80.846          estimate D2E/DX2                !
 ! A4    A(2,1,8)               82.3899         estimate D2E/DX2                !
 ! A5    A(2,1,46)             134.664          estimate D2E/DX2                !
 ! A6    A(3,1,4)              135.3379         estimate D2E/DX2                !
 ! A7    A(3,1,5)              134.5189         estimate D2E/DX2                !
 ! A8    A(3,1,8)               81.9739         estimate D2E/DX2                !
 ! A9    A(3,1,21)              88.1125         estimate D2E/DX2                !
 ! A10   A(3,1,46)              80.3174         estimate D2E/DX2                !
 ! A11   A(4,1,5)               82.4567         estimate D2E/DX2                !
 ! A12   A(4,1,8)               82.1915         estimate D2E/DX2                !
 ! A13   A(4,1,21)             132.0606         estimate D2E/DX2                !
 ! A14   A(4,1,46)              82.3282         estimate D2E/DX2                !
 ! A15   A(5,1,8)              136.4465         estimate D2E/DX2                !
 ! A16   A(5,1,46)              82.0191         estimate D2E/DX2                !
 ! A17   A(8,1,21)             131.8894         estimate D2E/DX2                !
 ! A18   A(8,1,46)             135.336          estimate D2E/DX2                !
 ! A19   A(21,1,46)             88.0903         estimate D2E/DX2                !
 ! A20   A(1,2,12)              82.4069         estimate D2E/DX2                !
 ! A21   A(12,2,21)             84.0214         estimate D2E/DX2                !
 ! A22   A(1,3,45)              80.1677         estimate D2E/DX2                !
 ! A23   A(1,3,48)              80.9243         estimate D2E/DX2                !
 ! A24   A(1,4,6)               81.5073         estimate D2E/DX2                !
 ! A25   A(1,4,9)               81.7211         estimate D2E/DX2                !
 ! A26   A(6,4,9)               81.1568         estimate D2E/DX2                !
 ! A27   A(1,5,12)              82.5088         estimate D2E/DX2                !
 ! A28   A(12,5,21)             84.0051         estimate D2E/DX2                !
 ! A29   A(4,6,7)               83.451          estimate D2E/DX2                !
 ! A30   A(4,6,8)               82.4702         estimate D2E/DX2                !
 ! A31   A(4,6,16)             138.2556         estimate D2E/DX2                !
 ! A32   A(4,6,43)             134.8413         estimate D2E/DX2                !
 ! A33   A(4,6,44)              81.9534         estimate D2E/DX2                !
 ! A34   A(7,6,8)              137.8554         estimate D2E/DX2                !
 ! A35   A(7,6,16)              81.1347         estimate D2E/DX2                !
 ! A36   A(7,6,43)             133.1853         estimate D2E/DX2                !
 ! A37   A(7,6,44)              82.0694         estimate D2E/DX2                !
 ! A38   A(8,6,16)              83.5094         estimate D2E/DX2                !
 ! A39   A(8,6,43)              82.0284         estimate D2E/DX2                !
 ! A40   A(8,6,44)             134.3463         estimate D2E/DX2                !
 ! A41   A(16,6,43)             81.1886         estimate D2E/DX2                !
 ! A42   A(16,6,44)            133.2168         estimate D2E/DX2                !
 ! A43   A(43,6,44)             79.3241         estimate D2E/DX2                !
 ! A44   A(6,7,13)              81.0265         estimate D2E/DX2                !
 ! A45   A(6,7,18)              80.4832         estimate D2E/DX2                !
 ! A46   A(13,7,18)             83.3511         estimate D2E/DX2                !
 ! A47   A(1,8,6)               81.4591         estimate D2E/DX2                !
 ! A48   A(1,8,9)               81.834          estimate D2E/DX2                !
 ! A49   A(6,8,9)               81.0504         estimate D2E/DX2                !
 ! A50   A(4,9,8)               82.0234         estimate D2E/DX2                !
 ! A51   A(4,9,10)              82.2542         estimate D2E/DX2                !
 ! A52   A(4,9,11)              81.1985         estimate D2E/DX2                !
 ! A53   A(4,9,15)             134.4921         estimate D2E/DX2                !
 ! A54   A(4,9,26)             134.4445         estimate D2E/DX2                !
 ! A55   A(8,9,10)             134.1303         estimate D2E/DX2                !
 ! A56   A(8,9,11)             134.5616         estimate D2E/DX2                !
 ! A57   A(8,9,15)              82.4753         estimate D2E/DX2                !
 ! A58   A(8,9,26)              81.2434         estimate D2E/DX2                !
 ! A59   A(10,9,11)             84.5158         estimate D2E/DX2                !
 ! A60   A(10,9,15)            135.971          estimate D2E/DX2                !
 ! A61   A(10,9,26)             79.795          estimate D2E/DX2                !
 ! A62   A(11,9,15)             79.9642         estimate D2E/DX2                !
 ! A63   A(11,9,26)            137.3899         estimate D2E/DX2                !
 ! A64   A(15,9,26)             84.3898         estimate D2E/DX2                !
 ! A65   A(9,10,13)             83.9714         estimate D2E/DX2                !
 ! A66   A(9,10,24)             81.2353         estimate D2E/DX2                !
 ! A67   A(13,10,24)            83.3765         estimate D2E/DX2                !
 ! A68   A(9,11,12)             83.5953         estimate D2E/DX2                !
 ! A69   A(9,11,27)             82.8021         estimate D2E/DX2                !
 ! A70   A(12,11,27)            81.9919         estimate D2E/DX2                !
 ! A71   A(2,12,5)              80.9233         estimate D2E/DX2                !
 ! A72   A(2,12,11)            133.788          estimate D2E/DX2                !
 ! A73   A(2,12,14)             82.1673         estimate D2E/DX2                !
 ! A74   A(2,12,15)             81.602          estimate D2E/DX2                !
 ! A75   A(2,12,52)            134.4802         estimate D2E/DX2                !
 ! A76   A(5,12,11)             81.8672         estimate D2E/DX2                !
 ! A77   A(5,12,14)            134.84           estimate D2E/DX2                !
 ! A78   A(5,12,15)            134.4373         estimate D2E/DX2                !
 ! A79   A(5,12,52)             81.0925         estimate D2E/DX2                !
 ! A80   A(11,12,14)           136.8309         estimate D2E/DX2                !
 ! A81   A(11,12,15)            80.6456         estimate D2E/DX2                !
 ! A82   A(11,12,52)            83.8931         estimate D2E/DX2                !
 ! A83   A(14,12,15)            83.2444         estimate D2E/DX2                !
 ! A84   A(14,12,52)            81.6531         estimate D2E/DX2                !
 ! A85   A(15,12,52)           137.6234         estimate D2E/DX2                !
 ! A86   A(7,13,10)             81.8437         estimate D2E/DX2                !
 ! A87   A(7,13,16)             81.6967         estimate D2E/DX2                !
 ! A88   A(7,13,26)            134.2641         estimate D2E/DX2                !
 ! A89   A(7,13,37)             82.9948         estimate D2E/DX2                !
 ! A90   A(7,13,38)            135.6359         estimate D2E/DX2                !
 ! A91   A(10,13,16)           134.9002         estimate D2E/DX2                !
 ! A92   A(10,13,26)            80.1492         estimate D2E/DX2                !
 ! A93   A(10,13,37)            81.2669         estimate D2E/DX2                !
 ! A94   A(10,13,38)           135.8809         estimate D2E/DX2                !
 ! A95   A(16,13,26)            82.0376         estimate D2E/DX2                !
 ! A96   A(16,13,37)           137.2908         estimate D2E/DX2                !
 ! A97   A(16,13,38)            81.7965         estimate D2E/DX2                !
 ! A98   A(26,13,37)           134.348          estimate D2E/DX2                !
 ! A99   A(26,13,38)            83.1908         estimate D2E/DX2                !
 ! A100  A(37,13,38)            81.9096         estimate D2E/DX2                !
 ! A101  A(12,14,51)            80.3521         estimate D2E/DX2                !
 ! A102  A(12,14,54)            77.178          estimate D2E/DX2                !
 ! A103  A(9,15,12)             83.5267         estimate D2E/DX2                !
 ! A104  A(9,15,27)             82.7073         estimate D2E/DX2                !
 ! A105  A(12,15,27)            82.0351         estimate D2E/DX2                !
 ! A106  A(6,16,13)             81.2079         estimate D2E/DX2                !
 ! A107  A(6,16,18)             80.34           estimate D2E/DX2                !
 ! A108  A(13,16,18)            83.3802         estimate D2E/DX2                !
 ! A109  A(24,17,33)            82.3925         estimate D2E/DX2                !
 ! A110  A(24,17,36)            81.9391         estimate D2E/DX2                !
 ! A111  A(33,17,36)            91.6587         estimate D2E/DX2                !
 ! A112  A(7,18,16)             83.0329         estimate D2E/DX2                !
 ! A113  A(7,18,19)             84.1972         estimate D2E/DX2                !
 ! A114  A(7,18,20)            141.7659         estimate D2E/DX2                !
 ! A115  A(7,18,40)             93.7564         estimate D2E/DX2                !
 ! A116  A(7,18,42)             93.8362         estimate D2E/DX2                !
 ! A117  A(7,18,62)            129.8845         estimate D2E/DX2                !
 ! A118  A(16,18,19)           140.0489         estimate D2E/DX2                !
 ! A119  A(16,18,20)            82.9942         estimate D2E/DX2                !
 ! A120  A(16,18,40)           130.2759         estimate D2E/DX2                !
 ! A121  A(16,18,42)            93.0092         estimate D2E/DX2                !
 ! A122  A(16,18,62)            96.248          estimate D2E/DX2                !
 ! A123  A(19,18,20)            84.0928         estimate D2E/DX2                !
 ! A124  A(19,18,40)            88.1923         estimate D2E/DX2                !
 ! A125  A(19,18,62)           120.6127         estimate D2E/DX2                !
 ! A126  A(20,18,40)           122.0675         estimate D2E/DX2                !
 ! A127  A(20,18,62)            86.9613         estimate D2E/DX2                !
 ! A128  A(40,18,42)           136.653          estimate D2E/DX2                !
 ! A129  A(42,18,62)           136.0475         estimate D2E/DX2                !
 ! A130  A(18,19,65)            85.6855         estimate D2E/DX2                !
 ! A131  A(18,20,65)            87.4163         estimate D2E/DX2                !
 ! A132  A(1,21,22)            146.1119         estimate D2E/DX2                !
 ! A133  A(1,21,23)             92.7052         estimate D2E/DX2                !
 ! A134  A(1,21,49)             92.6879         estimate D2E/DX2                !
 ! A135  A(1,21,63)            146.5743         estimate D2E/DX2                !
 ! A136  A(2,21,5)              82.45           estimate D2E/DX2                !
 ! A137  A(2,21,22)             95.6497         estimate D2E/DX2                !
 ! A138  A(2,21,23)             84.222          estimate D2E/DX2                !
 ! A139  A(2,21,49)            140.5372         estimate D2E/DX2                !
 ! A140  A(2,21,63)            131.0243         estimate D2E/DX2                !
 ! A141  A(5,21,22)            130.8955         estimate D2E/DX2                !
 ! A142  A(5,21,23)            140.2754         estimate D2E/DX2                !
 ! A143  A(5,21,49)             83.8121         estimate D2E/DX2                !
 ! A144  A(5,21,63)             96.1954         estimate D2E/DX2                !
 ! A145  A(22,21,23)            87.5303         estimate D2E/DX2                !
 ! A146  A(22,21,49)           120.913          estimate D2E/DX2                !
 ! A147  A(23,21,49)            83.1705         estimate D2E/DX2                !
 ! A148  A(23,21,63)           120.3773         estimate D2E/DX2                !
 ! A149  A(49,21,63)            87.132          estimate D2E/DX2                !
 ! A150  A(21,22,51)            88.0884         estimate D2E/DX2                !
 ! A151  A(21,23,48)            81.202          estimate D2E/DX2                !
 ! A152  A(10,24,17)           133.1722         estimate D2E/DX2                !
 ! A153  A(10,24,25)            87.0869         estimate D2E/DX2                !
 ! A154  A(10,24,26)            81.3209         estimate D2E/DX2                !
 ! A155  A(10,24,28)            80.8585         estimate D2E/DX2                !
 ! A156  A(10,24,29)           135.4259         estimate D2E/DX2                !
 ! A157  A(17,24,25)            76.282          estimate D2E/DX2                !
 ! A158  A(17,24,26)            81.0801         estimate D2E/DX2                !
 ! A159  A(17,24,28)           138.3172         estimate D2E/DX2                !
 ! A160  A(17,24,29)            85.2329         estimate D2E/DX2                !
 ! A161  A(25,24,26)           135.6737         estimate D2E/DX2                !
 ! A162  A(25,24,28)            83.9419         estimate D2E/DX2                !
 ! A163  A(25,24,29)           129.918          estimate D2E/DX2                !
 ! A164  A(26,24,28)           135.0718         estimate D2E/DX2                !
 ! A165  A(26,24,29)            84.6379         estimate D2E/DX2                !
 ! A166  A(28,24,29)            79.9203         estimate D2E/DX2                !
 ! A167  A(24,25,33)            81.1223         estimate D2E/DX2                !
 ! A168  A(24,25,36)            82.5408         estimate D2E/DX2                !
 ! A169  A(33,25,36)            88.8928         estimate D2E/DX2                !
 ! A170  A(9,26,13)             83.7412         estimate D2E/DX2                !
 ! A171  A(9,26,24)             81.4073         estimate D2E/DX2                !
 ! A172  A(13,26,24)            83.0636         estimate D2E/DX2                !
 ! A173  A(11,27,15)            80.7736         estimate D2E/DX2                !
 ! A174  A(11,27,28)            81.0007         estimate D2E/DX2                !
 ! A175  A(11,27,29)           134.3425         estimate D2E/DX2                !
 ! A176  A(11,27,55)            81.2197         estimate D2E/DX2                !
 ! A177  A(11,27,56)           136.1085         estimate D2E/DX2                !
 ! A178  A(15,27,28)           132.4672         estimate D2E/DX2                !
 ! A179  A(15,27,29)            81.6821         estimate D2E/DX2                !
 ! A180  A(15,27,55)           135.3404         estimate D2E/DX2                !
 ! A181  A(15,27,56)            83.7675         estimate D2E/DX2                !
 ! A182  A(28,27,29)            80.5629         estimate D2E/DX2                !
 ! A183  A(28,27,55)            83.8705         estimate D2E/DX2                !
 ! A184  A(28,27,56)           136.3825         estimate D2E/DX2                !
 ! A185  A(29,27,55)           137.1269         estimate D2E/DX2                !
 ! A186  A(29,27,56)            82.7413         estimate D2E/DX2                !
 ! A187  A(55,27,56)            81.6157         estimate D2E/DX2                !
 ! A188  A(24,28,27)            84.299          estimate D2E/DX2                !
 ! A189  A(24,28,30)            81.5201         estimate D2E/DX2                !
 ! A190  A(27,28,30)            82.1526         estimate D2E/DX2                !
 ! A191  A(24,29,27)            84.3359         estimate D2E/DX2                !
 ! A192  A(24,29,30)            80.7376         estimate D2E/DX2                !
 ! A193  A(27,29,30)            81.7123         estimate D2E/DX2                !
 ! A194  A(28,30,29)            82.1553         estimate D2E/DX2                !
 ! A195  A(28,30,31)           133.4449         estimate D2E/DX2                !
 ! A196  A(28,30,32)           139.6236         estimate D2E/DX2                !
 ! A197  A(28,30,33)            98.3524         estimate D2E/DX2                !
 ! A198  A(28,30,34)            88.5173         estimate D2E/DX2                !
 ! A199  A(28,30,64)            95.2283         estimate D2E/DX2                !
 ! A200  A(29,30,31)           100.1584         estimate D2E/DX2                !
 ! A201  A(29,30,32)            79.5471         estimate D2E/DX2                !
 ! A202  A(29,30,33)            88.6127         estimate D2E/DX2                !
 ! A203  A(29,30,34)           138.4023         estimate D2E/DX2                !
 ! A204  A(29,30,64)           133.1695         estimate D2E/DX2                !
 ! A205  A(31,30,32)            85.3317         estimate D2E/DX2                !
 ! A206  A(31,30,33)           128.0745         estimate D2E/DX2                !
 ! A207  A(31,30,34)           115.1064         estimate D2E/DX2                !
 ! A208  A(32,30,34)            81.974          estimate D2E/DX2                !
 ! A209  A(32,30,64)           123.3054         estimate D2E/DX2                !
 ! A210  A(33,30,64)           137.5419         estimate D2E/DX2                !
 ! A211  A(34,30,64)            87.8809         estimate D2E/DX2                !
 ! A212  A(30,31,57)            87.9141         estimate D2E/DX2                !
 ! A213  A(17,33,25)            78.3617         estimate D2E/DX2                !
 ! A214  A(17,33,30)            97.7999         estimate D2E/DX2                !
 ! A215  A(17,33,32)            92.5207         estimate D2E/DX2                !
 ! A216  A(17,33,34)           137.7214         estimate D2E/DX2                !
 ! A217  A(17,33,59)           115.6331         estimate D2E/DX2                !
 ! A218  A(25,33,30)            86.8562         estimate D2E/DX2                !
 ! A219  A(25,33,32)           138.4415         estimate D2E/DX2                !
 ! A220  A(25,33,34)            76.9041         estimate D2E/DX2                !
 ! A221  A(25,33,59)           116.0801         estimate D2E/DX2                !
 ! A222  A(30,33,59)           141.9612         estimate D2E/DX2                !
 ! A223  A(32,33,34)            84.0067         estimate D2E/DX2                !
 ! A224  A(32,33,59)           104.4966         estimate D2E/DX2                !
 ! A225  A(34,33,59)           105.9485         estimate D2E/DX2                !
 ! A226  A(17,36,25)            77.807          estimate D2E/DX2                !
 ! A227  A(17,36,35)           104.135          estimate D2E/DX2                !
 ! A228  A(17,36,37)           138.9536         estimate D2E/DX2                !
 ! A229  A(17,36,38)            82.0463         estimate D2E/DX2                !
 ! A230  A(17,36,39)           133.3026         estimate D2E/DX2                !
 ! A231  A(25,36,35)           102.2876         estimate D2E/DX2                !
 ! A232  A(25,36,37)            85.2395         estimate D2E/DX2                !
 ! A233  A(25,36,38)           141.1591         estimate D2E/DX2                !
 ! A234  A(25,36,39)           136.7522         estimate D2E/DX2                !
 ! A235  A(35,36,37)           115.9636         estimate D2E/DX2                !
 ! A236  A(35,36,38)           114.7369         estimate D2E/DX2                !
 ! A237  A(35,36,39)            97.568          estimate D2E/DX2                !
 ! A238  A(37,36,38)            88.7232         estimate D2E/DX2                !
 ! A239  A(13,37,36)            78.3048         estimate D2E/DX2                !
 ! A240  A(13,37,39)            78.7845         estimate D2E/DX2                !
 ! A241  A(13,38,36)            78.3436         estimate D2E/DX2                !
 ! A242  A(13,38,39)            79.0128         estimate D2E/DX2                !
 ! A243  A(36,39,40)           147.976          estimate D2E/DX2                !
 ! A244  A(36,39,41)            95.5598         estimate D2E/DX2                !
 ! A245  A(36,39,62)           148.0043         estimate D2E/DX2                !
 ! A246  A(37,39,38)            91.6969         estimate D2E/DX2                !
 ! A247  A(37,39,40)            95.1769         estimate D2E/DX2                !
 ! A248  A(37,39,41)           114.3343         estimate D2E/DX2                !
 ! A249  A(37,39,62)           134.5132         estimate D2E/DX2                !
 ! A250  A(38,39,40)           133.6533         estimate D2E/DX2                !
 ! A251  A(38,39,41)           114.6218         estimate D2E/DX2                !
 ! A252  A(38,39,62)            95.0032         estimate D2E/DX2                !
 ! A253  A(40,39,41)           103.895          estimate D2E/DX2                !
 ! A254  A(41,39,62)           103.3774         estimate D2E/DX2                !
 ! A255  A(18,40,39)            89.2754         estimate D2E/DX2                !
 ! A256  A(18,42,43)            89.6186         estimate D2E/DX2                !
 ! A257  A(18,42,44)            89.4963         estimate D2E/DX2                !
 ! A258  A(18,42,61)           123.2392         estimate D2E/DX2                !
 ! A259  A(18,42,65)            68.6984         estimate D2E/DX2                !
 ! A260  A(19,42,20)            84.2632         estimate D2E/DX2                !
 ! A261  A(19,42,43)           137.4232         estimate D2E/DX2                !
 ! A262  A(19,42,44)            81.5062         estimate D2E/DX2                !
 ! A263  A(19,42,61)            97.6572         estimate D2E/DX2                !
 ! A264  A(20,42,43)            81.7036         estimate D2E/DX2                !
 ! A265  A(20,42,44)           136.9644         estimate D2E/DX2                !
 ! A266  A(20,42,61)            84.6964         estimate D2E/DX2                !
 ! A267  A(43,42,44)            81.9377         estimate D2E/DX2                !
 ! A268  A(43,42,61)           120.6235         estimate D2E/DX2                !
 ! A269  A(43,42,65)           133.2718         estimate D2E/DX2                !
 ! A270  A(44,42,61)           137.33           estimate D2E/DX2                !
 ! A271  A(44,42,65)           135.6738         estimate D2E/DX2                !
 ! A272  A(6,43,42)             83.28           estimate D2E/DX2                !
 ! A273  A(6,43,45)             82.5522         estimate D2E/DX2                !
 ! A274  A(42,43,45)            81.4414         estimate D2E/DX2                !
 ! A275  A(6,44,42)             82.8963         estimate D2E/DX2                !
 ! A276  A(6,44,45)             82.703          estimate D2E/DX2                !
 ! A277  A(42,44,45)            81.2049         estimate D2E/DX2                !
 ! A278  A(3,45,43)             81.2399         estimate D2E/DX2                !
 ! A279  A(3,45,44)            137.6186         estimate D2E/DX2                !
 ! A280  A(3,45,46)             86.0217         estimate D2E/DX2                !
 ! A281  A(3,45,47)            122.4401         estimate D2E/DX2                !
 ! A282  A(43,45,44)            81.8679         estimate D2E/DX2                !
 ! A283  A(43,45,46)           137.8257         estimate D2E/DX2                !
 ! A284  A(43,45,47)            98.5173         estimate D2E/DX2                !
 ! A285  A(43,45,48)           131.7587         estimate D2E/DX2                !
 ! A286  A(44,45,46)            81.0469         estimate D2E/DX2                !
 ! A287  A(44,45,47)            98.3536         estimate D2E/DX2                !
 ! A288  A(44,45,48)           131.554          estimate D2E/DX2                !
 ! A289  A(46,45,47)           121.952          estimate D2E/DX2                !
 ! A290  A(47,45,48)           107.1842         estimate D2E/DX2                !
 ! A291  A(1,46,45)             80.2341         estimate D2E/DX2                !
 ! A292  A(1,46,48)             80.9264         estimate D2E/DX2                !
 ! A293  A(3,48,23)             80.6734         estimate D2E/DX2                !
 ! A294  A(3,48,46)             85.9924         estimate D2E/DX2                !
 ! A295  A(3,48,49)            135.9913         estimate D2E/DX2                !
 ! A296  A(3,48,50)            118.049          estimate D2E/DX2                !
 ! A297  A(23,48,45)           131.168          estimate D2E/DX2                !
 ! A298  A(23,48,46)           135.8081         estimate D2E/DX2                !
 ! A299  A(23,48,49)            80.3339         estimate D2E/DX2                !
 ! A300  A(23,48,50)           105.2089         estimate D2E/DX2                !
 ! A301  A(45,48,49)           131.1216         estimate D2E/DX2                !
 ! A302  A(45,48,50)           100.5371         estimate D2E/DX2                !
 ! A303  A(46,48,49)            80.7254         estimate D2E/DX2                !
 ! A304  A(46,48,50)           118.1775         estimate D2E/DX2                !
 ! A305  A(49,48,50)           105.1397         estimate D2E/DX2                !
 ! A306  A(21,49,48)            81.1371         estimate D2E/DX2                !
 ! A307  A(14,51,22)            95.5335         estimate D2E/DX2                !
 ! A308  A(14,51,52)            90.6532         estimate D2E/DX2                !
 ! A309  A(14,51,60)           116.5253         estimate D2E/DX2                !
 ! A310  A(14,51,63)           134.6292         estimate D2E/DX2                !
 ! A311  A(22,51,52)           134.2101         estimate D2E/DX2                !
 ! A312  A(22,51,54)           147.6297         estimate D2E/DX2                !
 ! A313  A(22,51,60)           100.7243         estimate D2E/DX2                !
 ! A314  A(52,51,60)           116.7013         estimate D2E/DX2                !
 ! A315  A(52,51,63)            95.5465         estimate D2E/DX2                !
 ! A316  A(54,51,60)            99.4234         estimate D2E/DX2                !
 ! A317  A(54,51,63)           147.6479         estimate D2E/DX2                !
 ! A318  A(60,51,63)           100.4415         estimate D2E/DX2                !
 ! A319  A(12,52,51)            80.3551         estimate D2E/DX2                !
 ! A320  A(12,52,54)            77.206          estimate D2E/DX2                !
 ! A321  A(14,54,52)            85.1595         estimate D2E/DX2                !
 ! A322  A(14,54,53)           106.8749         estimate D2E/DX2                !
 ! A323  A(14,54,55)           142.7079         estimate D2E/DX2                !
 ! A324  A(14,54,56)            83.2304         estimate D2E/DX2                !
 ! A325  A(14,54,57)           133.3442         estimate D2E/DX2                !
 ! A326  A(51,54,53)            85.5546         estimate D2E/DX2                !
 ! A327  A(51,54,55)           131.47           estimate D2E/DX2                !
 ! A328  A(51,54,56)           132.2292         estimate D2E/DX2                !
 ! A329  A(52,54,53)           106.1547         estimate D2E/DX2                !
 ! A330  A(52,54,55)            82.4485         estimate D2E/DX2                !
 ! A331  A(52,54,56)           144.0228         estimate D2E/DX2                !
 ! A332  A(52,54,57)           132.1761         estimate D2E/DX2                !
 ! A333  A(53,54,55)           110.3406         estimate D2E/DX2                !
 ! A334  A(53,54,56)           109.7934         estimate D2E/DX2                !
 ! A335  A(53,54,57)            90.0577         estimate D2E/DX2                !
 ! A336  A(55,54,56)            86.4978         estimate D2E/DX2                !
 ! A337  A(27,55,54)            77.7356         estimate D2E/DX2                !
 ! A338  A(27,55,57)            79.7971         estimate D2E/DX2                !
 ! A339  A(27,56,54)            77.9324         estimate D2E/DX2                !
 ! A340  A(27,56,57)            79.8236         estimate D2E/DX2                !
 ! A341  A(31,57,54)           149.6106         estimate D2E/DX2                !
 ! A342  A(31,57,55)           133.3806         estimate D2E/DX2                !
 ! A343  A(31,57,56)            96.9343         estimate D2E/DX2                !
 ! A344  A(31,57,58)           101.1154         estimate D2E/DX2                !
 ! A345  A(54,57,58)            98.2453         estimate D2E/DX2                !
 ! A346  A(54,57,64)           145.4416         estimate D2E/DX2                !
 ! A347  A(55,57,56)            91.4826         estimate D2E/DX2                !
 ! A348  A(55,57,58)           115.6416         estimate D2E/DX2                !
 ! A349  A(55,57,64)            92.6792         estimate D2E/DX2                !
 ! A350  A(56,57,58)           116.5929         estimate D2E/DX2                !
 ! A351  A(56,57,64)           134.0316         estimate D2E/DX2                !
 ! A352  A(58,57,64)           102.4547         estimate D2E/DX2                !
 ! A353  A(18,62,39)            89.5412         estimate D2E/DX2                !
 ! A354  A(21,63,51)            88.2088         estimate D2E/DX2                !
 ! A355  A(30,64,57)            88.0902         estimate D2E/DX2                !
 ! A356  A(19,65,20)            89.9937         estimate D2E/DX2                !
 ! A357  A(19,65,61)            98.7945         estimate D2E/DX2                !
 ! A358  A(19,65,66)            89.8899         estimate D2E/DX2                !
 ! A359  A(20,65,61)            88.5425         estimate D2E/DX2                !
 ! A360  A(20,65,66)           125.5365         estimate D2E/DX2                !
 ! A361  A(20,65,68)            97.0646         estimate D2E/DX2                !
 ! A362  A(42,65,66)           146.5139         estimate D2E/DX2                !
 ! A363  A(42,65,68)           131.7842         estimate D2E/DX2                !
 ! A364  A(61,65,66)           144.9844         estimate D2E/DX2                !
 ! A365  A(61,65,68)            86.7388         estimate D2E/DX2                !
 ! A366  A(66,65,68)            81.69           estimate D2E/DX2                !
 ! A367  A(65,66,67)           107.7785         estimate D2E/DX2                !
 ! A368  A(65,68,69)           111.0954         estimate D2E/DX2                !
 ! A369  L(51,54,57,53,-1)     175.6124         estimate D2E/DX2                !
 ! A370  L(19,65,68,20,-1)     187.0584         estimate D2E/DX2                !
 ! A371  L(51,54,57,53,-2)     179.3903         estimate D2E/DX2                !
 ! A372  L(19,65,68,20,-2)     174.6707         estimate D2E/DX2                !
 ! D1    D(3,1,2,12)           179.1584         estimate D2E/DX2                !
 ! D2    D(4,1,2,12)           -27.4886         estimate D2E/DX2                !
 ! D3    D(5,1,2,12)            41.6542         estimate D2E/DX2                !
 ! D4    D(8,1,2,12)           -97.9984         estimate D2E/DX2                !
 ! D5    D(46,1,2,12)          110.7386         estimate D2E/DX2                !
 ! D6    D(2,1,3,45)          -178.3507         estimate D2E/DX2                !
 ! D7    D(2,1,3,48)           -98.1222         estimate D2E/DX2                !
 ! D8    D(4,1,3,45)            28.0828         estimate D2E/DX2                !
 ! D9    D(4,1,3,48)           108.3113         estimate D2E/DX2                !
 ! D10   D(5,1,3,45)          -109.0634         estimate D2E/DX2                !
 ! D11   D(5,1,3,48)           -28.8349         estimate D2E/DX2                !
 ! D12   D(8,1,3,45)            98.3355         estimate D2E/DX2                !
 ! D13   D(8,1,3,48)           178.564          estimate D2E/DX2                !
 ! D14   D(21,1,3,45)         -128.8746         estimate D2E/DX2                !
 ! D15   D(21,1,3,48)          -48.6461         estimate D2E/DX2                !
 ! D16   D(46,1,3,45)          -40.4907         estimate D2E/DX2                !
 ! D17   D(46,1,3,48)           39.7379         estimate D2E/DX2                !
 ! D18   D(2,1,4,6)           -111.731          estimate D2E/DX2                !
 ! D19   D(2,1,4,9)            -29.5096         estimate D2E/DX2                !
 ! D20   D(3,1,4,6)             29.0234         estimate D2E/DX2                !
 ! D21   D(3,1,4,9)            111.2449         estimate D2E/DX2                !
 ! D22   D(5,1,4,6)            179.7368         estimate D2E/DX2                !
 ! D23   D(5,1,4,9)            -98.0418         estimate D2E/DX2                !
 ! D24   D(8,1,4,6)            -41.1452         estimate D2E/DX2                !
 ! D25   D(8,1,4,9)             41.0762         estimate D2E/DX2                !
 ! D26   D(21,1,4,6)           177.226          estimate D2E/DX2                !
 ! D27   D(21,1,4,9)          -100.5526         estimate D2E/DX2                !
 ! D28   D(46,1,4,6)            96.8299         estimate D2E/DX2                !
 ! D29   D(46,1,4,9)           179.0514         estimate D2E/DX2                !
 ! D30   D(2,1,5,12)           -41.6664         estimate D2E/DX2                !
 ! D31   D(3,1,5,12)          -111.6217         estimate D2E/DX2                !
 ! D32   D(4,1,5,12)            97.211          estimate D2E/DX2                !
 ! D33   D(8,1,5,12)            26.9772         estimate D2E/DX2                !
 ! D34   D(46,1,5,12)         -179.5319         estimate D2E/DX2                !
 ! D35   D(2,1,8,6)            179.4191         estimate D2E/DX2                !
 ! D36   D(2,1,8,9)             97.3148         estimate D2E/DX2                !
 ! D37   D(3,1,8,6)            -97.0889         estimate D2E/DX2                !
 ! D38   D(3,1,8,9)           -179.1931         estimate D2E/DX2                !
 ! D39   D(4,1,8,6)             41.0152         estimate D2E/DX2                !
 ! D40   D(4,1,8,9)            -41.089          estimate D2E/DX2                !
 ! D41   D(5,1,8,6)            111.3488         estimate D2E/DX2                !
 ! D42   D(5,1,8,9)             29.2445         estimate D2E/DX2                !
 ! D43   D(21,1,8,6)          -177.2342         estimate D2E/DX2                !
 ! D44   D(21,1,8,9)           100.6616         estimate D2E/DX2                !
 ! D45   D(46,1,8,6)           -29.6892         estimate D2E/DX2                !
 ! D46   D(46,1,8,9)          -111.7934         estimate D2E/DX2                !
 ! D47   D(3,1,21,22)          -91.1182         estimate D2E/DX2                !
 ! D48   D(3,1,21,23)           -1.5205         estimate D2E/DX2                !
 ! D49   D(3,1,21,49)           81.7627         estimate D2E/DX2                !
 ! D50   D(3,1,21,63)          170.6281         estimate D2E/DX2                !
 ! D51   D(4,1,21,22)          110.6335         estimate D2E/DX2                !
 ! D52   D(4,1,21,23)         -159.7688         estimate D2E/DX2                !
 ! D53   D(4,1,21,49)          -76.4856         estimate D2E/DX2                !
 ! D54   D(4,1,21,63)           12.3798         estimate D2E/DX2                !
 ! D55   D(8,1,21,22)          -13.6637         estimate D2E/DX2                !
 ! D56   D(8,1,21,23)           75.934          estimate D2E/DX2                !
 ! D57   D(8,1,21,49)          159.2172         estimate D2E/DX2                !
 ! D58   D(8,1,21,63)         -111.9174         estimate D2E/DX2                !
 ! D59   D(46,1,21,22)        -171.4887         estimate D2E/DX2                !
 ! D60   D(46,1,21,23)         -81.891          estimate D2E/DX2                !
 ! D61   D(46,1,21,49)           1.3922         estimate D2E/DX2                !
 ! D62   D(46,1,21,63)          90.2576         estimate D2E/DX2                !
 ! D63   D(2,1,46,45)          109.8657         estimate D2E/DX2                !
 ! D64   D(2,1,46,48)           29.5242         estimate D2E/DX2                !
 ! D65   D(3,1,46,45)           40.5778         estimate D2E/DX2                !
 ! D66   D(3,1,46,48)          -39.7637         estimate D2E/DX2                !
 ! D67   D(4,1,46,45)          -98.1031         estimate D2E/DX2                !
 ! D68   D(4,1,46,48)         -178.4446         estimate D2E/DX2                !
 ! D69   D(5,1,46,45)          178.4931         estimate D2E/DX2                !
 ! D70   D(5,1,46,48)           98.1516         estimate D2E/DX2                !
 ! D71   D(8,1,46,45)          -27.4517         estimate D2E/DX2                !
 ! D72   D(8,1,46,48)         -107.7932         estimate D2E/DX2                !
 ! D73   D(21,1,46,45)         128.9881         estimate D2E/DX2                !
 ! D74   D(21,1,46,48)          48.6466         estimate D2E/DX2                !
 ! D75   D(1,2,12,5)           -41.656          estimate D2E/DX2                !
 ! D76   D(1,2,12,11)           27.7596         estimate D2E/DX2                !
 ! D77   D(1,2,12,14)         -179.6242         estimate D2E/DX2                !
 ! D78   D(1,2,12,15)           96.0989         estimate D2E/DX2                !
 ! D79   D(1,2,12,52)         -109.5295         estimate D2E/DX2                !
 ! D80   D(21,2,12,5)           38.6221         estimate D2E/DX2                !
 ! D81   D(21,2,12,11)         108.0377         estimate D2E/DX2                !
 ! D82   D(21,2,12,14)         -99.3461         estimate D2E/DX2                !
 ! D83   D(21,2,12,15)         176.377          estimate D2E/DX2                !
 ! D84   D(21,2,12,52)         -29.2514         estimate D2E/DX2                !
 ! D85   D(12,2,21,5)          -39.1244         estimate D2E/DX2                !
 ! D86   D(12,2,21,22)          91.4564         estimate D2E/DX2                !
 ! D87   D(12,2,21,23)         178.3877         estimate D2E/DX2                !
 ! D88   D(12,2,21,49)        -109.7298         estimate D2E/DX2                !
 ! D89   D(12,2,21,63)          52.5365         estimate D2E/DX2                !
 ! D90   D(1,3,45,43)          -96.8713         estimate D2E/DX2                !
 ! D91   D(1,3,45,44)          -29.2793         estimate D2E/DX2                !
 ! D92   D(1,3,45,46)           42.8032         estimate D2E/DX2                !
 ! D93   D(1,3,45,47)          168.5618         estimate D2E/DX2                !
 ! D94   D(1,3,48,23)           95.7848         estimate D2E/DX2                !
 ! D95   D(1,3,48,46)          -41.9383         estimate D2E/DX2                !
 ! D96   D(1,3,48,49)           30.2995         estimate D2E/DX2                !
 ! D97   D(1,3,48,50)         -161.8742         estimate D2E/DX2                !
 ! D98   D(1,4,6,7)           -178.6862         estimate D2E/DX2                !
 ! D99   D(1,4,6,8)             41.14           estimate D2E/DX2                !
 ! D100  D(1,4,6,16)           112.5144         estimate D2E/DX2                !
 ! D101  D(1,4,6,43)           -29.6678         estimate D2E/DX2                !
 ! D102  D(1,4,6,44)           -95.811          estimate D2E/DX2                !
 ! D103  D(9,4,6,7)             98.443          estimate D2E/DX2                !
 ! D104  D(9,4,6,8)            -41.7308         estimate D2E/DX2                !
 ! D105  D(9,4,6,16)            29.6436         estimate D2E/DX2                !
 ! D106  D(9,4,6,43)          -112.5386         estimate D2E/DX2                !
 ! D107  D(9,4,6,44)          -178.6818         estimate D2E/DX2                !
 ! D108  D(1,4,9,8)            -40.9827         estimate D2E/DX2                !
 ! D109  D(1,4,9,10)          -177.7542         estimate D2E/DX2                !
 ! D110  D(1,4,9,11)            96.6355         estimate D2E/DX2                !
 ! D111  D(1,4,9,15)            30.1709         estimate D2E/DX2                !
 ! D112  D(1,4,9,26)          -110.3268         estimate D2E/DX2                !
 ! D113  D(6,4,9,8)             41.6404         estimate D2E/DX2                !
 ! D114  D(6,4,9,10)           -95.1312         estimate D2E/DX2                !
 ! D115  D(6,4,9,11)           179.2586         estimate D2E/DX2                !
 ! D116  D(6,4,9,15)           112.794          estimate D2E/DX2                !
 ! D117  D(6,4,9,26)           -27.7037         estimate D2E/DX2                !
 ! D118  D(1,5,12,2)            41.7233         estimate D2E/DX2                !
 ! D119  D(1,5,12,11)          -95.2232         estimate D2E/DX2                !
 ! D120  D(1,5,12,14)          111.0217         estimate D2E/DX2                !
 ! D121  D(1,5,12,15)          -26.9438         estimate D2E/DX2                !
 ! D122  D(1,5,12,52)          179.7321         estimate D2E/DX2                !
 ! D123  D(21,5,12,2)          -38.5863         estimate D2E/DX2                !
 ! D124  D(21,5,12,11)        -175.5327         estimate D2E/DX2                !
 ! D125  D(21,5,12,14)          30.7121         estimate D2E/DX2                !
 ! D126  D(21,5,12,15)        -107.2533         estimate D2E/DX2                !
 ! D127  D(21,5,12,52)          99.4225         estimate D2E/DX2                !
 ! D128  D(12,5,21,2)           39.1479         estimate D2E/DX2                !
 ! D129  D(12,5,21,22)         -51.8023         estimate D2E/DX2                !
 ! D130  D(12,5,21,23)         110.5813         estimate D2E/DX2                !
 ! D131  D(12,5,21,49)        -177.9389         estimate D2E/DX2                !
 ! D132  D(12,5,21,63)         -91.5161         estimate D2E/DX2                !
 ! D133  D(4,6,7,13)           -98.693          estimate D2E/DX2                !
 ! D134  D(4,6,7,18)           176.6077         estimate D2E/DX2                !
 ! D135  D(8,6,7,13)           -27.5635         estimate D2E/DX2                !
 ! D136  D(8,6,7,18)          -112.2628         estimate D2E/DX2                !
 ! D137  D(16,6,7,13)           42.3857         estimate D2E/DX2                !
 ! D138  D(16,6,7,18)          -42.3136         estimate D2E/DX2                !
 ! D139  D(43,6,7,13)          111.3458         estimate D2E/DX2                !
 ! D140  D(43,6,7,18)           26.6465         estimate D2E/DX2                !
 ! D141  D(44,6,7,13)          178.5609         estimate D2E/DX2                !
 ! D142  D(44,6,7,18)           93.8616         estimate D2E/DX2                !
 ! D143  D(4,6,8,1)            -41.2334         estimate D2E/DX2                !
 ! D144  D(4,6,8,9)             41.7733         estimate D2E/DX2                !
 ! D145  D(7,6,8,1)           -112.7209         estimate D2E/DX2                !
 ! D146  D(7,6,8,9)            -29.7142         estimate D2E/DX2                !
 ! D147  D(16,6,8,1)           178.1872         estimate D2E/DX2                !
 ! D148  D(16,6,8,9)           -98.8061         estimate D2E/DX2                !
 ! D149  D(43,6,8,1)            96.2202         estimate D2E/DX2                !
 ! D150  D(43,6,8,9)           179.2268         estimate D2E/DX2                !
 ! D151  D(44,6,8,1)            29.7016         estimate D2E/DX2                !
 ! D152  D(44,6,8,9)           112.7083         estimate D2E/DX2                !
 ! D153  D(4,6,16,13)           27.0761         estimate D2E/DX2                !
 ! D154  D(4,6,16,18)          111.7972         estimate D2E/DX2                !
 ! D155  D(7,6,16,13)          -42.5492         estimate D2E/DX2                !
 ! D156  D(7,6,16,18)           42.172          estimate D2E/DX2                !
 ! D157  D(8,6,16,13)           98.0754         estimate D2E/DX2                !
 ! D158  D(8,6,16,18)         -177.2035         estimate D2E/DX2                !
 ! D159  D(43,6,16,13)        -179.025          estimate D2E/DX2                !
 ! D160  D(43,6,16,18)         -94.3038         estimate D2E/DX2                !
 ! D161  D(44,6,16,13)        -112.7838         estimate D2E/DX2                !
 ! D162  D(44,6,16,18)         -28.0627         estimate D2E/DX2                !
 ! D163  D(4,6,43,42)         -108.0838         estimate D2E/DX2                !
 ! D164  D(4,6,43,45)          -25.8842         estimate D2E/DX2                !
 ! D165  D(7,6,43,42)           27.3787         estimate D2E/DX2                !
 ! D166  D(7,6,43,45)          109.5783         estimate D2E/DX2                !
 ! D167  D(8,6,43,42)         -179.0652         estimate D2E/DX2                !
 ! D168  D(8,6,43,45)          -96.8656         estimate D2E/DX2                !
 ! D169  D(16,6,43,42)          96.317          estimate D2E/DX2                !
 ! D170  D(16,6,43,45)         178.5166         estimate D2E/DX2                !
 ! D171  D(44,6,43,42)         -40.9367         estimate D2E/DX2                !
 ! D172  D(44,6,43,45)          41.2629         estimate D2E/DX2                !
 ! D173  D(4,6,44,42)          179.2968         estimate D2E/DX2                !
 ! D174  D(4,6,44,45)           97.309          estimate D2E/DX2                !
 ! D175  D(7,6,44,42)          -96.2469         estimate D2E/DX2                !
 ! D176  D(7,6,44,45)         -178.2347         estimate D2E/DX2                !
 ! D177  D(8,6,44,42)          108.1561         estimate D2E/DX2                !
 ! D178  D(8,6,44,45)           26.1683         estimate D2E/DX2                !
 ! D179  D(16,6,44,42)         -26.3923         estimate D2E/DX2                !
 ! D180  D(16,6,44,45)        -108.3801         estimate D2E/DX2                !
 ! D181  D(43,6,44,42)          40.5892         estimate D2E/DX2                !
 ! D182  D(43,6,44,45)         -41.3986         estimate D2E/DX2                !
 ! D183  D(6,7,13,10)           95.1646         estimate D2E/DX2                !
 ! D184  D(6,7,13,16)          -42.6997         estimate D2E/DX2                !
 ! D185  D(6,7,13,26)           27.562          estimate D2E/DX2                !
 ! D186  D(6,7,13,37)          177.2946         estimate D2E/DX2                !
 ! D187  D(6,7,13,38)         -111.8786         estimate D2E/DX2                !
 ! D188  D(18,7,13,10)         176.5312         estimate D2E/DX2                !
 ! D189  D(18,7,13,16)          38.6669         estimate D2E/DX2                !
 ! D190  D(18,7,13,26)         108.9286         estimate D2E/DX2                !
 ! D191  D(18,7,13,37)        -101.3388         estimate D2E/DX2                !
 ! D192  D(18,7,13,38)         -30.512          estimate D2E/DX2                !
 ! D193  D(6,7,18,16)           42.9889         estimate D2E/DX2                !
 ! D194  D(6,7,18,19)          -99.0745         estimate D2E/DX2                !
 ! D195  D(6,7,18,20)          -26.3004         estimate D2E/DX2                !
 ! D196  D(6,7,18,40)          173.1289         estimate D2E/DX2                !
 ! D197  D(6,7,18,42)          -49.5795         estimate D2E/DX2                !
 ! D198  D(6,7,18,62)          135.3253         estimate D2E/DX2                !
 ! D199  D(13,7,18,16)         -38.9815         estimate D2E/DX2                !
 ! D200  D(13,7,18,19)         178.955          estimate D2E/DX2                !
 ! D201  D(13,7,18,20)        -108.2708         estimate D2E/DX2                !
 ! D202  D(13,7,18,40)          91.1585         estimate D2E/DX2                !
 ! D203  D(13,7,18,42)        -131.5499         estimate D2E/DX2                !
 ! D204  D(13,7,18,62)          53.3548         estimate D2E/DX2                !
 ! D205  D(1,8,9,4)             41.0551         estimate D2E/DX2                !
 ! D206  D(1,8,9,10)           112.0565         estimate D2E/DX2                !
 ! D207  D(1,8,9,11)           -28.1607         estimate D2E/DX2                !
 ! D208  D(1,8,9,15)           -96.0257         estimate D2E/DX2                !
 ! D209  D(1,8,9,26)           178.5299         estimate D2E/DX2                !
 ! D210  D(6,8,9,4)            -41.5165         estimate D2E/DX2                !
 ! D211  D(6,8,9,10)            29.485          estimate D2E/DX2                !
 ! D212  D(6,8,9,11)          -110.7323         estimate D2E/DX2                !
 ! D213  D(6,8,9,15)          -178.5972         estimate D2E/DX2                !
 ! D214  D(6,8,9,26)            95.9584         estimate D2E/DX2                !
 ! D215  D(4,9,10,13)           96.7193         estimate D2E/DX2                !
 ! D216  D(4,9,10,24)         -179.0817         estimate D2E/DX2                !
 ! D217  D(8,9,10,13)           25.8102         estimate D2E/DX2                !
 ! D218  D(8,9,10,24)          110.0091         estimate D2E/DX2                !
 ! D219  D(11,9,10,13)         178.5516         estimate D2E/DX2                !
 ! D220  D(11,9,10,24)         -97.2495         estimate D2E/DX2                !
 ! D221  D(15,9,10,13)        -112.0095         estimate D2E/DX2                !
 ! D222  D(15,9,10,24)         -27.8106         estimate D2E/DX2                !
 ! D223  D(26,9,10,13)         -41.2264         estimate D2E/DX2                !
 ! D224  D(26,9,10,24)          42.9726         estimate D2E/DX2                !
 ! D225  D(4,9,11,12)          -97.4469         estimate D2E/DX2                !
 ! D226  D(4,9,11,27)          179.8566         estimate D2E/DX2                !
 ! D227  D(8,9,11,12)          -27.9078         estimate D2E/DX2                !
 ! D228  D(8,9,11,27)         -110.6043         estimate D2E/DX2                !
 ! D229  D(10,9,11,12)         179.569          estimate D2E/DX2                !
 ! D230  D(10,9,11,27)          96.8725         estimate D2E/DX2                !
 ! D231  D(15,9,11,12)          40.9345         estimate D2E/DX2                !
 ! D232  D(15,9,11,27)         -41.762          estimate D2E/DX2                !
 ! D233  D(26,9,11,12)         111.1166         estimate D2E/DX2                !
 ! D234  D(26,9,11,27)          28.4201         estimate D2E/DX2                !
 ! D235  D(4,9,15,12)           25.9639         estimate D2E/DX2                !
 ! D236  D(4,9,15,27)          108.7212         estimate D2E/DX2                !
 ! D237  D(8,9,15,12)           96.9383         estimate D2E/DX2                !
 ! D238  D(8,9,15,27)          179.6956         estimate D2E/DX2                !
 ! D239  D(10,9,15,12)        -112.1487         estimate D2E/DX2                !
 ! D240  D(10,9,15,27)         -29.3914         estimate D2E/DX2                !
 ! D241  D(11,9,15,12)         -40.9761         estimate D2E/DX2                !
 ! D242  D(11,9,15,27)          41.7811         estimate D2E/DX2                !
 ! D243  D(26,9,15,12)         178.8139         estimate D2E/DX2                !
 ! D244  D(26,9,15,27)         -98.4288         estimate D2E/DX2                !
 ! D245  D(4,9,26,13)          -27.4863         estimate D2E/DX2                !
 ! D246  D(4,9,26,24)         -111.3843         estimate D2E/DX2                !
 ! D247  D(8,9,26,13)          -97.1372         estimate D2E/DX2                !
 ! D248  D(8,9,26,24)          178.9648         estimate D2E/DX2                !
 ! D249  D(10,9,26,13)          40.8981         estimate D2E/DX2                !
 ! D250  D(10,9,26,24)         -43.0            estimate D2E/DX2                !
 ! D251  D(11,9,26,13)         111.0739         estimate D2E/DX2                !
 ! D252  D(11,9,26,24)          27.1758         estimate D2E/DX2                !
 ! D253  D(15,9,26,13)         179.6398         estimate D2E/DX2                !
 ! D254  D(15,9,26,24)          95.7418         estimate D2E/DX2                !
 ! D255  D(9,10,13,7)          -96.6584         estimate D2E/DX2                !
 ! D256  D(9,10,13,16)         -27.0715         estimate D2E/DX2                !
 ! D257  D(9,10,13,26)          41.1188         estimate D2E/DX2                !
 ! D258  D(9,10,13,37)         179.2324         estimate D2E/DX2                !
 ! D259  D(9,10,13,38)         110.5135         estimate D2E/DX2                !
 ! D260  D(24,10,13,7)        -178.4953         estimate D2E/DX2                !
 ! D261  D(24,10,13,16)       -108.9084         estimate D2E/DX2                !
 ! D262  D(24,10,13,26)        -40.7181         estimate D2E/DX2                !
 ! D263  D(24,10,13,37)         97.3955         estimate D2E/DX2                !
 ! D264  D(24,10,13,38)         28.6766         estimate D2E/DX2                !
 ! D265  D(9,10,24,17)        -112.5454         estimate D2E/DX2                !
 ! D266  D(9,10,24,25)         179.3755         estimate D2E/DX2                !
 ! D267  D(9,10,24,26)         -43.5397         estimate D2E/DX2                !
 ! D268  D(9,10,24,28)          95.0481         estimate D2E/DX2                !
 ! D269  D(9,10,24,29)          29.6246         estimate D2E/DX2                !
 ! D270  D(13,10,24,17)        -27.6558         estimate D2E/DX2                !
 ! D271  D(13,10,24,25)        -95.735          estimate D2E/DX2                !
 ! D272  D(13,10,24,26)         41.3498         estimate D2E/DX2                !
 ! D273  D(13,10,24,28)        179.9377         estimate D2E/DX2                !
 ! D274  D(13,10,24,29)        114.5141         estimate D2E/DX2                !
 ! D275  D(9,11,12,2)           27.4659         estimate D2E/DX2                !
 ! D276  D(9,11,12,5)           96.5049         estimate D2E/DX2                !
 ! D277  D(9,11,12,14)        -110.7737         estimate D2E/DX2                !
 ! D278  D(9,11,12,15)         -41.2532         estimate D2E/DX2                !
 ! D279  D(9,11,12,52)         178.3404         estimate D2E/DX2                !
 ! D280  D(27,11,12,2)         111.0622         estimate D2E/DX2                !
 ! D281  D(27,11,12,5)        -179.8987         estimate D2E/DX2                !
 ! D282  D(27,11,12,14)        -27.1774         estimate D2E/DX2                !
 ! D283  D(27,11,12,15)         42.3431         estimate D2E/DX2                !
 ! D284  D(27,11,12,52)        -98.0633         estimate D2E/DX2                !
 ! D285  D(9,11,27,15)          42.1253         estimate D2E/DX2                !
 ! D286  D(9,11,27,28)         -93.7863         estimate D2E/DX2                !
 ! D287  D(9,11,27,29)         -26.5481         estimate D2E/DX2                !
 ! D288  D(9,11,27,55)        -178.9145         estimate D2E/DX2                !
 ! D289  D(9,11,27,56)         113.0087         estimate D2E/DX2                !
 ! D290  D(12,11,27,15)        -42.3786         estimate D2E/DX2                !
 ! D291  D(12,11,27,28)       -178.2903         estimate D2E/DX2                !
 ! D292  D(12,11,27,29)       -111.0521         estimate D2E/DX2                !
 ! D293  D(12,11,27,55)         96.5815         estimate D2E/DX2                !
 ! D294  D(12,11,27,56)         28.5048         estimate D2E/DX2                !
 ! D295  D(2,12,14,51)         101.0706         estimate D2E/DX2                !
 ! D296  D(2,12,14,54)        -178.8244         estimate D2E/DX2                !
 ! D297  D(5,12,14,51)          32.2553         estimate D2E/DX2                !
 ! D298  D(5,12,14,54)         112.3603         estimate D2E/DX2                !
 ! D299  D(11,12,14,51)       -107.9634         estimate D2E/DX2                !
 ! D300  D(11,12,14,54)        -27.8584         estimate D2E/DX2                !
 ! D301  D(15,12,14,51)       -176.5237         estimate D2E/DX2                !
 ! D302  D(15,12,14,54)        -96.4187         estimate D2E/DX2                !
 ! D303  D(52,12,14,51)        -36.238          estimate D2E/DX2                !
 ! D304  D(52,12,14,54)         43.867          estimate D2E/DX2                !
 ! D305  D(2,12,15,9)          -96.0            estimate D2E/DX2                !
 ! D306  D(2,12,15,27)        -179.5047         estimate D2E/DX2                !
 ! D307  D(5,12,15,9)          -27.5983         estimate D2E/DX2                !
 ! D308  D(5,12,15,27)        -111.103          estimate D2E/DX2                !
 ! D309  D(11,12,15,9)          41.1586         estimate D2E/DX2                !
 ! D310  D(11,12,15,27)        -42.3461         estimate D2E/DX2                !
 ! D311  D(14,12,15,9)        -179.0367         estimate D2E/DX2                !
 ! D312  D(14,12,15,27)         97.4586         estimate D2E/DX2                !
 ! D313  D(52,12,15,9)         111.2502         estimate D2E/DX2                !
 ! D314  D(52,12,15,27)         27.7455         estimate D2E/DX2                !
 ! D315  D(2,12,52,51)         -34.0287         estimate D2E/DX2                !
 ! D316  D(2,12,52,54)        -114.2271         estimate D2E/DX2                !
 ! D317  D(5,12,52,51)        -101.8364         estimate D2E/DX2                !
 ! D318  D(5,12,52,54)         177.9651         estimate D2E/DX2                !
 ! D319  D(11,12,52,51)        175.4739         estimate D2E/DX2                !
 ! D320  D(11,12,52,54)         95.2755         estimate D2E/DX2                !
 ! D321  D(14,12,52,51)         36.269          estimate D2E/DX2                !
 ! D322  D(14,12,52,54)        -43.9295         estimate D2E/DX2                !
 ! D323  D(15,12,52,51)        106.5618         estimate D2E/DX2                !
 ! D324  D(15,12,52,54)         26.3634         estimate D2E/DX2                !
 ! D325  D(7,13,16,6)           42.6796         estimate D2E/DX2                !
 ! D326  D(7,13,16,18)         -38.5204         estimate D2E/DX2                !
 ! D327  D(10,13,16,6)         -26.9646         estimate D2E/DX2                !
 ! D328  D(10,13,16,18)       -108.1646         estimate D2E/DX2                !
 ! D329  D(26,13,16,6)         -94.4286         estimate D2E/DX2                !
 ! D330  D(26,13,16,18)       -175.6286         estimate D2E/DX2                !
 ! D331  D(37,13,16,6)         112.8138         estimate D2E/DX2                !
 ! D332  D(37,13,16,18)         31.6138         estimate D2E/DX2                !
 ! D333  D(38,13,16,6)        -178.6439         estimate D2E/DX2                !
 ! D334  D(38,13,16,18)        100.1561         estimate D2E/DX2                !
 ! D335  D(7,13,26,9)           26.9993         estimate D2E/DX2                !
 ! D336  D(7,13,26,24)         109.0631         estimate D2E/DX2                !
 ! D337  D(10,13,26,9)         -41.2656         estimate D2E/DX2                !
 ! D338  D(10,13,26,24)         40.7981         estimate D2E/DX2                !
 ! D339  D(16,13,26,9)          97.1258         estimate D2E/DX2                !
 ! D340  D(16,13,26,24)        179.1895         estimate D2E/DX2                !
 ! D341  D(37,13,26,9)        -108.6074         estimate D2E/DX2                !
 ! D342  D(37,13,26,24)        -26.5436         estimate D2E/DX2                !
 ! D343  D(38,13,26,9)         179.7487         estimate D2E/DX2                !
 ! D344  D(38,13,26,24)        -98.1876         estimate D2E/DX2                !
 ! D345  D(7,13,37,36)         178.1755         estimate D2E/DX2                !
 ! D346  D(7,13,37,39)         101.156          estimate D2E/DX2                !
 ! D347  D(10,13,37,36)        -99.0482         estimate D2E/DX2                !
 ! D348  D(10,13,37,39)       -176.0677         estimate D2E/DX2                !
 ! D349  D(16,13,37,36)        108.5179         estimate D2E/DX2                !
 ! D350  D(16,13,37,39)         31.4984         estimate D2E/DX2                !
 ! D351  D(26,13,37,36)        -32.1399         estimate D2E/DX2                !
 ! D352  D(26,13,37,39)       -109.1594         estimate D2E/DX2                !
 ! D353  D(38,13,37,36)         40.0167         estimate D2E/DX2                !
 ! D354  D(38,13,37,39)        -37.0028         estimate D2E/DX2                !
 ! D355  D(7,13,38,36)        -111.2361         estimate D2E/DX2                !
 ! D356  D(7,13,38,39)         -34.1014         estimate D2E/DX2                !
 ! D357  D(10,13,38,36)         28.4856         estimate D2E/DX2                !
 ! D358  D(10,13,38,39)        105.6203         estimate D2E/DX2                !
 ! D359  D(16,13,38,36)        179.623          estimate D2E/DX2                !
 ! D360  D(16,13,38,39)       -103.2422         estimate D2E/DX2                !
 ! D361  D(26,13,38,36)         96.7308         estimate D2E/DX2                !
 ! D362  D(26,13,38,39)        173.8655         estimate D2E/DX2                !
 ! D363  D(37,13,38,36)        -39.9908         estimate D2E/DX2                !
 ! D364  D(37,13,38,39)         37.1439         estimate D2E/DX2                !
 ! D365  D(12,14,51,22)        -95.0219         estimate D2E/DX2                !
 ! D366  D(12,14,51,52)         39.5421         estimate D2E/DX2                !
 ! D367  D(12,14,51,60)        160.0678         estimate D2E/DX2                !
 ! D368  D(12,14,51,63)        -58.9154         estimate D2E/DX2                !
 ! D369  D(12,14,54,52)        -45.462          estimate D2E/DX2                !
 ! D370  D(12,14,54,53)       -150.8945         estimate D2E/DX2                !
 ! D371  D(12,14,54,55)         25.3375         estimate D2E/DX2                !
 ! D372  D(12,14,54,56)        100.4218         estimate D2E/DX2                !
 ! D373  D(12,14,54,57)        102.3824         estimate D2E/DX2                !
[...]
 76,-0.00000300,0.00000042,-0.00000043,0.00000145,0.,0.00000120,-0.0007
 6138,-0.00088420,0.00530609,-0.01116486,-0.00949877,0.01346349,0.01263
 748,0.00848602,0.00001249,0.00000361,-0.00001602,-0.00000304,0.0000022
 3,0.00000137,0.00000600,0.00001994,0.00001641,-0.00000338,-0.00000803,
 0.00000649,-0.00000117,-0.00000119,0.00000012,-0.00003929,-0.00001139,
 0.00000594,-0.00020737,-0.00011326,-0.00004833,-0.00000096,0.00000930,
 0.00001147,-0.00002338,0.00000873,-0.00000762,-0.00000209,-0.00001261,
 0.00000052,0.00000237,-0.00000371,-0.00000030,-0.00001646,-0.00000258,
 0.00000467,-0.00013933,-0.00015519,-0.00002554,0.00000163,0.00000206,0
 .00000258,0.00000308,0.00000029,0.00000109,-0.00012921,0.00000783,0.00
 023415,-0.00001138,-0.00000020,0.00000148,0.00111502,0.00071472,-0.000
 99071,-0.00004609,-0.00025373,0.00068514,0.00016961,0.00003477,0.00056
 135,0.00001565,0.00000117,-0.00000323,-0.00000086,0.00000103,-0.000000
 32,-0.00000482,-0.00000303,-0.00000345,-0.00000804,-0.00002190,0.00002
 982,-0.00000626,0.00002110,-0.00001259,-0.00001228,0.00003473,0.000024
 01,-0.00000577,0.00000177,-0.00000163,-0.00000113,0.00000170,0.0000006
 3,-0.00000098,0.00000066,-0.00000203,-0.00000200,-0.00000412,-0.000002
 96,0.00000014,-0.00000180,0.00000026,-0.00001684,0.00000312,-0.0000090
 5,0.00004105,0.00001470,0.00000508,-0.00000223,-0.00000601,0.00000084,
 -0.00002931,-0.00000200,0.00003572,0.00002672,-0.00005230,-0.00003903,
 -0.00001048,-0.00000842,0.00004652,-0.00015859,0.00000580,-0.00006369,
 0.00063564,0.00052163,-0.00021240,-0.00063985,-0.00004213,0.00097655,-
 0.00014917,0.00001673,-0.00004151,-0.00161457,0.00033916,-0.00049469,0
 .00001844,0.00011505,0.00007902,0.00004350,0.00001567,0.00000398,-0.00
 016699,-0.00011864,0.00018776,0.00000686,-0.00002091,-0.00000686,0.000
 20553,0.00002290,-0.00002718,-0.00000979,0.00000174,-0.00001258,-0.000
 00674,0.00000635,0.00000532,0.00001238,0.00000415,-0.00000868,0.000008
 07,0.00000050,-0.00000213,0.00000070,-0.00000353,-0.00000063,-0.000008
 58,0.00000160,-0.00000046,0.00001144,-0.00000291,0.00000267,0.00000099
 ,-0.00000171,-0.00000119,0.00000153,0.00000161,0.00000058,0.00000542,-
 0.00000143,0.00000137,-0.00000780,0.00000127,0.00000025,-0.00000150,-0
 .00000623,0.00000909,-0.00000836,0.00000293,-0.00000303,0.00029791,-0.
 00117781,0.00100473,0.00043596,-0.00072660,0.00035715,-0.00000103,-0.0
 0000019,-0.00000088,-0.00000010,0.00000102,0.00000105,0.00321931,0.002
 78803,-0.01132081,0.11663688,0.01472716,-0.13351530,-0.11905225,-0.017
 41479,0.14329148,-0.00013648,0.00006846,-0.00008854,0.00001852,-0.0000
 2174,0.00002687,0.00004699,-0.00002372,0.00005728,0.00012125,-0.000059
 35,0.00002872,0.00001473,-0.00001383,0.00002878,-0.00037641,-0.0001419
 7,0.00040390,0.00016532,0.00014579,0.00030308,0.00010316,-0.00005466,0
 .00000135,-0.00013784,0.00006957,-0.00007908,0.00009930,0.00003021,-0.
 00003558,0.00004384,-0.00001282,0.00000536,-0.00012252,0.00002784,-0.0
 0001048,-0.00062026,-0.00015719,0.00027141,0.00000761,0.00001955,0.000
 02044,0.00004508,-0.00000935,0.00001175,0.00028685,-0.00008077,-0.0001
 0847,-0.00005501,0.00001120,0.00001436,-0.00248141,0.00097342,0.000101
 99,-0.00274169,0.00697804,0.00318742,-0.00144300,0.00063592,-0.0009347
 6,-0.00000104,-0.00002592,0.00004382,-0.00002299,-0.00002125,-0.000011
 85,-0.00001401,-0.00001273,-0.00003567,-0.00002529,-0.00002141,0.00001
 942,-0.00001398,-0.00000148,-0.00001331,0.00004830,0.00001249,-0.00000
 710,-0.00012913,0.00004592,-0.00003882,0.00003970,0.00000291,-0.000012
 81,0.00002528,-0.00000558,-0.00001873,-0.00001279,-0.00003304,-0.00000
 583,-0.00002132,-0.00001458,-0.00001541,-0.00008451,-0.00000977,-0.000
 05618,0.00019266,0.00015195,-0.00012884,-0.00000689,-0.00001140,0.0000
 3302,0.00002337,-0.00010370,0.00015076,-0.00000053,0.00005219,-0.00011
 088,-0.00000528,0.00000018,-0.00011054,-0.00003658,0.00004436,0.000014
 91,0.00000038,0.00021059,-0.00041467,0.00013721,0.00014246,0.00009389,
 0.00013870,-0.00021660,0.00033454,0.00161319,0.00098022,-0.00178602,-0
 .00026084,-0.00047074,-0.00027762,0.00051284,-0.00000874,0.00044775,-0
 .00012442,-0.00022653,0.00019078,0.00005679,-0.00009348,0.00006043,0.0
 0031537,-0.00005872,-0.00015408,-0.00008791,-0.00007333,0.00018296,0.0
 0000465,0.00002520,-0.00001667,0.00015943,0.00009787,-0.00020078,0.000
 11552,-0.00003202,0.00002851,0.00000128,-0.00002926,-0.00000732,-0.000
 11524,0.00002465,-0.00001204,0.00014545,-0.00003376,0.00001921,-0.0000
 0237,-0.00001810,-0.00001213,0.00000108,0.00001731,0.00000906,0.000137
 02,-0.00002636,0.00001076,-0.00013877,0.00002226,0.00000220,0.00000945
 ,-0.00009782,0.00014221,-0.00012404,0.00004312,-0.00004462,-0.01031515
 ,0.00776316,-0.00004642,0.00018597,-0.00013106,0.00011432,-0.00001651,
 0.00002389,0.00001503,-0.00001562,0.00002769,0.00000538,-0.06207755,0.
 01013338,0.02282308,0.00193838,-0.00065012,0.00512425,-0.00003437,0.00
 065415,-0.00027797,0.08433495,-0.00002605,0.00002125,0.00000191,-0.000
 00584,0.00000871,-0.00003697,-0.00002179,-0.00009866,0.00004173,-0.000
 06353,0.00001419,-0.00007042,-0.00000542,0.00003959,-0.00003403,0.0008
 4512,0.00063898,-0.00064029,-0.00012839,-0.00032445,-0.00046018,-0.000
 02500,0.00002570,-0.00009475,0.00005965,-0.00008804,0.00013146,-0.0000
 5662,0.00001578,-0.00000542,-0.00001059,0.00003192,-0.00004679,0.00000
 864,-0.00007481,0.00011396,0.00043952,-0.00004541,-0.00010475,0.000012
 75,0.00000801,-0.00001635,-0.00001123,0.00003102,-0.00005345,-0.000103
 75,0.00039815,0.00013962,0.00005240,-0.00000788,0.00001732,0.00389281,
 0.00009524,0.00011795,-0.00153003,0.00297930,0.00124425,0.00019587,0.0
 0098293,0.00103455,0.00009756,0.00000003,-0.00006596,-0.00001233,0.000
 01781,0.00000479,-0.00005925,0.00000734,0.00005685,0.00006454,0.000001
 29,-0.00001380,0.00001912,-0.00001663,0.00002084,-0.00006092,0.0000228
 0,-0.00000858,0.00005690,-0.00006239,0.00008047,-0.00002117,0.00000113
 ,-0.00001591,-0.00001150,0.00002979,-0.00000518,-0.00000744,0.00001003
 ,-0.00001405,0.00002123,0.00000079,0.00001465,0.00007641,0.,0.00004546
 ,-0.00019349,-0.00008248,0.00004945,0.00002269,0.00001445,0.00000664,-
 0.00000559,0.00004725,-0.00007161,0.00002027,-0.00000984,0.00000650,0.
 00005966,0.00001830,0.00002971,0.00004721,-0.00004473,0.00001749,-0.00
 015014,-0.00019021,0.00023427,-0.00019648,0.00023026,-0.00002709,-0.00
 005026,0.00013309,-0.00018127,0.00061101,-0.00120457,0.00092430,-0.000
 18146,-0.00013643,-0.00018150,-0.00016570,-0.00008648,-0.00009602,-0.0
 0070289,0.00051678,-0.00082599,0.00003149,-0.00005411,0.00010658,-0.00
 033677,-0.00019557,0.00027706,0.00015868,0.00007697,-0.00009738,-0.000
 04766,-0.00003389,0.00001247,-0.00002735,-0.00005606,0.00009084,-0.000
 02414,0.00003618,-0.00005595,0.00001290,0.00000878,-0.00001471,0.00005
 496,0.00000523,-0.00002375,-0.00008522,-0.00004095,0.00009228,0.000007
 67,0.00002255,-0.00000829,0.00000510,-0.00000363,-0.00002420,-0.000051
 51,0.00003275,-0.00004017,0.00006054,-0.00000721,-0.00000671,0.0000008
 4,0.00003737,-0.00005531,0.00001790,-0.00000510,0.00000381,0.00933022,
 -0.00136245,0.00051997,-0.00017078,-0.00023834,-0.00006919,-0.00001483
 ,-0.00001120,-0.00001229,0.00001810,-0.00001676,0.00000488,0.01078066,
 -0.02119064,-0.00053347,-0.00066528,-0.00144797,-0.00174333,-0.0006418
 3,0.00237090,0.00126018,-0.02896237,0.11465057,0.00005365,-0.00001572,
 0.00004493,-0.00000686,0.00001098,-0.00001375,0.00003101,0.00003180,-0
 .00001964,-0.00006644,0.00003117,-0.00002795,-0.00000648,0.00000712,-0
 .00001768,0.00025161,0.00002375,-0.00030424,-0.00051799,-0.00025061,-0
 .00010090,-0.00004546,0.00001301,-0.00001512,0.00002168,-0.00000972,0.
 00003695,-0.00002296,0.00000796,-0.00001092,-0.00001273,0.00000411,-0.
 00000537,0.00002967,-0.00001154,0.00001576,0.00022631,0.00007214,-0.00
 008443,0.00000030,-0.00000279,-0.00000695,-0.00001304,0.00000163,-0.00
 000606,-0.00003802,-0.00009636,-0.00005354,0.00002111,-0.00000103,0.00
 000581,0.00243342,0.00132706,0.00075728,0.00166411,-0.00321483,-0.0004
 5694,0.00098141,0.00077002,-0.00105902,0.00002164,0.00000593,-0.000030
 00,0.00000536,0.00000813,0.00000330,-0.00000649,-0.00000428,0.00001385
 ,0.00000740,-0.00000566,0.00000478,0.00000032,-0.00000398,0.00000289,-
 0.00001082,0.00000235,0.00002502,0.00003959,-0.00001833,0.00002064,-0.
 00001406,0.00000040,-0.00000013,-0.00000720,0.00000641,0.00000244,0.00
 000021,0.00001099,-0.00000437,0.00000826,0.00000217,0.00000600,0.00003
 108,0.00000252,0.00001913,-0.00007083,-0.00004692,0.00003977,0.0000042
 2,0.00000420,-0.00000464,-0.00001262,0.00002275,-0.00003435,0.00001581
 ,-0.00001520,0.00000044,-0.00001871,-0.00002789,0.00002557,-0.00004046
 ,-0.00004123,0.00000882,0.00006803,0.00002255,0.00020281,-0.00022135,-
 0.00013136,0.00031253,-0.00006952,0.00003894,-0.00008736,0.00062523,0.
 00003854,-0.00055389,-0.00013859,0.00022478,-0.00008787,0.00000317,0.0
 0008108,0.00005468,0.00017624,-0.00024459,0.00027613,0.00000330,-0.000
 01203,-0.00004970,0.00009061,-0.00007278,-0.00004021,-0.00003299,0.000
 05411,-0.00006072,-0.00000185,0.00000314,0.00000877,-0.00004083,-0.000
 03118,0.00005814,-0.00003080,0.00001170,-0.00001615,0.00000081,0.00000
 645,0.00000005,0.00003293,-0.00000581,0.00000116,-0.00004210,0.0000039
 6,0.00000646,0.00000168,0.00000629,0.00000217,0.00000096,-0.00000395,-
 0.00000490,-0.00004207,0.00001098,-0.00000731,0.00004192,-0.00000669,-
 0.00000105,-0.00000207,0.00002665,-0.00004048,0.00003351,-0.00001155,0
 .00001192,-0.00532129,0.00232275,0.00195638,0.00000847,-0.00004195,-0.
 00007227,0.00000345,-0.00000869,-0.00000672,0.00000625,-0.00000864,-0.
 00000018,0.03304281,-0.00557408,-0.02523004,0.00143484,-0.00043287,-0.
 01357945,0.00118270,0.00082386,-0.00041377,-0.03089812,-0.12209647,0.2
 1088046,0.00001001,-0.00001671,0.00001450,0.00000006,0.00000150,0.0000
 0090,-0.00003814,-0.00001720,-0.00002072,-0.00000038,-0.00001646,-0.00
 000073,-0.00000210,0.00000121,-0.00000270,0.00002607,0.00005632,0.0000
 2625,0.00016575,0.00006404,-0.00000949,-0.00001215,0.00000333,0.000007
 89,0.00001307,-0.00001106,-0.00000108,-0.00000618,-0.00000209,0.000008
 20,-0.00000539,0.00000129,0.00000188,0.00001867,0.00000073,-0.00000612
 ,0.00004214,-0.00000138,-0.00001873,-0.00000205,-0.00000304,-0.0000018
 4,-0.00000499,0.00000126,-0.00000060,-0.00006116,0.00009288,0.00004505
 ,0.00001011,-0.00000058,-0.00000104,-0.00009081,-0.00068247,-0.0003350
 4,-0.00073343,0.00140769,-0.00018297,0.00011082,-0.00014865,0.00071410
 ,-0.00001292,-0.00000300,-0.00000255,0.00000370,0.00000128,0.00000152,
 -0.00000157,-0.00000195,0.00000246,0.00000184,0.00000312,-0.00000774,0
 .00000469,-0.00000425,0.00000301,-0.00000922,-0.00000246,-0.00000908,0
 .00001411,-0.00000414,0.00000166,-0.00000204,0.00000020,0.00000170,-0.
 00000215,0.00000051,0.00000209,0.00000238,0.00000404,0.00000156,0.0000
 0220,0.00000248,0.00000142,0.00001268,0.00000075,0.00000790,-0.0000335
 4,-0.00001967,0.00001449,0.00000143,0.00000179,-0.00000389,0.00000048,
 0.00001025,-0.00001669,0.00000824,0.00000458,0.00000923,0.00000005,0.0
 0000271,0.00000213,0.00002774,0.00000651,0.00001782,-0.00006043,-0.000
 07005,0.00001496,0.00018737,0.00016125,-0.00015659,-0.00000721,0.00001
 916,-0.00002979,-0.00097349,0.00062899,0.00091564,0.00010369,-0.000170
 83,0.00008882,-0.00012722,-0.00012351,-0.00018572,0.00008285,0.0000694
 2,-0.00003523,0.00000069,0.00001556,-0.00000339,-0.00010203,0.00001613
 ,0.00002909,0.00001649,0.00001055,-0.00000566,0.00000961,-0.00000904,-
 0.00000761,-0.00002476,-0.00001177,0.00002254,-0.00001671,0.00000345,-
 0.00000138,-0.00000095,0.00000448,0.00000164,0.00001482,-0.00000358,0.
 00000235,-0.00001813,0.00000605,-0.00000664,-0.00000049,0.00000227,0.0
 0000198,-0.00000104,-0.00000275,-0.00000053,-0.00001668,0.00000276,-0.
 00000039,0.00001769,-0.00000285,-0.00000012,-0.00000064,0.00001241,-0.
 00001762,0.00001794,-0.00000621,0.00000639,-0.00121460,0.00122542,-0.0
 0025505,-0.00003481,-0.00002726,-0.00004391,0.00000300,-0.00000183,-0.
 00000098,0.00000150,-0.00000307,-0.00000092,-0.00317518,-0.00501544,0.
 00769104,0.00005280,0.00030385,0.00006717,0.00018707,-0.00025676,-0.00
 010687,-0.00928787,0.00775218,-0.00485236,0.01490873,0.00003626,-0.000
 03162,-0.00000886,-0.00000123,-0.00000006,0.00001093,0.00000445,0.0000
 4753,-0.00000721,-0.00000268,-0.00000436,0.00002882,0.00000030,-0.0000
 1338,0.00001230,-0.00025053,-0.00014420,0.00012529,0.00009065,0.000156
 67,0.00009822,-0.00002250,0.00000893,0.00004619,0.00000791,0.00001728,
 -0.00004207,0.00001307,-0.00000814,0.00001648,-0.00000278,-0.00001219,
 0.00001878,0.00001150,0.00002428,-0.00004281,-0.00009996,0.00000852,-0
 .00004913,-0.00000592,-0.00000664,0.00000414,-0.00000270,-0.00001029,0
 .00002242,-0.00009588,-0.00014362,0.00002496,-0.00001429,0.00000075,-0
 .00001306,-0.00077243,-0.00063250,-0.00035483,0.00009287,0.00020065,-0
 .00001647,0.00020456,0.00022713,0.00088422,-0.00003397,0.00000735,0.00
 002060,0.00000858,-0.00000310,0.00000008,0.00002759,0.00000046,-0.0000
 1801,-0.00002441,0.00000102,0.00000931,-0.00000572,0.00000819,-0.00000
 762,0.00001626,-0.00001269,0.00000088,-0.00000517,0.00001964,-0.000029
 71,0.00000303,-0.00000013,0.00000988,0.00000006,-0.00001262,0.00000510
 ,0.00000613,-0.00000054,0.00000654,-0.00000579,0.00000203,-0.00000403,
 -0.00002237,0.00000226,-0.00001237,0.00006010,0.00001475,0.00000023,-0
 .00000915,-0.00000588,-0.00000831,-0.00000207,-0.00000175,0.00000742,-
 0.00001589,-0.00000633,0.00001695,-0.00001559,-0.00000658,0.00001690,-
 0.00001128,0.00001709,-0.00000724,0.00006054,0.00004915,-0.00003587,0.
 00000432,-0.00011794,-0.00000544,-0.00000716,-0.00002128,0.00001858,0.
 00026823,-0.00019199,0.00096168,0.00012270,0.00031360,0.00023147,-0.00
 007550,-0.00012935,-0.00004552,0.00010323,-0.00006638,0.00023929,-0.00
 000030,0.00004205,-0.00003947,0.00011568,0.00013082,-0.00008481,-0.000
 04842,-0.00002430,-0.00001002,0.00001523,0.00000886,0.00000236,-0.0000
 0942,0.00000792,-0.00000457,-0.00000508,-0.00000956,0.00001878,-0.0000
 0505,0.00000052,0.00000740,-0.00000675,-0.00000595,0.00001207,0.000014
 63,0.00002187,-0.00004123,-0.00000225,-0.00000707,0.00000528,-0.000001
 80,-0.00000097,0.00000910,0.00000161,-0.00001056,0.00001601,-0.0000058
 4,-0.00000004,0.00000245,-0.00000198,-0.00000083,0.00000221,0.00000917
 ,-0.00000370,0.00000446,0.00253803,-0.00246335,-0.00147047,0.00007575,
 0.00009013,0.00002971,0.00000817,0.00000060,0.00000229,-0.00000545,0.0
 0000303,-0.00000269,0.00026209,0.00283556,-0.00507739,-0.00054425,0.00
 049593,0.00143920,0.00069183,-0.00025767,-0.00053858,0.00252933,-0.096
 44635,0.12640634,-0.00526232,0.09604933,0.00001268,-0.00001708,0.00001
 394,0.00000142,0.00000053,0.00000802,-0.00000792,0.00002884,-0.0000207
 9,0.00001553,0.00000134,0.00000800,0.00000045,-0.00001044,0.00000663,-
 0.00018731,-0.00021525,0.00018020,0.00012992,0.00016229,0.00009505,-0.
 00000948,0.00000688,0.00002743,-0.00000933,0.00001894,-0.00004574,0.00
 001202,-0.00000042,0.00000531,-0.00000030,-0.00000605,0.00001382,0.000
 01003,0.00001719,-0.00003274,-0.00007088,0.00000597,0.00002526,-0.0000
 0456,-0.00000397,0.00000325,-0.00000066,-0.00000778,0.00001271,0.00004
 355,-0.00000152,0.00000099,-0.00000496,0.00000152,-0.00000366,-0.00105
 443,-0.00064842,-0.00019837,0.00001008,0.00058911,-0.00003554,0.000248
 18,-0.00016976,0.00048171,-0.00003333,0.00000155,0.00001475,0.00000562
 ,-0.00000449,-0.00000047,0.00001895,-0.00000183,-0.00001442,-0.0000116
 7,-0.00000232,-0.00000122,-0.00000127,-0.00000019,-0.00000237,0.000007
 17,-0.00000698,-0.00000346,-0.00000573,0.00001587,-0.00002100,0.000004
 57,0.00000038,0.00000528,0.00000166,-0.00000760,0.00000224,0.00000461,
 0.00000046,0.00000472,-0.00000397,0.00000145,-0.00000289,-0.00000964,0
 .00000015,-0.00000590,0.00002290,0.00000728,-0.00000284,-0.00000454,-0
 .00000218,-0.00000374,0.00000083,-0.00000593,0.00000629,0.00000256,0.0
 0000930,0.00000186,-0.00001144,-0.00000672,-0.00000923,0.00000386,0.00
 001181,0.00001152,-0.00001615,-0.00001193,-0.00003799,0.00019320,0.000
 09265,-0.00005366,0.00000142,-0.00002130,0.00002525,-0.00042039,0.0010
 6167,-0.00029436,0.00009454,-0.00011236,0.00003408,0.00008244,0.000099
 31,-0.00000008,0.00031062,-0.00014994,0.00024474,-0.00000350,0.0000327
 1,-0.00003524,0.00003985,0.00007663,-0.00005454,-0.00004487,-0.0000283
 1,0.00003683,0.00001709,0.00000397,-0.00000498,-0.00000357,0.00001093,
 -0.00001499,-0.00000479,-0.00000703,0.00001458,-0.00000352,0.00000040,
 0.00000477,-0.00000479,-0.00000338,0.00000723,0.00001103,0.00001389,-0
 .00002756,-0.00000270,-0.00000403,0.00000342,-0.00000243,-0.00000097,0
 .00000574,0.00000300,-0.00000641,0.00000928,-0.00000413,0.,0.00000162,
 -0.00000043,-0.00000113,0.00000202,0.00000690,-0.00000266,0.00000309,-
 0.00102504,-0.00158924,0.00094433,0.00002989,-0.00000607,-0.00002252,0
 .00000592,0.00000231,0.00000324,-0.00000363,0.00000225,-0.00000190,0.0
 0220434,0.00238750,-0.00570618,0.00096587,0.00115690,0.00009206,0.0002
 0189,-0.00109011,-0.00030809,0.00164236,0.12114935,-0.17229693,-0.0033
 9559,-0.12281752,0.17690210\\0.00001515,0.00000353,0.00000704,-0.00000
 232,0.00000039,0.00000426,0.00000506,-0.00000002,-0.00000923,-0.000001
 91,0.00000329,0.00000017,-0.00000181,-0.00000139,-0.00000021,-0.000015
 90,-0.00000157,-0.00000400,0.00000359,-0.00000534,-0.00000337,-0.00000
 328,0.00000177,-0.00000059,-0.00000420,-0.00000017,0.00000080,0.000001
 88,-0.00000395,-0.00000138,-0.00000042,0.00000067,-0.00000006,0.000002
 38,-0.00000306,-0.00000075,0.00000257,-0.00000666,-0.00000148,0.000001
 52,0.00000114,0.00000392,-0.00000150,-0.00000263,-0.00000209,0.0000048
 6,0.00000338,-0.00000067,-0.00000370,-0.00000630,-0.00000754,0.0000184
 6,0.00001929,0.00000467,-0.00000439,-0.00000196,0.00000090,0.00001313,
 -0.00000684,0.00000034,0.00000124,-0.00000209,-0.00000420,-0.00000214,
 -0.00000136,0.00000354,-0.00000259,0.00000291,0.00000151,-0.00000063,-
 0.00000019,0.00000270,0.00000023,0.00000002,0.00000021,0.00000248,0.00
 000156,-0.00000021,-0.00000019,-0.00000202,-0.00000229,-0.00000030,-0.
 00000304,-0.00000026,0.00000010,-0.00000070,-0.00000128,0.00000298,-0.
 00000334,0.00000168,0.00000013,-0.00000112,-0.00000202,-0.00000349,-0.
 00000078,-0.00000199,0.00002025,-0.00000128,0.00000005,0.00000034,-0.0
 0000227,0.00000153,-0.00000046,-0.00000284,-0.00000068,-0.00000316,0.0
 0001314,0.00000546,0.00000638,0.00000232,-0.00000433,-0.00000687,0.000
 00446,0.00000052,0.00000766,-0.00002503,-0.00000907,0.00001081,0.00001
 704,0.00001783,-0.00000105,-0.00000012,-0.00000069,-0.00003348,0.00000
 511,0.00002370,0.00001212,-0.00000624,-0.00001946,0.00000514,0.0000050
 4,0.00000018,0.00001054,0.00001011,0.00000465,-0.00000269,0.00000050,0
 .00000078,-0.00000882,0.00000017,-0.00000493,-0.00000240,-0.00000549,0
 .00001285,0.00000122,0.00000867,-0.00000354,-0.00000577,0.00000370,-0.
 00000189,-0.00000040,0.00000266,-0.00000272,-0.00000107,0.00000038,0.0
 0000263,-0.00000072,-0.00000287,0.00000331,-0.00000215,-0.00000065,-0.
 00000197,0.00000009,0.00000072,0.00000162,0.00000034,0.,0.00000044,-0.
 00000024,-0.00000265,0.00000107,0.00000011,-0.00000151,0.00000129,-0.0
 0000477,0.00000003,0.00000244,-0.00000109,-0.00000156,0.00000335,0.000
 00286,0.00001520,-0.00000891,-0.00001903,-0.00000752,-0.00000491,0.000
 00036,-0.00000010,0.00000100,0.00000026,-0.00000307,0.00000125,-0.0000
 0173,-0.00003275,-0.00001083,0.00000237,0.00001071,0.00001245,0.000001
 64,0.00000455,-0.00000498,-0.00001755,0.00000645,-0.00000449,0.0000039
 6,0.00000162,-0.00000312\\\@
 The archive entry for this job was punched.


 A great many people think they are thinking when they
 are merely rearranging their prejudices.
                               -- William James
 Job cpu time:       7 days  5 hours 23 minutes 59.9 seconds.
 Elapsed time:       0 days  3 hours 46 minutes 57.4 seconds.
 File lengths (MBytes):  RWF=  17118 Int=      0 D2E=      0 Chk=    154 Scr=      2
 Normal termination of Gaussian 16 at Sat Feb 25 17:16:58 2023.
