 Entering Gaussian System, Link 0=/apps/GAU16/avx2/g16/g16
 Initial command:
 /apps/GAU16/avx2//g16/l1.exe "/localscratch/chegho/Gau-208061.inp" -scrdir="/localscratch/chegho/"
 Entering Link 1 = /apps/GAU16/avx2//g16/l1.exe PID=    208062.
  
 Copyright (c) 1988-2019, Gaussian, Inc.  All Rights Reserved.
  
 This is part of the Gaussian(R) 16 program.  It is based on
 the Gaussian(R) 09 system (copyright 2009, Gaussian, Inc.),
 the Gaussian(R) 03 system (copyright 2003, Gaussian, Inc.),
 the Gaussian(R) 98 system (copyright 1998, Gaussian, Inc.),
 the Gaussian(R) 94 system (copyright 1995, Gaussian, Inc.),
 the Gaussian 92(TM) system (copyright 1992, Gaussian, Inc.),
 the Gaussian 90(TM) system (copyright 1990, Gaussian, Inc.),
 the Gaussian 88(TM) system (copyright 1988, Gaussian, Inc.),
 the Gaussian 86(TM) system (copyright 1986, Carnegie Mellon
 University), and the Gaussian 82(TM) system (copyright 1983,
 Carnegie Mellon University). Gaussian is a federally registered
 trademark of Gaussian, Inc.
  
 This software contains proprietary and confidential information,
 including trade secrets, belonging to Gaussian, Inc.
  
 This software is provided under written license and may be
 used, copied, transmitted, or stored only in accord with that
 written license.
  
 The following legend is applicable only to US Government
 contracts under FAR:
  
                    RESTRICTED RIGHTS LEGEND
  
 Use, reproduction and disclosure by the US Government is
 subject to restrictions as set forth in subparagraphs (a)
 and (c) of the Commercial Computer Software - Restricted
 Rights clause in FAR 52.227-19.
  
 Gaussian, Inc.
 340 Quinnipiac St., Bldg. 40, Wallingford CT 06492
  
  
 ---------------------------------------------------------------
 Warning -- This program may not be used in any manner that
 competes with the business of Gaussian, Inc. or will provide
 assistance to any competitor of Gaussian, Inc.  The licensee
 of this program is prohibited from giving any competitor of
 Gaussian, Inc. access to this program.  By using this program,
 the user acknowledges that Gaussian, Inc. is engaged in the
 business of creating and licensing software in the field of
 computational chemistry and represents and warrants to the
 licensee that it is not a competitor of Gaussian, Inc. and that
 it will not use this program in any manner prohibited above.
 ---------------------------------------------------------------
  

 Cite this work as:
 Gaussian 16, Revision C.01,
 M. J. Frisch, G. W. Trucks, H. B. Schlegel, G. E. Scuseria, 
 M. A. Robb, J. R. Cheeseman, G. Scalmani, V. Barone, 
 G. A. Petersson, H. Nakatsuji, X. Li, M. Caricato, A. V. Marenich, 
 J. Bloino, B. G. Janesko, R. Gomperts, B. Mennucci, H. P. Hratchian, 
 J. V. Ortiz, A. F. Izmaylov, J. L. Sonnenberg, D. Williams-Young, 
 F. Ding, F. Lipparini, F. Egidi, J. Goings, B. Peng, A. Petrone, 
 T. Henderson, D. Ranasinghe, V. G. Zakrzewski, J. Gao, N. Rega, 
 G. Zheng, W. Liang, M. Hada, M. Ehara, K. Toyota, R. Fukuda, 
 J. Hasegawa, M. Ishida, T. Nakajima, Y. Honda, O. Kitao, H. Nakai, 
 T. Vreven, K. Throssell, J. A. Montgomery, Jr., J. E. Peralta, 
 F. Ogliaro, M. J. Bearpark, J. J. Heyd, E. N. Brothers, K. N. Kudin, 
 V. N. Staroverov, T. A. Keith, R. Kobayashi, J. Normand, 
 K. Raghavachari, A. P. Rendell, J. C. Burant, S. S. Iyengar, 
 J. Tomasi, M. Cossi, J. M. Millam, M. Klene, C. Adamo, R. Cammi, 
 J. W. Ochterski, R. L. Martin, K. Morokuma, O. Farkas, 
 J. B. Foresman, and D. J. Fox, Gaussian, Inc., Wallingford CT, 2019.
 
 ******************************************
 Gaussian 16:  ES64L-G16RevC.01  3-Jul-2019
                 9-Mar-2023 
 ******************************************
 %nprocshared=46
 Will use up to   46 processors via shared memory.
 %chk=Mo20S47_Szz_MoCO_f.chk
 %mem=100GB
 ----------------------------------------------------------
 # opt freq b3lyp/gen nosymm pseudo=read scf=maxcycles=1000
 ----------------------------------------------------------
 1/18=20,19=15,26=3,38=1/1,3;
 2/9=110,12=2,15=1,17=6,18=5,40=1/2;
 3/5=7,11=2,16=1,17=8,25=1,30=1,71=1,74=-5/1,2,3;
 4//1;
 5/5=2,7=1000,38=5/2;
 6/7=2,8=2,9=2,10=2,28=1/1;
 7/30=1/1,2,3,16;
 1/18=20,19=15,26=3/3(2);
 2/9=110,15=1/2;
 99//99;
 2/9=110,15=1/2;
 3/5=7,6=1,11=2,16=1,17=8,25=1,30=1,71=1,74=-5,82=7/1,2,3;
 4/5=5,16=3,69=1/1;
 5/5=2,7=1000,38=5/2;
 7/30=1/1,2,3,16;
 1/18=20,19=15,26=3/3(-5);
 2/9=110,15=1/2;
 6/7=2,8=2,9=2,10=2,19=2,28=1/1;
 99/9=1/99;
 -------------------
 Title Card Required
 -------------------
 Symbolic Z-matrix:
 Charge =  0 Multiplicity = 1
 42                    0.38214   1.12563   12.67506 
 16                    2.32155   2.25554   13.64528 
 16                   -0.68825   1.61216   14.88494 
 16                   -0.3968    0.69708   10.43665 
 16                    2.14447  -0.48062   12.09423 
 42                   -2.06481   2.36383   11.05453 
 16                   -2.83895   1.91467   8.79975 
 16                   -0.1276    3.40216   12.06559 
 42                    0.93821   2.69314   9.97926 
 16                    0.15485   2.25745   7.71374 
 16                    2.66146   1.07005   9.36138 
 42                    3.44963   1.51628   11.61121 
 42                   -1.49776   3.91479   8.33347 
 16                    5.4759    2.73051   12.64113 
 16                    2.90125   3.78212   10.94039 
 16                   -2.53391   4.66137   10.40968 
 16                    0.88927   6.64589   6.56384 
 42                   -4.44241   3.58356   9.45232 
 16                   -6.08162   1.75757   9.94312 
 16                   -5.55495   4.45656   11.52409 
 42                    2.81933   0.04203   14.34431 
 16                    5.0405    0.61847   15.38221 
 16                    1.82759   0.51509   16.3594 
 42                    1.43653   4.25597   7.26023 
 16                    0.61389   3.82781   4.88805 
 16                    0.4264    4.98641   9.32925 
 42                    3.96005   3.0623    8.88071 
 16                    3.1393    2.62269   6.62679 
 16                    3.4032    5.34063   8.21505 
 42                    4.29295   4.6584    6.09303 
 16                    6.66384   5.39267   6.52153 
 16                    3.83632   6.90382   5.4878 
 42                    1.87747   5.84244   4.52062 
 16                    3.5679    4.20506   3.8926 
 16                   -2.07121   6.5185    4.05909 
 42                   -0.98033   5.50018   5.57633 
 16                   -2.31178   3.50714   6.01347 
 16                   -2.06448   6.24549   7.63233 
 42                   -3.95024   5.10876   6.67866 
 16                   -5.2675    3.10519   7.10652 
 16                   -5.45002   5.78637   5.03703 
 42                   -4.97954   2.09064   12.20789 
 16                   -3.12499   3.15603   13.27172 
 16                   -3.54708   0.31379   11.51451 
 42                   -2.74818   0.83499   13.71096 
 16                   -1.07602  -0.90937   13.13053 
 16                   -3.93344   0.02279   15.25916 
 42                   -0.02485  -0.77282   15.27842 
 16                    1.63725  -2.16841   14.71959 
 16                   -1.09005  -1.75516   16.82296 
 42                    6.03255   0.51153   13.11313 
 16                    5.25407  -0.20652   11.0164 
 16                    8.48088   1.67711   10.63461 
 42                    6.37331   1.91721   10.51256 
 16                    5.73977   1.36277   8.19069 
 16                    6.00313   4.26173   9.84038 
 42                    6.95813   3.34613   7.90708 
 16                    9.07485   3.17163   7.86925 
 16                    1.53597   6.93215   2.73808 
 16                    8.07908   0.15606   13.52585 
 16                   -6.49531   1.49903   13.55595 
 16                   -5.09468   5.82488   8.68705 
 16                    4.94216  -1.2859    14.46629 
 16                    6.48173   3.56769   5.47311 
 42                   -7.38747   3.73236   10.16908 
 16                   -8.53811   4.50165   8.34223 
 16                   -8.86289   3.20458   11.58454 
 42                   -6.68819   4.99659   6.91578 
 6                    -8.01403   4.38936   5.48529 
 8                    -8.74481   4.05121   4.66448 
 

 GradGradGradGradGradGradGradGradGradGradGradGradGradGradGradGradGradGrad
 Berny optimization.
 Initialization pass.
                           ----------------------------
                           !    Initial Parameters    !
                           ! (Angstroms and Degrees)  !
 --------------------------                            --------------------------
 ! Name  Definition              Value          Derivative Info.                !
 --------------------------------------------------------------------------------
 ! R1    R(1,2)                  2.4453         estimate D2E/DX2                !
 ! R2    R(1,3)                  2.5032         estimate D2E/DX2                !
 ! R3    R(1,4)                  2.4085         estimate D2E/DX2                !
 ! R4    R(1,5)                  2.4542         estimate D2E/DX2                !
 ! R5    R(1,8)                  2.4112         estimate D2E/DX2                !
 ! R6    R(1,46)                 2.5446         estimate D2E/DX2                !
 ! R7    R(2,12)                 2.4406         estimate D2E/DX2                !
 ! R8    R(2,21)                 2.374          estimate D2E/DX2                !
 ! R9    R(3,45)                 2.4951         estimate D2E/DX2                !
 ! R10   R(3,48)                 2.5066         estimate D2E/DX2                !
 ! R11   R(4,6)                  2.4376         estimate D2E/DX2                !
 ! R12   R(4,9)                  2.4445         estimate D2E/DX2                !
 ! R13   R(5,12)                 2.434          estimate D2E/DX2                !
 ! R14   R(5,21)                 2.4065         estimate D2E/DX2                !
 ! R15   R(6,7)                  2.4259         estimate D2E/DX2                !
 ! R16   R(6,8)                  2.4193         estimate D2E/DX2                !
 ! R17   R(6,16)                 2.432          estimate D2E/DX2                !
 ! R18   R(6,18)                 3.1157         estimate D2E/DX2                !
 ! R19   R(6,43)                 2.5821         estimate D2E/DX2                !
 ! R20   R(6,44)                 2.5713         estimate D2E/DX2                !
 ! R21   R(7,13)                 2.4529         estimate D2E/DX2                !
 ! R22   R(7,18)                 2.4046         estimate D2E/DX2                !
 ! R23   R(8,9)                  2.4477         estimate D2E/DX2                !
 ! R24   R(9,10)                 2.4364         estimate D2E/DX2                !
 ! R25   R(9,11)                 2.4466         estimate D2E/DX2                !
 ! R26   R(9,15)                 2.442          estimate D2E/DX2                !
 ! R27   R(9,26)                 2.4379         estimate D2E/DX2                !
 ! R28   R(10,13)                2.4211         estimate D2E/DX2                !
 ! R29   R(10,24)                2.4171         estimate D2E/DX2                !
 ! R30   R(11,12)                2.4253         estimate D2E/DX2                !
 ! R31   R(11,27)                2.4262         estimate D2E/DX2                !
 ! R32   R(12,14)                2.577          estimate D2E/DX2                !
 ! R33   R(12,15)                2.4258         estimate D2E/DX2                !
 ! R34   R(12,52)                2.5647         estimate D2E/DX2                !
 ! R35   R(13,16)                2.4375         estimate D2E/DX2                !
 ! R36   R(13,26)                2.4171         estimate D2E/DX2                !
 ! R37   R(13,37)                2.4922         estimate D2E/DX2                !
 ! R38   R(13,38)                2.499          estimate D2E/DX2                !
 ! R39   R(14,51)                2.3359         estimate D2E/DX2                !
 ! R40   R(14,54)                2.449          estimate D2E/DX2                !
 ! R41   R(15,27)                2.4252         estimate D2E/DX2                !
 ! R42   R(16,18)                2.3918         estimate D2E/DX2                !
 ! R43   R(17,24)                2.5488         estimate D2E/DX2                !
 ! R44   R(17,33)                2.4077         estimate D2E/DX2                !
 ! R45   R(17,36)                2.4048         estimate D2E/DX2                !
 ! R46   R(18,19)                2.5024         estimate D2E/DX2                !
 ! R47   R(18,20)                2.5084         estimate D2E/DX2                !
 ! R48   R(18,40)                2.5323         estimate D2E/DX2                !
 ! R49   R(18,62)                2.4565         estimate D2E/DX2                !
 ! R50   R(18,65)                3.0347         estimate D2E/DX2                !
 ! R51   R(19,42)                2.5406         estimate D2E/DX2                !
 ! R52   R(19,65)                2.3783         estimate D2E/DX2                !
 ! R53   R(20,42)                2.5291         estimate D2E/DX2                !
 ! R54   R(20,65)                2.3914         estimate D2E/DX2                !
 ! R55   R(21,22)                2.5186         estimate D2E/DX2                !
 ! R56   R(21,23)                2.2952         estimate D2E/DX2                !
 ! R57   R(21,48)                3.1026         estimate D2E/DX2                !
 ! R58   R(21,49)                2.5346         estimate D2E/DX2                !
 ! R59   R(21,63)                2.5069         estimate D2E/DX2                !
 ! R60   R(22,51)                2.4788         estimate D2E/DX2                !
 ! R61   R(22,63)                2.1155         estimate D2E/DX2                !
 ! R62   R(23,48)                2.5018         estimate D2E/DX2                !
 ! R63   R(24,25)                2.547          estimate D2E/DX2                !
 ! R64   R(24,26)                2.4155         estimate D2E/DX2                !
 ! R65   R(24,28)                2.443          estimate D2E/DX2                !
 ! R66   R(24,29)                2.4405         estimate D2E/DX2                !
 ! R67   R(24,30)                3.1118         estimate D2E/DX2                !
 ! R68   R(25,33)                2.4063         estimate D2E/DX2                !
 ! R69   R(25,36)                2.4108         estimate D2E/DX2                !
 ! R70   R(27,28)                2.4387         estimate D2E/DX2                !
 ! R71   R(27,29)                2.438          estimate D2E/DX2                !
 ! R72   R(27,55)                2.5558         estimate D2E/DX2                !
 ! R73   R(27,56)                2.5561         estimate D2E/DX2                !
 ! R74   R(28,30)                2.4            estimate D2E/DX2                !
 ! R75   R(29,30)                2.4            estimate D2E/DX2                !
 ! R76   R(30,31)                2.5187         estimate D2E/DX2                !
 ! R77   R(30,32)                2.37           estimate D2E/DX2                !
 ! R78   R(30,33)                3.1159         estimate D2E/DX2                !
 ! R79   R(30,34)                2.3607         estimate D2E/DX2                !
 ! R80   R(30,64)                2.5228         estimate D2E/DX2                !
 ! R81   R(31,57)                2.4889         estimate D2E/DX2                !
 ! R82   R(31,64)                2.1126         estimate D2E/DX2                !
 ! R83   R(32,33)                2.4288         estimate D2E/DX2                !
 ! R84   R(33,34)                2.4358         estimate D2E/DX2                !
 ! R85   R(33,36)                3.0657         estimate D2E/DX2                !
 ! R86   R(33,59)                2.117          estimate D2E/DX2                !
 ! R87   R(35,36)                2.1281         estimate D2E/DX2                !
 ! R88   R(36,37)                2.4364         estimate D2E/DX2                !
 ! R89   R(36,38)                2.4409         estimate D2E/DX2                !
 ! R90   R(37,39)                2.3858         estimate D2E/DX2                !
 ! R91   R(38,39)                2.3995         estimate D2E/DX2                !
 ! R92   R(39,40)                2.4357         estimate D2E/DX2                !
 ! R93   R(39,41)                2.3245         estimate D2E/DX2                !
 ! R94   R(39,62)                2.42           estimate D2E/DX2                !
 ! R95   R(39,68)                2.7505         estimate D2E/DX2                !
 ! R96   R(40,68)                2.3732         estimate D2E/DX2                !
 ! R97   R(41,68)                2.3846         estimate D2E/DX2                !
 ! R98   R(42,43)                2.3888         estimate D2E/DX2                !
 ! R99   R(42,44)                2.3854         estimate D2E/DX2                !
 ! R100  R(42,45)                2.969          estimate D2E/DX2                !
 ! R101  R(42,61)                2.113          estimate D2E/DX2                !
 ! R102  R(43,45)                2.3921         estimate D2E/DX2                !
 ! R103  R(44,45)                2.3946         estimate D2E/DX2                !
 ! R104  R(45,46)                2.4851         estimate D2E/DX2                !
 ! R105  R(45,47)                2.1122         estimate D2E/DX2                !
 ! R106  R(46,48)                2.3952         estimate D2E/DX2                !
 ! R107  R(48,49)                2.2411         estimate D2E/DX2                !
 ! R108  R(48,50)                2.1178         estimate D2E/DX2                !
 ! R109  R(51,52)                2.349          estimate D2E/DX2                !
 ! R110  R(51,54)                2.9757         estimate D2E/DX2                !
 ! R111  R(51,60)                2.1178         estimate D2E/DX2                !
 ! R112  R(51,63)                2.5001         estimate D2E/DX2                !
 ! R113  R(52,54)                2.4529         estimate D2E/DX2                !
 ! R114  R(53,54)                2.1247         estimate D2E/DX2                !
 ! R115  R(54,55)                2.4698         estimate D2E/DX2                !
 ! R116  R(54,56)                2.4669         estimate D2E/DX2                !
 ! R117  R(54,57)                3.0286         estimate D2E/DX2                !
 ! R118  R(55,57)                2.3449         estimate D2E/DX2                !
 ! R119  R(56,57)                2.3426         estimate D2E/DX2                !
 ! R120  R(57,58)                2.1242         estimate D2E/DX2                !
 ! R121  R(57,64)                2.49           estimate D2E/DX2                !
 ! R122  R(62,68)                2.5224         estimate D2E/DX2                !
 ! R123  R(65,66)                2.292          estimate D2E/DX2                !
 ! R124  R(65,67)                2.1116         estimate D2E/DX2                !
 ! R125  R(66,68)                2.3879         estimate D2E/DX2                !
 ! R126  R(68,69)                2.0428         estimate D2E/DX2                !
 ! R127  R(69,70)                1.1498         estimate D2E/DX2                !
 ! A1    A(2,1,3)               84.2063         estimate D2E/DX2                !
 ! A2    A(2,1,4)              135.0302         estimate D2E/DX2                !
 ! A3    A(2,1,5)               80.0258         estimate D2E/DX2                !
 ! A4    A(2,1,8)               80.3102         estimate D2E/DX2                !
 ! A5    A(2,1,46)             138.8526         estimate D2E/DX2                !
 ! A6    A(3,1,4)              135.7881         estimate D2E/DX2                !
 ! A7    A(3,1,5)              130.0307         estimate D2E/DX2                !
 ! A8    A(3,1,8)               87.0902         estimate D2E/DX2                !
 ! A9    A(3,1,46)              75.6633         estimate D2E/DX2                !
 ! A10   A(4,1,5)               84.0209         estimate D2E/DX2                !
 ! A11   A(4,1,8)               82.2247         estimate D2E/DX2                !
 ! A12   A(4,1,46)              80.7192         estimate D2E/DX2                !
 ! A13   A(5,1,8)              135.2281         estimate D2E/DX2                !
 ! A14   A(5,1,46)              86.0114         estimate D2E/DX2                !
 ! A15   A(8,1,46)             132.7789         estimate D2E/DX2                !
 ! A16   A(1,2,12)              84.0274         estimate D2E/DX2                !
 ! A17   A(1,2,21)              81.5059         estimate D2E/DX2                !
 ! A18   A(12,2,21)             82.303          estimate D2E/DX2                !
 ! A19   A(1,3,45)              82.9409         estimate D2E/DX2                !
 ! A20   A(1,3,48)              80.8208         estimate D2E/DX2                !
 ! A21   A(45,3,48)             89.7704         estimate D2E/DX2                !
 ! A22   A(1,4,6)               82.1874         estimate D2E/DX2                !
 ! A23   A(1,4,9)               81.4879         estimate D2E/DX2                !
 ! A24   A(6,4,9)               82.1146         estimate D2E/DX2                !
 ! A25   A(1,5,12)              83.9766         estimate D2E/DX2                !
 ! A26   A(1,5,21)              80.6743         estimate D2E/DX2                !
 ! A27   A(12,5,21)             81.7782         estimate D2E/DX2                !
 ! A28   A(4,6,7)               81.7303         estimate D2E/DX2                !
 ! A29   A(4,6,8)               81.4583         estimate D2E/DX2                !
 ! A30   A(4,6,16)             135.2945         estimate D2E/DX2                !
 ! A31   A(4,6,18)             131.2612         estimate D2E/DX2                !
 ! A32   A(4,6,43)             135.1027         estimate D2E/DX2                !
 ! A33   A(4,6,44)              83.9531         estimate D2E/DX2                !
 ! A34   A(7,6,8)              136.3368         estimate D2E/DX2                !
 ! A35   A(7,6,16)              82.352          estimate D2E/DX2                !
 ! A36   A(7,6,43)             136.375          estimate D2E/DX2                !
 ! A37   A(7,6,44)              80.485          estimate D2E/DX2                !
 ! A38   A(8,6,16)              81.941          estimate D2E/DX2                !
 ! A39   A(8,6,18)             131.1413         estimate D2E/DX2                !
 ! A40   A(8,6,43)              80.6912         estimate D2E/DX2                !
 ! A41   A(8,6,44)             136.8039         estimate D2E/DX2                !
 ! A42   A(16,6,43)             81.8737         estimate D2E/DX2                !
 ! A43   A(16,6,44)            133.587          estimate D2E/DX2                !
 ! A44   A(18,6,43)             90.4662         estimate D2E/DX2                !
 ! A45   A(18,6,44)             87.9488         estimate D2E/DX2                !
 ! A46   A(43,6,44)             81.6228         estimate D2E/DX2                !
 ! A47   A(6,7,13)              81.4443         estimate D2E/DX2                !
 ! A48   A(13,7,18)             81.3887         estimate D2E/DX2                !
 ! A49   A(1,8,6)               82.5131         estimate D2E/DX2                !
 ! A50   A(1,8,9)               81.3679         estimate D2E/DX2                !
 ! A51   A(6,8,9)               82.4226         estimate D2E/DX2                !
 ! A52   A(4,9,8)               80.7491         estimate D2E/DX2                !
 ! A53   A(4,9,10)              81.5106         estimate D2E/DX2                !
 ! A54   A(4,9,11)              83.6969         estimate D2E/DX2                !
 ! A55   A(4,9,15)             136.8447         estimate D2E/DX2                !
 ! A56   A(4,9,26)             134.6941         estimate D2E/DX2                !
 ! A57   A(8,9,10)             134.7783         estimate D2E/DX2                !
 ! A58   A(8,9,11)             135.5706         estimate D2E/DX2                !
 ! A59   A(8,9,15)              83.4183         estimate D2E/DX2                !
 ! A60   A(8,9,26)              82.1472         estimate D2E/DX2                !
 ! A61   A(10,9,11)             82.7036         estimate D2E/DX2                !
 ! A62   A(10,9,15)            134.765          estimate D2E/DX2                !
 ! A63   A(10,9,26)             81.5349         estimate D2E/DX2                !
 ! A64   A(11,9,15)             80.156          estimate D2E/DX2                !
 ! A65   A(11,9,26)            134.7955         estimate D2E/DX2                !
 ! A66   A(15,9,26)             81.6179         estimate D2E/DX2                !
 ! A67   A(9,10,13)             81.8967         estimate D2E/DX2                !
 ! A68   A(9,10,24)             81.7275         estimate D2E/DX2                !
 ! A69   A(13,10,24)            81.0243         estimate D2E/DX2                !
 ! A70   A(9,11,12)             82.6784         estimate D2E/DX2                !
 ! A71   A(9,11,27)             83.2389         estimate D2E/DX2                !
 ! A72   A(12,11,27)            81.8806         estimate D2E/DX2                !
 ! A73   A(2,12,5)              80.5182         estimate D2E/DX2                !
 ! A74   A(2,12,11)            132.7386         estimate D2E/DX2                !
 ! A75   A(2,12,14)             83.5479         estimate D2E/DX2                !
 ! A76   A(2,12,15)             80.9707         estimate D2E/DX2                !
 ! A77   A(2,12,52)            136.2159         estimate D2E/DX2                !
 ! A78   A(5,12,11)             81.8875         estimate D2E/DX2                !
 ! A79   A(5,12,14)            136.7928         estimate D2E/DX2                !
 ! A80   A(5,12,15)            134.4239         estimate D2E/DX2                !
 ! A81   A(5,12,52)             82.6568         estimate D2E/DX2                !
 ! A82   A(11,12,14)           135.4767         estimate D2E/DX2                !
 ! A83   A(11,12,15)            80.9013         estimate D2E/DX2                !
 ! A84   A(11,12,52)            83.6795         estimate D2E/DX2                !
 ! A85   A(14,12,15)            81.2668         estimate D2E/DX2                !
 ! A86   A(14,12,52)            81.72           estimate D2E/DX2                !
 ! A87   A(15,12,52)           136.2474         estimate D2E/DX2                !
 ! A88   A(7,13,10)             82.1665         estimate D2E/DX2                !
 ! A89   A(7,13,16)             81.6865         estimate D2E/DX2                !
 ! A90   A(7,13,26)            135.9282         estimate D2E/DX2                !
 ! A91   A(7,13,37)             82.2413         estimate D2E/DX2                !
 ! A92   A(7,13,38)            133.6174         estimate D2E/DX2                !
 ! A93   A(10,13,16)           135.8755         estimate D2E/DX2                !
 ! A94   A(10,13,26)            82.2741         estimate D2E/DX2                !
 ! A95   A(10,13,37)            82.6865         estimate D2E/DX2                !
 ! A96   A(10,13,38)           136.1706         estimate D2E/DX2                !
 ! A97   A(16,13,26)            81.471          estimate D2E/DX2                !
 ! A98   A(16,13,37)           134.7616         estimate D2E/DX2                !
 ! A99   A(16,13,38)            81.7738         estimate D2E/DX2                !
 ! A100  A(26,13,37)           135.728          estimate D2E/DX2                !
 ! A101  A(26,13,38)            83.2592         estimate D2E/DX2                !
 ! A102  A(37,13,38)            79.4729         estimate D2E/DX2                !
 ! A103  A(12,14,51)            79.6614         estimate D2E/DX2                !
 ! A104  A(12,14,54)            77.5427         estimate D2E/DX2                !
 ! A105  A(9,15,12)             82.7636         estimate D2E/DX2                !
 ! A106  A(9,15,27)             83.3576         estimate D2E/DX2                !
 ! A107  A(12,15,27)            81.8903         estimate D2E/DX2                !
 ! A108  A(6,16,13)             81.634          estimate D2E/DX2                !
 ! A109  A(13,16,18)            81.9655         estimate D2E/DX2                !
 ! A110  A(24,17,33)            80.2603         estimate D2E/DX2                !
 ! A111  A(24,17,36)            80.3512         estimate D2E/DX2                !
 ! A112  A(6,18,19)             96.5085         estimate D2E/DX2                !
 ! A113  A(6,18,20)             92.8645         estimate D2E/DX2                !
 ! A114  A(6,18,40)            130.6208         estimate D2E/DX2                !
 ! A115  A(6,18,62)            136.0537         estimate D2E/DX2                !
 ! A116  A(6,18,65)            129.665          estimate D2E/DX2                !
 ! A117  A(7,18,16)             83.6437         estimate D2E/DX2                !
 ! A118  A(7,18,19)             89.0602         estimate D2E/DX2                !
 ! A119  A(7,18,20)            139.5915         estimate D2E/DX2                !
 ! A120  A(7,18,40)             80.489          estimate D2E/DX2                !
 ! A121  A(7,18,62)            136.5312         estimate D2E/DX2                !
 ! A122  A(7,18,65)            138.182          estimate D2E/DX2                !
 ! A123  A(16,18,19)           140.6247         estimate D2E/DX2                !
 ! A124  A(16,18,20)            82.3268         estimate D2E/DX2                !
 ! A125  A(16,18,40)           135.7185         estimate D2E/DX2                !
 ! A126  A(16,18,62)            85.7226         estimate D2E/DX2                !
 ! A127  A(16,18,65)           131.1281         estimate D2E/DX2                !
 ! A128  A(19,18,20)            78.547          estimate D2E/DX2                !
 ! A129  A(19,18,40)            80.2359         estimate D2E/DX2                !
 ! A130  A(19,18,62)           123.5682         estimate D2E/DX2                !
 ! A131  A(20,18,40)           133.3416         estimate D2E/DX2                !
 ! A132  A(20,18,62)            79.7464         estimate D2E/DX2                !
 ! A133  A(40,18,62)            78.3029         estimate D2E/DX2                !
 ! A134  A(40,18,65)            84.9431         estimate D2E/DX2                !
 ! A135  A(62,18,65)            76.7713         estimate D2E/DX2                !
 ! A136  A(18,19,42)            78.1719         estimate D2E/DX2                !
 ! A137  A(42,19,65)            92.5578         estimate D2E/DX2                !
 ! A138  A(18,20,42)            78.2774         estimate D2E/DX2                !
 ! A139  A(42,20,65)            92.5361         estimate D2E/DX2                !
 ! A140  A(2,21,5)              82.4375         estimate D2E/DX2                !
 ! A141  A(2,21,22)             95.3283         estimate D2E/DX2                !
 ! A142  A(2,21,23)             88.61           estimate D2E/DX2                !
 ! A143  A(2,21,48)             98.1241         estimate D2E/DX2                !
 ! A144  A(2,21,49)            139.3713         estimate D2E/DX2                !
 ! A145  A(2,21,63)            133.296          estimate D2E/DX2                !
 ! A146  A(5,21,22)            133.0262         estimate D2E/DX2                !
 ! A147  A(5,21,23)            138.1137         estimate D2E/DX2                !
 ! A148  A(5,21,48)             88.1312         estimate D2E/DX2                !
 ! A149  A(5,21,49)             79.5283         estimate D2E/DX2                !
 ! A150  A(5,21,63)             99.6667         estimate D2E/DX2                !
 ! A151  A(22,21,23)            88.4004         estimate D2E/DX2                !
 ! A152  A(22,21,48)           138.117          estimate D2E/DX2                !
 ! A153  A(22,21,49)           123.3597         estimate D2E/DX2                !
 ! A154  A(23,21,49)            81.2707         estimate D2E/DX2                !
 ! A155  A(23,21,63)           115.6164         estimate D2E/DX2                !
 ! A156  A(48,21,63)           128.4983         estimate D2E/DX2                !
 ! A157  A(49,21,63)            85.7422         estimate D2E/DX2                !
 ! A158  A(21,22,51)            88.0425         estimate D2E/DX2                !
 ! A159  A(10,24,17)           135.4552         estimate D2E/DX2                !
 ! A160  A(10,24,25)            82.2122         estimate D2E/DX2                !
 ! A161  A(10,24,26)            82.3901         estimate D2E/DX2                !
 ! A162  A(10,24,28)            82.2681         estimate D2E/DX2                !
 ! A163  A(10,24,29)           136.168          estimate D2E/DX2                !
 ! A164  A(10,24,30)           131.6083         estimate D2E/DX2                !
 ! A165  A(17,24,25)            80.4335         estimate D2E/DX2                !
 ! A166  A(17,24,26)            81.9922         estimate D2E/DX2                !
 ! A167  A(17,24,28)           134.8863         estimate D2E/DX2                !
 ! A168  A(17,24,29)            82.1361         estimate D2E/DX2                !
 ! A169  A(17,24,30)            88.4727         estimate D2E/DX2                !
 ! A170  A(25,24,26)           135.5224         estimate D2E/DX2                !
 ! A171  A(25,24,28)            82.6022         estimate D2E/DX2                !
 ! A172  A(25,24,29)           134.3768         estimate D2E/DX2                !
 ! A173  A(25,24,30)            88.2163         estimate D2E/DX2                !
 ! A174  A(26,24,28)           135.7032         estimate D2E/DX2                !
 ! A175  A(26,24,29)            82.3845         estimate D2E/DX2                !
 ! A176  A(26,24,30)           131.7616         estimate D2E/DX2                !
 ! A177  A(28,24,29)            80.6131         estimate D2E/DX2                !
 ! A178  A(24,25,33)            80.3211         estimate D2E/DX2                !
 ! A179  A(24,25,36)            80.2745         estimate D2E/DX2                !
 ! A180  A(9,26,13)             81.9478         estimate D2E/DX2                !
 ! A181  A(9,26,24)             81.7283         estimate D2E/DX2                !
 ! A182  A(13,26,24)            81.1385         estimate D2E/DX2                !
 ! A183  A(11,27,15)            80.8969         estimate D2E/DX2                !
 ! A184  A(11,27,28)            81.6596         estimate D2E/DX2                !
 ! A185  A(11,27,29)           134.3628         estimate D2E/DX2                !
 ! A186  A(11,27,55)            83.1173         estimate D2E/DX2                !
 ! A187  A(11,27,56)           137.6238         estimate D2E/DX2                !
 ! A188  A(15,27,28)           133.7509         estimate D2E/DX2                !
 ! A189  A(15,27,29)            81.6512         estimate D2E/DX2                !
 ! A190  A(15,27,55)           136.9441         estimate D2E/DX2                !
 ! A191  A(15,27,56)            83.7323         estimate D2E/DX2                !
 ! A192  A(28,27,29)            80.7489         estimate D2E/DX2                !
 ! A193  A(28,27,55)            82.2389         estimate D2E/DX2                !
 ! A194  A(28,27,56)           134.4747         estimate D2E/DX2                !
 ! A195  A(29,27,55)           134.9713         estimate D2E/DX2                !
 ! A196  A(29,27,56)            81.1741         estimate D2E/DX2                !
 ! A197  A(55,27,56)            81.7672         estimate D2E/DX2                !
 ! A198  A(24,28,27)            82.7855         estimate D2E/DX2                !
 ! A199  A(27,28,30)            83.7347         estimate D2E/DX2                !
 ! A200  A(24,29,27)            82.8509         estimate D2E/DX2                !
 ! A201  A(27,29,30)            83.7477         estimate D2E/DX2                !
 ! A202  A(24,30,31)           146.9234         estimate D2E/DX2                !
 ! A203  A(24,30,32)            92.3757         estimate D2E/DX2                !
 ! A204  A(24,30,33)            61.7605         estimate D2E/DX2                !
 ! A205  A(24,30,34)            92.4565         estimate D2E/DX2                !
 ! A206  A(24,30,64)           146.3706         estimate D2E/DX2                !
 ! A207  A(28,30,29)            82.3147         estimate D2E/DX2                !
 ! A208  A(28,30,31)           131.4467         estimate D2E/DX2                !
 ! A209  A(28,30,32)           140.1586         estimate D2E/DX2                !
 ! A210  A(28,30,33)            93.5498         estimate D2E/DX2                !
 ! A211  A(28,30,34)            84.0755         estimate D2E/DX2                !
 ! A212  A(28,30,64)            96.026          estimate D2E/DX2                !
 ! A213  A(29,30,31)            96.6427         estimate D2E/DX2                !
 ! A214  A(29,30,32)            83.3987         estimate D2E/DX2                !
 ! A215  A(29,30,33)            92.9104         estimate D2E/DX2                !
 ! A216  A(29,30,34)           139.894          estimate D2E/DX2                !
 ! A217  A(29,30,64)           131.437          estimate D2E/DX2                !
 ! A218  A(31,30,32)            87.0541         estimate D2E/DX2                !
 ! A219  A(31,30,33)           134.8122         estimate D2E/DX2                !
 ! A220  A(31,30,34)           120.2425         estimate D2E/DX2                !
 ! A221  A(32,30,34)            83.3808         estimate D2E/DX2                !
 ! A222  A(32,30,64)           120.9323         estimate D2E/DX2                !
 ! A223  A(33,30,64)           135.4668         estimate D2E/DX2                !
 ! A224  A(34,30,64)            87.3865         estimate D2E/DX2                !
 ! A225  A(30,31,57)            88.0687         estimate D2E/DX2                !
 ! A226  A(17,33,25)            86.2319         estimate D2E/DX2                !
 ! A227  A(17,33,30)            90.9589         estimate D2E/DX2                !
 ! A228  A(17,33,32)            81.2142         estimate D2E/DX2                !
 ! A229  A(17,33,34)           136.7172         estimate D2E/DX2                !
 ! A230  A(17,33,59)           118.4624         estimate D2E/DX2                !
 ! A231  A(25,33,30)            90.6801         estimate D2E/DX2                !
 ! A232  A(25,33,32)           136.7664         estimate D2E/DX2                !
 ! A233  A(25,33,34)            80.851          estimate D2E/DX2                !
 ! A234  A(25,33,59)           118.348          estimate D2E/DX2                !
 ! A235  A(30,33,36)           120.4264         estimate D2E/DX2                !
 ! A236  A(30,33,59)           138.2084         estimate D2E/DX2                !
 ! A237  A(32,33,34)            80.6021         estimate D2E/DX2                !
 ! A238  A(32,33,36)           131.565          estimate D2E/DX2                !
 ! A239  A(32,33,59)           103.9139         estimate D2E/DX2                !
 ! A240  A(34,33,36)           131.3513         estimate D2E/DX2                !
 ! A241  A(34,33,59)           103.9384         estimate D2E/DX2                !
 ! A242  A(36,33,59)           101.3645         estimate D2E/DX2                !
 ! A243  A(17,36,25)            86.1943         estimate D2E/DX2                !
 ! A244  A(17,36,35)           117.6            estimate D2E/DX2                !
 ! A245  A(17,36,37)           137.8083         estimate D2E/DX2                !
 ! A246  A(17,36,38)            81.6017         estimate D2E/DX2                !
 ! A247  A(25,36,35)           117.8632         estimate D2E/DX2                !
 ! A248  A(25,36,37)            81.0915         estimate D2E/DX2                !
 ! A249  A(25,36,38)           138.245          estimate D2E/DX2                !
 ! A250  A(33,36,35)           100.306          estimate D2E/DX2                !
 ! A251  A(33,36,37)           131.4931         estimate D2E/DX2                !
 ! A252  A(33,36,38)           132.0672         estimate D2E/DX2                !
 ! A253  A(35,36,37)           103.8404         estimate D2E/DX2                !
 ! A254  A(35,36,38)           103.1048         estimate D2E/DX2                !
 ! A255  A(37,36,38)            81.7163         estimate D2E/DX2                !
 ! A256  A(13,37,36)            81.647          estimate D2E/DX2                !
 ! A257  A(13,37,39)            81.6606         estimate D2E/DX2                !
 ! A258  A(36,37,39)            82.8873         estimate D2E/DX2                !
 ! A259  A(13,38,36)            81.4206         estimate D2E/DX2                !
 ! A260  A(13,38,39)            81.2515         estimate D2E/DX2                !
 ! A261  A(36,38,39)            82.5096         estimate D2E/DX2                !
 ! A262  A(37,39,38)            83.6339         estimate D2E/DX2                !
 ! A263  A(37,39,40)            82.4249         estimate D2E/DX2                !
 ! A264  A(37,39,41)           116.2236         estimate D2E/DX2                !
 ! A265  A(37,39,62)           139.0094         estimate D2E/DX2                !
 ! A266  A(37,39,68)           132.8653         estimate D2E/DX2                !
 ! A267  A(38,39,40)           138.1499         estimate D2E/DX2                !
 ! A268  A(38,39,41)           130.5143         estimate D2E/DX2                !
 ! A269  A(38,39,62)            84.3543         estimate D2E/DX2                !
 ! A270  A(38,39,68)           140.1175         estimate D2E/DX2                !
 ! A271  A(40,39,41)            90.8546         estimate D2E/DX2                !
 ! A272  A(40,39,62)            80.9019         estimate D2E/DX2                !
 ! A273  A(41,39,62)           101.2286         estimate D2E/DX2                !
 ! A274  A(18,40,39)            80.2772         estimate D2E/DX2                !
 ! A275  A(18,40,68)            96.8313         estimate D2E/DX2                !
 ! A276  A(19,42,20)            77.4629         estimate D2E/DX2                !
 ! A277  A(19,42,43)           142.3956         estimate D2E/DX2                !
 ! A278  A(19,42,44)            84.4749         estimate D2E/DX2                !
 ! A279  A(19,42,45)           136.2083         estimate D2E/DX2                !
 ! A280  A(19,42,61)           102.7578         estimate D2E/DX2                !
 ! A281  A(20,42,43)            83.0975         estimate D2E/DX2                !
 ! A282  A(20,42,44)           139.0149         estimate D2E/DX2                !
 ! A283  A(20,42,45)           134.7094         estimate D2E/DX2                !
 ! A284  A(20,42,61)           105.7362         estimate D2E/DX2                !
 ! A285  A(43,42,44)            89.7397         estimate D2E/DX2                !
 ! A286  A(43,42,61)           113.4332         estimate D2E/DX2                !
 ! A287  A(44,42,61)           114.0586         estimate D2E/DX2                !
 ! A288  A(45,42,61)            95.6087         estimate D2E/DX2                !
 ! A289  A(6,43,42)             78.4352         estimate D2E/DX2                !
 ! A290  A(6,43,45)             78.1886         estimate D2E/DX2                !
 ! A291  A(6,44,42)             78.7135         estimate D2E/DX2                !
 ! A292  A(6,44,45)             78.3596         estimate D2E/DX2                !
 ! A293  A(3,45,42)            136.631          estimate D2E/DX2                !
 ! A294  A(3,45,43)             85.0791         estimate D2E/DX2                !
 ! A295  A(3,45,44)            140.787          estimate D2E/DX2                !
 ! A296  A(3,45,46)             76.8804         estimate D2E/DX2                !
 ! A297  A(3,45,47)            103.7788         estimate D2E/DX2                !
 ! A298  A(42,45,46)           133.1818         estimate D2E/DX2                !
 ! A299  A(42,45,47)            96.4287         estimate D2E/DX2                !
 ! A300  A(43,45,44)            89.4389         estimate D2E/DX2                !
 ! A301  A(43,45,46)           138.0882         estimate D2E/DX2                !
 ! A302  A(43,45,47)           114.7905         estimate D2E/DX2                !
 ! A303  A(44,45,46)            81.806          estimate D2E/DX2                !
 ! A304  A(44,45,47)           113.6663         estimate D2E/DX2                !
 ! A305  A(46,45,47)           106.1927         estimate D2E/DX2                !
 ! A306  A(1,46,45)             82.3014         estimate D2E/DX2                !
 ! A307  A(1,46,48)             82.1509         estimate D2E/DX2                !
 ! A308  A(45,46,48)            92.627          estimate D2E/DX2                !
 ! A309  A(3,48,21)             86.8736         estimate D2E/DX2                !
 ! A310  A(3,48,23)             76.9367         estimate D2E/DX2                !
 ! A311  A(3,48,46)             78.3066         estimate D2E/DX2                !
 ! A312  A(3,48,49)            138.5601         estimate D2E/DX2                !
 ! A313  A(3,48,50)            115.0053         estimate D2E/DX2                !
 ! A314  A(21,48,46)            98.4702         estimate D2E/DX2                !
 ! A315  A(21,48,50)           143.3671         estimate D2E/DX2                !
 ! A316  A(23,48,46)           137.8833         estimate D2E/DX2                !
 ! A317  A(23,48,49)            83.0598         estimate D2E/DX2                !
 ! A318  A(23,48,50)           107.2226         estimate D2E/DX2                !
 ! A319  A(46,48,49)            93.8057         estimate D2E/DX2                !
 ! A320  A(46,48,50)           114.0054         estimate D2E/DX2                !
 ! A321  A(49,48,50)           105.4283         estimate D2E/DX2                !
 ! A322  A(14,51,22)            92.7864         estimate D2E/DX2                !
 ! A323  A(14,51,52)            91.779          estimate D2E/DX2                !
 ! A324  A(14,51,60)           115.4107         estimate D2E/DX2                !
 ! A325  A(14,51,63)           133.5013         estimate D2E/DX2                !
 ! A326  A(22,51,52)           134.2382         estimate D2E/DX2                !
 ! A327  A(22,51,54)           145.6335         estimate D2E/DX2                !
 ! A328  A(22,51,60)           102.4504         estimate D2E/DX2                !
 ! A329  A(52,51,60)           116.2892         estimate D2E/DX2                !
 ! A330  A(52,51,63)            96.8231         estimate D2E/DX2                !
 ! A331  A(54,51,60)            97.9864         estimate D2E/DX2                !
 ! A332  A(54,51,63)           149.6039         estimate D2E/DX2                !
 ! A333  A(60,51,63)           101.2629         estimate D2E/DX2                !
 ! A334  A(12,52,51)            79.6779         estimate D2E/DX2                !
 ! A335  A(12,52,54)            77.7067         estimate D2E/DX2                !
 ! A336  A(14,54,52)            86.663          estimate D2E/DX2                !
 ! A337  A(14,54,53)           110.5538         estimate D2E/DX2                !
 ! A338  A(14,54,55)           142.9069         estimate D2E/DX2                !
 ! A339  A(14,54,56)            82.3121         estimate D2E/DX2                !
 ! A340  A(14,54,57)           131.4379         estimate D2E/DX2                !
 ! A341  A(51,54,53)            90.5735         estimate D2E/DX2                !
 ! A342  A(51,54,55)           133.3271         estimate D2E/DX2                !
 ! A343  A(51,54,56)           132.0584         estimate D2E/DX2                !
 ! A344  A(52,54,53)           110.0579         estimate D2E/DX2                !
 ! A345  A(52,54,55)            83.2057         estimate D2E/DX2                !
 ! A346  A(52,54,56)           144.1292         estimate D2E/DX2                !
 ! A347  A(52,54,57)           132.323          estimate D2E/DX2                !
 ! A348  A(53,54,55)           106.4441         estimate D2E/DX2                !
 ! A349  A(53,54,56)           105.7775         estimate D2E/DX2                !
 ! A350  A(53,54,57)            84.9052         estimate D2E/DX2                !
 ! A351  A(55,54,56)            85.3366         estimate D2E/DX2                !
 ! A352  A(27,55,54)            77.0283         estimate D2E/DX2                !
 ! A353  A(27,55,57)            80.3293         estimate D2E/DX2                !
 ! A354  A(27,56,54)            77.0728         estimate D2E/DX2                !
 ! A355  A(27,56,57)            80.3636         estimate D2E/DX2                !
 ! A356  A(31,57,54)           147.5689         estimate D2E/DX2                !
 ! A357  A(31,57,55)           134.5379         estimate D2E/DX2                !
 ! A358  A(31,57,56)            95.1545         estimate D2E/DX2                !
 ! A359  A(31,57,58)           100.1052         estimate D2E/DX2                !
 ! A360  A(54,57,58)            99.7282         estimate D2E/DX2                !
 ! A361  A(54,57,64)           147.7755         estimate D2E/DX2                !
 ! A362  A(55,57,56)            91.0862         estimate D2E/DX2                !
 ! A363  A(55,57,58)           116.7699         estimate D2E/DX2                !
 ! A364  A(55,57,64)            95.3983         estimate D2E/DX2                !
 ! A365  A(56,57,58)           116.9375         estimate D2E/DX2                !
 ! A366  A(56,57,64)           133.9408         estimate D2E/DX2                !
 ! A367  A(58,57,64)           100.4015         estimate D2E/DX2                !
 ! A368  A(18,62,39)            82.1243         estimate D2E/DX2                !
 ! A369  A(18,62,68)            94.9848         estimate D2E/DX2                !
 ! A370  A(21,63,51)            87.8309         estimate D2E/DX2                !
 ! A371  A(30,64,57)            87.9521         estimate D2E/DX2                !
 ! A372  A(18,65,66)           108.3851         estimate D2E/DX2                !
 ! A373  A(18,65,67)           145.5021         estimate D2E/DX2                !
 ! A374  A(19,65,20)            83.3697         estimate D2E/DX2                !
 ! A375  A(19,65,66)           118.5958         estimate D2E/DX2                !
 ! A376  A(19,65,67)           103.8746         estimate D2E/DX2                !
 ! A377  A(20,65,66)           137.2816         estimate D2E/DX2                !
 ! A378  A(20,65,67)           103.3735         estimate D2E/DX2                !
 ! A379  A(66,65,67)           105.5099         estimate D2E/DX2                !
 ! A380  A(65,66,68)            99.0201         estimate D2E/DX2                !
 ! A381  A(39,68,66)           146.216          estimate D2E/DX2                !
 ! A382  A(39,68,69)           126.715          estimate D2E/DX2                !
 ! A383  A(40,68,41)            90.9426         estimate D2E/DX2                !
 ! A384  A(40,68,62)            80.0429         estimate D2E/DX2                !
 ! A385  A(40,68,66)           104.5114         estimate D2E/DX2                !
 ! A386  A(40,68,69)           102.0            estimate D2E/DX2                !
 ! A387  A(41,68,62)            96.6884         estimate D2E/DX2                !
 ! A388  A(41,68,66)           160.3119         estimate D2E/DX2                !
 ! A389  A(41,68,69)            83.3235         estimate D2E/DX2                !
 ! A390  A(62,68,66)            97.9321         estimate D2E/DX2                !
 ! A391  A(66,68,69)            81.5981         estimate D2E/DX2                !
 ! A392  L(51,54,57,53,-1)     175.4787         estimate D2E/DX2                !
 ! A393  L(62,68,69,40,-1)     182.0429         estimate D2E/DX2                !
 ! A394  L(68,69,70,59,-1)     178.8896         estimate D2E/DX2                !
 ! A395  L(51,54,57,53,-2)     180.6725         estimate D2E/DX2                !
 ! A396  L(62,68,69,40,-2)     180.0            estimate D2E/DX2                !
 ! A397  L(68,69,70,59,-2)     180.0582         estimate D2E/DX2                !
 ! D1    D(3,1,2,12)           172.8457         estimate D2E/DX2                !
 ! D2    D(3,1,2,21)            89.7687         estimate D2E/DX2                !
 ! D3    D(4,1,2,12)           -30.5434         estimate D2E/DX2                !
 ! D4    D(4,1,2,21)          -113.6204         estimate D2E/DX2                !
 ! D5    D(5,1,2,12)            40.4486         estimate D2E/DX2                !
 ! D6    D(5,1,2,21)           -42.6285         estimate D2E/DX2                !
 ! D7    D(8,1,2,12)           -99.1278         estimate D2E/DX2                !
 ! D8    D(8,1,2,21)           177.7951         estimate D2E/DX2                !
 ! D9    D(46,1,2,12)          112.4741         estimate D2E/DX2                !
 ! D10   D(46,1,2,21)           29.397          estimate D2E/DX2                !
 ! D11   D(2,1,3,45)           170.2223         estimate D2E/DX2                !
 ! D12   D(2,1,3,48)           -98.8655         estimate D2E/DX2                !
 ! D13   D(4,1,3,45)            13.9465         estimate D2E/DX2                !
 ! D14   D(4,1,3,48)           104.8588         estimate D2E/DX2                !
 ! D15   D(5,1,3,45)          -117.9935         estimate D2E/DX2                !
 ! D16   D(5,1,3,48)           -27.0813         estimate D2E/DX2                !
 ! D17   D(8,1,3,45)            89.6753         estimate D2E/DX2                !
 ! D18   D(8,1,3,48)          -179.4124         estimate D2E/DX2                !
 ! D19   D(46,1,3,45)          -45.9595         estimate D2E/DX2                !
 ! D20   D(46,1,3,48)           44.9527         estimate D2E/DX2                !
 ! D21   D(2,1,4,6)           -108.5167         estimate D2E/DX2                !
 ! D22   D(2,1,4,9)            -25.3791         estimate D2E/DX2                !
 ! D23   D(3,1,4,6)             36.9851         estimate D2E/DX2                !
 ! D24   D(3,1,4,9)            120.1227         estimate D2E/DX2                !
 ! D25   D(5,1,4,6)           -177.952          estimate D2E/DX2                !
 ! D26   D(5,1,4,9)            -94.8144         estimate D2E/DX2                !
 ! D27   D(8,1,4,6)            -40.6681         estimate D2E/DX2                !
 ! D28   D(8,1,4,9)             42.4695         estimate D2E/DX2                !
 ! D29   D(46,1,4,6)            95.1292         estimate D2E/DX2                !
 ! D30   D(46,1,4,9)           178.2668         estimate D2E/DX2                !
 ! D31   D(2,1,5,12)           -40.5855         estimate D2E/DX2                !
 ! D32   D(2,1,5,21)            42.0375         estimate D2E/DX2                !
 ! D33   D(3,1,5,12)          -114.2307         estimate D2E/DX2                !
 ! D34   D(3,1,5,21)           -31.6077         estimate D2E/DX2                !
 ! D35   D(4,1,5,12)            97.2043         estimate D2E/DX2                !
 ! D36   D(4,1,5,21)           179.8273         estimate D2E/DX2                !
 ! D37   D(8,1,5,12)            24.5849         estimate D2E/DX2                !
 ! D38   D(8,1,5,21)           107.2079         estimate D2E/DX2                !
 ! D39   D(46,1,5,12)          178.2733         estimate D2E/DX2                !
 ! D40   D(46,1,5,21)          -99.1037         estimate D2E/DX2                !
 ! D41   D(2,1,8,6)            179.3948         estimate D2E/DX2                !
 ! D42   D(2,1,8,9)             95.9738         estimate D2E/DX2                !
 ! D43   D(3,1,8,6)            -95.9909         estimate D2E/DX2                !
 ! D44   D(3,1,8,9)           -179.412          estimate D2E/DX2                !
 ! D45   D(4,1,8,6)             41.0038         estimate D2E/DX2                !
 ! D46   D(4,1,8,9)            -42.4173         estimate D2E/DX2                !
 ! D47   D(5,1,8,6)            114.3306         estimate D2E/DX2                !
 ! D48   D(5,1,8,9)             30.9096         estimate D2E/DX2                !
 ! D49   D(46,1,8,6)           -28.6245         estimate D2E/DX2                !
 ! D50   D(46,1,8,9)          -112.0455         estimate D2E/DX2                !
 ! D51   D(2,1,46,45)          109.4874         estimate D2E/DX2                !
 ! D52   D(2,1,46,48)           15.742          estimate D2E/DX2                !
 ! D53   D(3,1,46,45)           46.2845         estimate D2E/DX2                !
 ! D54   D(3,1,46,48)          -47.4609         estimate D2E/DX2                !
 ! D55   D(4,1,46,45)          -96.0303         estimate D2E/DX2                !
 ! D56   D(4,1,46,48)          170.2243         estimate D2E/DX2                !
 ! D57   D(5,1,46,45)          179.387          estimate D2E/DX2                !
 ! D58   D(5,1,46,48)           85.6416         estimate D2E/DX2                !
 ! D59   D(8,1,46,45)          -25.784          estimate D2E/DX2                !
 ! D60   D(8,1,46,48)         -119.5294         estimate D2E/DX2                !
 ! D61   D(1,2,12,5)           -40.7826         estimate D2E/DX2                !
 ! D62   D(1,2,12,11)           28.7835         estimate D2E/DX2                !
 ! D63   D(1,2,12,14)          179.5255         estimate D2E/DX2                !
 ! D64   D(1,2,12,15)           97.3852         estimate D2E/DX2                !
 ! D65   D(1,2,12,52)         -109.5883         estimate D2E/DX2                !
 ! D66   D(21,2,12,5)           41.4169         estimate D2E/DX2                !
 ! D67   D(21,2,12,11)         110.9829         estimate D2E/DX2                !
 ! D68   D(21,2,12,14)         -98.275          estimate D2E/DX2                !
 ! D69   D(21,2,12,15)         179.5847         estimate D2E/DX2                !
 ! D70   D(21,2,12,52)         -27.3888         estimate D2E/DX2                !
 ! D71   D(1,2,21,5)            43.3292         estimate D2E/DX2                !
 ! D72   D(1,2,21,22)          176.0889         estimate D2E/DX2                !
 ! D73   D(1,2,21,23)          -95.6478         estimate D2E/DX2                !
 ! D74   D(1,2,21,48)          -43.6796         estimate D2E/DX2                !
 ! D75   D(1,2,21,49)          -20.8022         estimate D2E/DX2                !
 ! D76   D(1,2,21,63)          139.5087         estimate D2E/DX2                !
 ! D77   D(12,2,21,5)          -41.7385         estimate D2E/DX2                !
 ! D78   D(12,2,21,22)          91.0212         estimate D2E/DX2                !
 ! D79   D(12,2,21,23)         179.2845         estimate D2E/DX2                !
 ! D80   D(12,2,21,48)        -128.7473         estimate D2E/DX2                !
 ! D81   D(12,2,21,49)        -105.8699         estimate D2E/DX2                !
 ! D82   D(12,2,21,63)          54.441          estimate D2E/DX2                !
 ! D83   D(1,3,45,42)          -93.8682         estimate D2E/DX2                !
 ! D84   D(1,3,45,43)          -94.8328         estimate D2E/DX2                !
 ! D85   D(1,3,45,44)          -11.7864         estimate D2E/DX2                !
 ! D86   D(1,3,45,46)           47.0744         estimate D2E/DX2                !
 ! D87   D(1,3,45,47)          150.8236         estimate D2E/DX2                !
 ! D88   D(48,3,45,42)        -174.6469         estimate D2E/DX2                !
 ! D89   D(48,3,45,43)        -175.6116         estimate D2E/DX2                !
 ! D90   D(48,3,45,44)         -92.5651         estimate D2E/DX2                !
 ! D91   D(48,3,45,46)         -33.7043         estimate D2E/DX2                !
 ! D92   D(48,3,45,47)          70.0448         estimate D2E/DX2                !
 ! D93   D(1,3,48,21)           51.3648         estimate D2E/DX2                !
 ! D94   D(1,3,48,23)           97.6993         estimate D2E/DX2                !
 ! D95   D(1,3,48,46)          -47.955          estimate D2E/DX2                !
 ! D96   D(1,3,48,49)           34.4586         estimate D2E/DX2                !
 ! D97   D(1,3,48,50)         -159.1705         estimate D2E/DX2                !
 ! D98   D(45,3,48,21)         134.2511         estimate D2E/DX2                !
 ! D99   D(45,3,48,23)        -179.4144         estimate D2E/DX2                !
 ! D100  D(45,3,48,46)          34.9312         estimate D2E/DX2                !
 ! D101  D(45,3,48,49)         117.3448         estimate D2E/DX2                !
 ! D102  D(45,3,48,50)         -76.2843         estimate D2E/DX2                !
 ! D103  D(1,4,6,7)           -179.8471         estimate D2E/DX2                !
 ! D104  D(1,4,6,8)             40.5968         estimate D2E/DX2                !
 ! D105  D(1,4,6,16)           109.9092         estimate D2E/DX2                !
 ! D106  D(1,4,6,18)           179.4716         estimate D2E/DX2                !
 ! D107  D(1,4,6,43)           -26.9163         estimate D2E/DX2                !
 ! D108  D(1,4,6,44)           -98.6236         estimate D2E/DX2                !
 ! D109  D(9,4,6,7)             97.7281         estimate D2E/DX2                !
 ! D110  D(9,4,6,8)            -41.828          estimate D2E/DX2                !
 ! D111  D(9,4,6,16)            27.4844         estimate D2E/DX2                !
 ! D112  D(9,4,6,18)            97.0468         estimate D2E/DX2                !
 ! D113  D(9,4,6,43)          -109.3411         estimate D2E/DX2                !
 ! D114  D(9,4,6,44)           178.9516         estimate D2E/DX2                !
 ! D115  D(1,4,9,8)            -41.8886         estimate D2E/DX2                !
 ! D116  D(1,4,9,10)           179.878          estimate D2E/DX2                !
 ! D117  D(1,4,9,11)            96.3492         estimate D2E/DX2                !
 ! D118  D(1,4,9,15)            28.0209         estimate D2E/DX2                !
 ! D119  D(1,4,9,26)          -111.0413         estimate D2E/DX2                !
 ! D120  D(6,4,9,8)             41.333          estimate D2E/DX2                !
 ! D121  D(6,4,9,10)           -96.9004         estimate D2E/DX2                !
 ! D122  D(6,4,9,11)           179.5707         estimate D2E/DX2                !
 ! D123  D(6,4,9,15)           111.2425         estimate D2E/DX2                !
 ! D124  D(6,4,9,26)           -27.8197         estimate D2E/DX2                !
 ! D125  D(1,5,12,2)            40.6073         estimate D2E/DX2                !
 ! D126  D(1,5,12,11)          -95.3496         estimate D2E/DX2                !
 ! D127  D(1,5,12,14)          110.4732         estimate D2E/DX2                !
 ! D128  D(1,5,12,15)          -26.6568         estimate D2E/DX2                !
 ! D129  D(1,5,12,52)         -179.97           estimate D2E/DX2                !
 ! D130  D(21,5,12,2)          -40.801          estimate D2E/DX2                !
 ! D131  D(21,5,12,11)        -176.758          estimate D2E/DX2                !
 ! D132  D(21,5,12,14)          29.0649         estimate D2E/DX2                !
 ! D133  D(21,5,12,15)        -108.0652         estimate D2E/DX2                !
 ! D134  D(21,5,12,52)          98.6216         estimate D2E/DX2                !
 ! D135  D(1,5,21,2)           -43.2549         estimate D2E/DX2                !
 ! D136  D(1,5,21,22)         -133.497          estimate D2E/DX2                !
 ! D137  D(1,5,21,23)           36.1021         estimate D2E/DX2                !
 ! D138  D(1,5,21,48)           55.1962         estimate D2E/DX2                !
 ! D139  D(1,5,21,49)          100.1732         estimate D2E/DX2                !
 ! D140  D(1,5,21,63)         -176.0309         estimate D2E/DX2                !
 ! D141  D(12,5,21,2)           41.9428         estimate D2E/DX2                !
 ! D142  D(12,5,21,22)         -48.2992         estimate D2E/DX2                !
 ! D143  D(12,5,21,23)         121.2999         estimate D2E/DX2                !
 ! D144  D(12,5,21,48)         140.3939         estimate D2E/DX2                !
 ! D145  D(12,5,21,49)        -174.629          estimate D2E/DX2                !
 ! D146  D(12,5,21,63)         -90.8332         estimate D2E/DX2                !
 ! D147  D(4,6,7,13)           -96.6789         estimate D2E/DX2                !
 ! D148  D(8,6,7,13)           -28.3748         estimate D2E/DX2                !
 ! D149  D(16,6,7,13)           41.4083         estimate D2E/DX2                !
 ! D150  D(43,6,7,13)          111.0673         estimate D2E/DX2                !
 ! D151  D(44,6,7,13)          178.115          estimate D2E/DX2                !
 ! D152  D(4,6,8,1)            -40.5045         estimate D2E/DX2                !
 ! D153  D(4,6,8,9)             41.7235         estimate D2E/DX2                !
 ! D154  D(7,6,8,1)           -108.9099         estimate D2E/DX2                !
 ! D155  D(7,6,8,9)            -26.6819         estimate D2E/DX2                !
 ! D156  D(16,6,8,1)          -178.8476         estimate D2E/DX2                !
 ! D157  D(16,6,8,9)           -96.6196         estimate D2E/DX2                !
 ! D158  D(18,6,8,1)          -179.4708         estimate D2E/DX2                !
 ! D159  D(18,6,8,9)           -97.2428         estimate D2E/DX2                !
 ! D160  D(43,6,8,1)            98.1289         estimate D2E/DX2                !
 ! D161  D(43,6,8,9)          -179.6431         estimate D2E/DX2                !
 ! D162  D(44,6,8,1)            31.0992         estimate D2E/DX2                !
 ! D163  D(44,6,8,9)           113.3272         estimate D2E/DX2                !
 ! D164  D(4,6,16,13)           28.3014         estimate D2E/DX2                !
 ! D165  D(7,6,16,13)          -41.7019         estimate D2E/DX2                !
 ! D166  D(8,6,16,13)           97.4282         estimate D2E/DX2                !
 ! D167  D(43,6,16,13)         179.1021         estimate D2E/DX2                !
 ! D168  D(44,6,16,13)        -110.7194         estimate D2E/DX2                !
 ! D169  D(4,6,18,19)           84.1795         estimate D2E/DX2                !
 ! D170  D(4,6,18,20)          162.9702         estimate D2E/DX2                !
 ! D171  D(4,6,18,40)            1.4773         estimate D2E/DX2                !
 ! D172  D(4,6,18,62)         -118.8539         estimate D2E/DX2                !
 ! D173  D(4,6,18,65)          125.5581         estimate D2E/DX2                !
 ! D174  D(8,6,18,19)         -155.5502         estimate D2E/DX2                !
 ! D175  D(8,6,18,20)          -76.7595         estimate D2E/DX2                !
 ! D176  D(8,6,18,40)          121.7475         estimate D2E/DX2                !
 ! D177  D(8,6,18,62)            1.4163         estimate D2E/DX2                !
 ! D178  D(8,6,18,65)         -114.1717         estimate D2E/DX2                !
 ! D179  D(43,6,18,19)         -77.537          estimate D2E/DX2                !
 ! D180  D(43,6,18,20)           1.2536         estimate D2E/DX2                !
 ! D181  D(43,6,18,40)        -160.2393         estimate D2E/DX2                !
 ! D182  D(43,6,18,62)          79.4295         estimate D2E/DX2                !
 ! D183  D(43,6,18,65)         -36.1585         estimate D2E/DX2                !
 ! D184  D(44,6,18,19)           4.0632         estimate D2E/DX2                !
 ! D185  D(44,6,18,20)          82.8539         estimate D2E/DX2                !
 ! D186  D(44,6,18,40)         -78.6391         estimate D2E/DX2                !
 ! D187  D(44,6,18,62)         161.0298         estimate D2E/DX2                !
 ! D188  D(44,6,18,65)          45.4417         estimate D2E/DX2                !
 ! D189  D(4,6,43,42)         -111.6763         estimate D2E/DX2                !
 ! D190  D(4,6,43,45)          -32.9606         estimate D2E/DX2                !
 ! D191  D(7,6,43,42)           27.5767         estimate D2E/DX2                !
 ! D192  D(7,6,43,45)          106.2924         estimate D2E/DX2                !
 ! D193  D(8,6,43,42)         -179.4825         estimate D2E/DX2                !
 ! D194  D(8,6,43,45)         -100.7668         estimate D2E/DX2                !
 ! D195  D(16,6,43,42)          97.4154         estimate D2E/DX2                !
 ! D196  D(16,6,43,45)         176.1311         estimate D2E/DX2                !
 ! D197  D(18,6,43,42)          48.8056         estimate D2E/DX2                !
 ! D198  D(18,6,43,45)         127.5213         estimate D2E/DX2                !
 ! D199  D(44,6,43,42)         -39.0523         estimate D2E/DX2                !
 ! D200  D(44,6,43,45)          39.6634         estimate D2E/DX2                !
 ! D201  D(4,6,44,42)          176.4323         estimate D2E/DX2                !
 ! D202  D(4,6,44,45)           97.7756         estimate D2E/DX2                !
 ! D203  D(7,6,44,42)         -100.9737         estimate D2E/DX2                !
 ! D204  D(7,6,44,45)         -179.6304         estimate D2E/DX2                !
 ! D205  D(8,6,44,42)          105.7634         estimate D2E/DX2                !
 ! D206  D(8,6,44,45)           27.1067         estimate D2E/DX2                !
 ! D207  D(16,6,44,42)         -31.2069         estimate D2E/DX2                !
 ! D208  D(16,6,44,45)        -109.8635         estimate D2E/DX2                !
 ! D209  D(18,6,44,42)         -51.7009         estimate D2E/DX2                !
 ! D210  D(18,6,44,45)        -130.3575         estimate D2E/DX2                !
 ! D211  D(43,6,44,42)          39.0728         estimate D2E/DX2                !
 ! D212  D(43,6,44,45)         -39.5838         estimate D2E/DX2                !
 ! D213  D(6,7,13,10)           97.4225         estimate D2E/DX2                !
 ! D214  D(6,7,13,16)          -41.3753         estimate D2E/DX2                !
 ! D215  D(6,7,13,26)           27.1293         estimate D2E/DX2                !
 ! D216  D(6,7,13,37)         -178.9469         estimate D2E/DX2                !
 ! D217  D(6,7,13,38)         -111.561          estimate D2E/DX2                !
 ! D218  D(18,7,13,10)         178.8542         estimate D2E/DX2                !
 ! D219  D(18,7,13,16)          40.0564         estimate D2E/DX2                !
 ! D220  D(18,7,13,26)         108.561          estimate D2E/DX2                !
 ! D221  D(18,7,13,37)         -97.5153         estimate D2E/DX2                !
 ! D222  D(18,7,13,38)         -30.1293         estimate D2E/DX2                !
 ! D223  D(13,7,18,16)         -40.7665         estimate D2E/DX2                !
 ! D224  D(13,7,18,19)         177.9985         estimate D2E/DX2                !
 ! D225  D(13,7,18,20)        -111.0051         estimate D2E/DX2                !
 ! D226  D(13,7,18,40)          97.7416         estimate D2E/DX2                !
 ! D227  D(13,7,18,62)          36.1365         estimate D2E/DX2                !
 ! D228  D(13,7,18,65)         168.9997         estimate D2E/DX2                !
 ! D229  D(1,8,9,4)             41.8473         estimate D2E/DX2                !
 ! D230  D(1,8,9,10)           109.9877         estimate D2E/DX2                !
 ! D231  D(1,8,9,11)           -29.1838         estimate D2E/DX2                !
 ! D232  D(1,8,9,15)           -97.8654         estimate D2E/DX2                !
 ! D233  D(1,8,9,26)           179.7323         estimate D2E/DX2                !
 ! D234  D(6,8,9,4)            -41.6783         estimate D2E/DX2                !
 ! D235  D(6,8,9,10)            26.462          estimate D2E/DX2                !
 ! D236  D(6,8,9,11)          -112.7094         estimate D2E/DX2                !
 ! D237  D(6,8,9,15)           178.6089         estimate D2E/DX2                !
 ! D238  D(6,8,9,26)            96.2067         estimate D2E/DX2                !
 ! D239  D(4,9,10,13)           96.8905         estimate D2E/DX2                !
 ! D240  D(4,9,10,24)          178.9268         estimate D2E/DX2                !
 ! D241  D(8,9,10,13)           29.0442         estimate D2E/DX2                !
 ! D242  D(8,9,10,24)          111.0805         estimate D2E/DX2                !
 ! D243  D(11,9,10,13)        -178.4342         estimate D2E/DX2                !
 ! D244  D(11,9,10,24)         -96.3979         estimate D2E/DX2                !
 ! D245  D(15,9,10,13)        -110.1348         estimate D2E/DX2                !
 ! D246  D(15,9,10,24)         -28.0985         estimate D2E/DX2                !
 ! D247  D(26,9,10,13)         -40.9399         estimate D2E/DX2                !
 ! D248  D(26,9,10,24)          41.0964         estimate D2E/DX2                !
 ! D249  D(4,9,11,12)          -98.1729         estimate D2E/DX2                !
 ! D250  D(4,9,11,27)          179.1905         estimate D2E/DX2                !
 ! D251  D(8,9,11,12)          -28.2766         estimate D2E/DX2                !
 ! D252  D(8,9,11,27)         -110.9131         estimate D2E/DX2                !
 ! D253  D(10,9,11,12)         179.6201         estimate D2E/DX2                !
 ! D254  D(10,9,11,27)          96.9835         estimate D2E/DX2                !
 ! D255  D(15,9,11,12)          41.6517         estimate D2E/DX2                !
 ! D256  D(15,9,11,27)         -40.9848         estimate D2E/DX2                !
 ! D257  D(26,9,11,12)         109.2696         estimate D2E/DX2                !
 ! D258  D(26,9,11,27)          26.6331         estimate D2E/DX2                !
 ! D259  D(4,9,15,12)           28.0053         estimate D2E/DX2                !
 ! D260  D(4,9,15,27)          110.6296         estimate D2E/DX2                !
 ! D261  D(8,9,15,12)           96.9264         estimate D2E/DX2                !
 ! D262  D(8,9,15,27)          179.5506         estimate D2E/DX2                !
 ! D263  D(10,9,15,12)        -110.9197         estimate D2E/DX2                !
 ! D264  D(10,9,15,27)         -28.2955         estimate D2E/DX2                !
 ! D265  D(11,9,15,12)         -41.6306         estimate D2E/DX2                !
 ! D266  D(11,9,15,27)          40.9936         estimate D2E/DX2                !
 ! D267  D(26,9,15,12)         179.9177         estimate D2E/DX2                !
 ! D268  D(26,9,15,27)         -97.458          estimate D2E/DX2                !
 ! D269  D(4,9,26,13)          -28.0544         estimate D2E/DX2                !
 ! D270  D(4,9,26,24)         -110.2004         estimate D2E/DX2                !
 ! D271  D(8,9,26,13)          -96.6628         estimate D2E/DX2                !
 ! D272  D(8,9,26,24)         -178.8087         estimate D2E/DX2                !
 ! D273  D(10,9,26,13)          41.0169         estimate D2E/DX2                !
 ! D274  D(10,9,26,24)         -41.1291         estimate D2E/DX2                !
 ! D275  D(11,9,26,13)         111.8262         estimate D2E/DX2                !
 ! D276  D(11,9,26,24)          29.6803         estimate D2E/DX2                !
 ! D277  D(15,9,26,13)         178.8825         estimate D2E/DX2                !
 ! D278  D(15,9,26,24)          96.7365         estimate D2E/DX2                !
 ! D279  D(9,10,13,7)          -97.3602         estimate D2E/DX2                !
 ! D280  D(9,10,13,16)         -27.9384         estimate D2E/DX2                !
 ! D281  D(9,10,13,26)          41.2773         estimate D2E/DX2                !
 ! D282  D(9,10,13,37)         179.5165         estimate D2E/DX2                !
 ! D283  D(9,10,13,38)         113.0749         estimate D2E/DX2                !
 ! D284  D(24,10,13,7)         179.8            estimate D2E/DX2                !
 ! D285  D(24,10,13,16)       -110.7782         estimate D2E/DX2                !
 ! D286  D(24,10,13,26)        -41.5624         estimate D2E/DX2                !
 ! D287  D(24,10,13,37)         96.6768         estimate D2E/DX2                !
 ! D288  D(24,10,13,38)         30.2351         estimate D2E/DX2                !
 ! D289  D(9,10,24,17)        -111.8151         estimate D2E/DX2                !
 ! D290  D(9,10,24,25)        -179.6            estimate D2E/DX2                !
 ! D291  D(9,10,24,26)         -41.4547         estimate D2E/DX2                !
 ! D292  D(9,10,24,28)          96.864          estimate D2E/DX2                !
 ! D293  D(9,10,24,29)          29.1414         estimate D2E/DX2                !
 ! D294  D(9,10,24,30)          99.8089         estimate D2E/DX2                !
 ! D295  D(13,10,24,17)        -28.7788         estimate D2E/DX2                !
 ! D296  D(13,10,24,25)        -96.5637         estimate D2E/DX2                !
 ! D297  D(13,10,24,26)         41.5816         estimate D2E/DX2                !
 ! D298  D(13,10,24,28)        179.9003         estimate D2E/DX2                !
 ! D299  D(13,10,24,29)        112.1777         estimate D2E/DX2                !
 ! D300  D(13,10,24,30)       -177.1548         estimate D2E/DX2                !
 ! D301  D(9,11,12,2)           26.7508         estimate D2E/DX2                !
 ! D302  D(9,11,12,5)           95.7564         estimate D2E/DX2                !
 ! D303  D(9,11,12,14)        -109.4134         estimate D2E/DX2                !
 ! D304  D(9,11,12,15)         -41.8793         estimate D2E/DX2                !
 ! D305  D(9,11,12,52)         179.2045         estimate D2E/DX2                !
 ! D306  D(27,11,12,2)         110.9213         estimate D2E/DX2                !
 ! D307  D(27,11,12,5)         179.927          estimate D2E/DX2                !
 ! D308  D(27,11,12,14)        -25.2429         estimate D2E/DX2                !
 ! D309  D(27,11,12,15)         42.2912         estimate D2E/DX2                !
 ! D310  D(27,11,12,52)        -96.625          estimate D2E/DX2                !
 ! D311  D(9,11,27,15)          41.2217         estimate D2E/DX2                !
 ! D312  D(9,11,27,28)         -95.7757         estimate D2E/DX2                !
 ! D313  D(9,11,27,29)         -27.5312         estimate D2E/DX2                !
 ! D314  D(9,11,27,55)        -178.8962         estimate D2E/DX2                !
 ! D315  D(9,11,27,56)         111.3651         estimate D2E/DX2                !
 ! D316  D(12,11,27,15)        -42.3064         estimate D2E/DX2                !
 ! D317  D(12,11,27,28)       -179.3037         estimate D2E/DX2                !
 ! D318  D(12,11,27,29)       -111.0593         estimate D2E/DX2                !
 ! D319  D(12,11,27,55)         97.5758         estimate D2E/DX2                !
 ! D320  D(12,11,27,56)         27.8371         estimate D2E/DX2                !
 ! D321  D(2,12,14,51)         102.3642         estimate D2E/DX2                !
 ! D322  D(2,12,14,54)        -178.9496         estimate D2E/DX2                !
 ! D323  D(5,12,14,51)          33.6208         estimate D2E/DX2                !
 ! D324  D(5,12,14,54)         112.307          estimate D2E/DX2                !
 ! D325  D(11,12,14,51)       -108.4279         estimate D2E/DX2                !
 ! D326  D(11,12,14,54)        -29.7417         estimate D2E/DX2                !
 ! D327  D(15,12,14,51)       -175.8238         estimate D2E/DX2                !
 ! D328  D(15,12,14,54)        -97.1376         estimate D2E/DX2                !
 ! D329  D(52,12,14,51)        -36.2839         estimate D2E/DX2                !
 ! D330  D(52,12,14,54)         42.4023         estimate D2E/DX2                !
 ! D331  D(2,12,15,9)          -94.2012         estimate D2E/DX2                !
 ! D332  D(2,12,15,27)        -178.4801         estimate D2E/DX2                !
 ! D333  D(5,12,15,9)          -27.1123         estimate D2E/DX2                !
 ! D334  D(5,12,15,27)        -111.3912         estimate D2E/DX2                !
 ! D335  D(11,12,15,9)          41.9671         estimate D2E/DX2                !
 ! D336  D(11,12,15,27)        -42.3119         estimate D2E/DX2                !
 ! D337  D(14,12,15,9)        -178.9969         estimate D2E/DX2                !
 ! D338  D(14,12,15,27)         96.7242         estimate D2E/DX2                !
 ! D339  D(52,12,15,9)         112.789          estimate D2E/DX2                !
 ! D340  D(52,12,15,27)         28.5101         estimate D2E/DX2                !
 ! D341  D(2,12,52,51)         -35.5342         estimate D2E/DX2                !
 ! D342  D(2,12,52,54)        -113.8677         estimate D2E/DX2                !
 ! D343  D(5,12,52,51)        -103.5407         estimate D2E/DX2                !
 ! D344  D(5,12,52,54)         178.1258         estimate D2E/DX2                !
[...]
 9,-0.00010825,-0.00007097,0.00000315,0.00000853,-0.00002083,0.00126963
 ,-0.00036524,0.00023439,-0.00145885,-0.00114955,-0.00094711,-0.0000498
 4,0.00016909,0.00012924,-0.00048940,-0.00008380,0.00027174,-0.00019096
 ,-0.00016566,-0.00007669,0.00003345,0.00000893,-0.00003594,-0.00009359
 ,-0.00002425,0.00003862,-0.00115297,0.00187431,-0.00136002,0.00001671,
 0.00002946,0.00001355,0.00001235,0.00001522,-0.00003436,-0.00011669,0.
 00097746,0.00034446,0.00005862,0.00015093,0.00041699,-0.00757420,0.002
 09875,0.00151493,-0.00005519,-0.00114865,-0.00289928,-0.00119798,0.004
 21004,0.00301105,0.00005585,0.00011180,0.00003213,-0.00001319,-0.00000
 187,-0.00000583,0.00002690,0.00006561,-0.00002276,-0.00002665,-0.00004
 393,0.00014290,-0.00002755,-0.00017302,-0.00000961,-0.00000529,0.00010
 850,0.00009867,-0.00010964,-0.00003217,0.00000094,-0.00001288,-0.00002
 963,-0.00001414,-0.00002988,0.00003801,0.00001046,0.00002652,-0.000033
 48,0.00006302,-0.00000430,-0.00001191,-0.00000890,-0.00001051,-0.00010
 215,-0.00000717,-0.00029267,0.00002978,-0.00017884,-0.00001325,0.00013
 123,0.00008091,-0.00039788,0.00005991,0.00039933,0.00043806,-0.0001274
 3,-0.00080397,-0.00101858,-0.00059954,-0.00119543,-0.00070107,-0.00006
 436,0.00132312,0.01824935,0.00313462,0.00931598,-0.00152841,-0.0027489
 9,-0.00943117,0.01643167,0.02212482,-0.07530626,-0.00275826,-0.0004406
 2,0.00028165,0.00014716,0.00010838,0.00002298,-0.00003156,0.00010833,-
 0.00004681,-0.00011134,0.00006400,-0.00009056,-0.00011614,0.00006934,0
 .00000320,0.00004687,-0.00003452,0.00005037,0.00027425,-0.00039357,0.0
 0007545,-0.00024992,0.00005053,0.00007366,0.00005918,0.00006975,-0.000
 10690,0.00008967,0.00000775,-0.00001311,0.00001088,-0.00002566,-0.0000
 1957,-0.00009706,0.00002914,-0.00003760,0.00012335,-0.00005538,0.00007
 952,0.00000296,-0.00001126,-0.00002457,0.00001267,0.00002671,0.0000009
 8,0.00008668,-0.00001275,0.00001227,-0.00009057,0.00000502,0.00000624,
 0.00001555,-0.00006054,0.00011448,-0.00010422,0.00002180,-0.00003146,0
 .00009737,0.00084227,-0.00060878,-0.02256282,-0.01972722,-0.04083951,-
 0.00000570,0.00000475,-0.00000217,0.00000036,0.00001084,0.00000680,0.0
 0218960,0.00025945,-0.02006948,0.01820476,0.00787131,-0.01395841,0.000
 61927,0.00144125,0.00064492,0.02261301,0.00705893,0.21442796,-0.000070
 98,-0.00005000,0.00009704,-0.00003147,0.00001755,-0.00005011,0.0000501
 6,-0.00000951,-0.00000215,-0.00008838,0.00009964,-0.00001185,-0.000015
 96,0.00002600,-0.00003596,-0.00025632,0.00020146,-0.00022510,-0.000019
 37,0.00040074,-0.00021368,-0.00005553,0.00001872,-0.00007225,0.0002802
 8,-0.00004536,0.00004837,-0.00009772,0.00009331,-0.00000884,-0.0000642
 9,0.00005562,-0.00003894,0.00021441,-0.00004488,0.00005171,-0.00024785
 ,-0.00024275,-0.00002097,-0.00001435,-0.00002203,-0.00004389,-0.000066
 36,0.00002000,-0.00007276,-0.00024300,0.00036645,-0.00014040,-0.000205
 65,-0.00014217,0.00016703,0.00113951,-0.00115128,-0.00112026,0.0008034
 3,0.00051267,0.00108477,0.00024154,-0.00100676,-0.00006631,-0.00002248
 ,-0.00011678,-0.00002781,0.00002089,0.00002865,0.00002200,-0.00003826,
 -0.00003292,0.00007019,0.00032296,0.00012006,-0.00014814,-0.00030457,-
 0.00003951,0.00019208,-0.00010176,0.00000651,-0.00010762,0.00022978,-0
 .00014007,0.00021809,-0.00001752,-0.00002941,-0.00001118,-0.00001765,0
 .00001196,0.00000731,-0.00018733,0.00011149,-0.00003924,0.00006414,0.0
 0001242,0.00002632,0.00015035,-0.00001405,0.00008663,-0.00026320,-0.00
 013384,0.00016454,0.00009933,-0.00006155,-0.00001263,-0.00024754,-0.00
 019460,0.00035612,0.00332483,0.00022669,-0.00099132,-0.00000651,-0.000
 29054,-0.00031753,0.00035595,-0.00004189,-0.00078114,-0.00219281,-0.00
 186298,0.00496867,-0.00347758,-0.00073465,-0.00363071,-0.01036002,-0.0
 0207330,-0.00210541,0.00091688,-0.00019774,-0.00034129,-0.00009710,0.0
 0005517,0.00009050,-0.00019940,0.00003067,-0.00002396,0.00030329,0.000
 05088,-0.00004612,0.00012437,-0.00005735,0.00001593,-0.00022246,-0.000
 04537,0.00012645,-0.00021830,0.00047879,-0.00027764,0.00022325,-0.0000
 8637,-0.00008328,-0.00015335,-0.00016201,0.00026090,-0.00023546,0.0000
 5520,-0.00006967,-0.00000367,0.00005062,-0.00000618,0.00023108,-0.0000
 1778,-0.00000068,-0.00031139,-0.00002546,0.00008308,-0.00001954,0.0000
 6500,0.00002266,-0.00003381,-0.00005133,-0.00004577,-0.00024427,0.0000
 7063,-0.00007318,0.00031897,-0.00001088,-0.00003401,-0.00018548,0.0002
 3878,-0.00037010,0.00025672,-0.00004899,0.00006038,-0.00047207,-0.0002
 9895,0.00041497,-0.00900542,-0.00686849,-0.01349998,0.00000971,-0.0000
 3264,-0.00000612,0.00006369,-0.00003652,-0.00000591,-0.00208157,0.0016
 3072,0.00259755,0.00024189,0.00013058,0.00492532,-0.00078054,-0.000610
 39,0.00019306,-0.03741950,0.00175447,-0.00669337,0.59699263,-0.0000673
 6,0.00001445,0.00002626,-0.00000289,0.00000895,-0.00003850,-0.00003914
 ,-0.00004036,0.00000850,-0.00000054,-0.00000217,-0.00007890,0.00001045
 ,0.00003061,-0.00003779,0.00005222,-0.00028508,0.00015721,0.00021788,0
 .00015072,0.00018702,0.00000666,0.00004429,-0.00000487,0.00002189,-0.0
 0004908,0.00008780,0.00003642,0.00005594,-0.00002646,-0.00000832,0.000
 05050,-0.00004358,0.00002921,-0.00005535,0.00007653,-0.00014029,0.0002
 8492,0.00006556,-0.00000384,0.00000765,-0.00002532,-0.00001554,0.00002
 237,-0.00006100,-0.00021596,0.00032408,-0.00041499,-0.00012513,-0.0001
 0194,0.00004890,-0.00000491,-0.00085686,0.00058093,-0.00012469,0.00007
 043,-0.00031523,-0.00000555,0.00040143,0.00017449,0.00000136,-0.000035
 54,-0.00001537,-0.00000891,0.00000745,0.00001248,-0.00002791,0.0000032
 2,0.00003671,0.00018774,0.00003976,-0.00020186,-0.00008681,0.00003837,
 0.00017216,-0.00001583,0.00000518,-0.00005528,0.00007999,-0.00010760,0
 .00015763,0.00001006,-0.00002195,-0.00002416,0.00000611,0.00002920,-0.
 00000327,-0.00014423,0.00006853,-0.00007232,0.00003540,-0.00000666,0.0
 0000449,0.00007734,-0.00003427,0.00004964,-0.00003832,0.00002321,-0.00
 010819,0.00007937,-0.00003659,0.00002602,-0.00016389,0.00006183,0.0000
 7963,0.00140983,-0.00001152,0.00008961,0.00033101,0.00027676,-0.000198
 29,0.00040886,-0.00039818,-0.00044966,0.00325390,-0.00082576,0.0000794
 4,0.00371693,0.00876569,0.00969717,-0.00491205,0.00085578,0.00123707,-
 0.00002279,-0.00019239,0.00045396,-0.00007702,0.00008024,0.00003674,0.
 00002791,0.00005764,0.00004158,0.00018515,0.00005505,-0.00017785,-0.00
 000403,0.00001311,0.00001437,-0.00011385,-0.00003436,0.00009931,0.0000
 4942,0.00008648,-0.00004673,0.00001077,-0.00001490,-0.00001648,-0.0000
 5497,-0.00004955,0.00008449,-0.00005056,0.00003161,-0.00004917,-0.0000
 0148,0.00001991,-0.00002064,0.00007208,0.00000724,-0.00002294,-0.00010
 991,-0.00005587,0.00010957,-0.00001025,0.00003551,0.00000053,-0.000015
 99,-0.00001578,-0.00003183,-0.00007451,0.00005125,-0.00006525,0.000122
 70,-0.00000339,-0.00001595,-0.00008787,0.00005883,-0.00008171,0.000067
 96,-0.00001064,0.00001100,0.00008048,0.00001389,-0.00002978,-0.0026637
 9,0.00721814,-0.00571679,-0.00001343,-0.00000723,0.00000252,0.00003775
 ,-0.00000448,0.00000501,0.00030665,-0.00105093,-0.00163157,-0.00026151
 ,0.00205287,0.00342740,-0.00035337,-0.00041458,0.00080054,-0.01221940,
 -0.06755748,-0.01652349,0.18365260,0.14809046,-0.00002394,-0.00007689,
 0.00009312,-0.00004195,0.00001849,-0.00000815,0.00009907,0.00001978,0.
 00000163,-0.00013950,0.00005372,-0.00001705,-0.00004114,-0.00001907,-0
 .00000645,0.00013875,-0.00007236,-0.00024623,0.00022343,0.00017431,-0.
 00015689,-0.00014227,0.00003225,-0.00006046,0.00034358,-0.00001638,-0.
 00010181,-0.00008247,0.00006576,0.00007618,-0.00008444,0.00000579,0.00
 003706,0.00027484,0.00001697,-0.00004642,0.00011041,-0.00029337,0.0000
 7191,-0.00002305,-0.00005202,-0.00002589,-0.00007980,-0.00000686,0.000
 00497,-0.00050746,0.00024357,-0.00026243,-0.00014898,-0.00017916,0.000
 06494,0.00384506,-0.00300203,0.00118744,0.00151459,0.00254649,0.001468
 80,0.00063010,-0.00151151,-0.00000111,-0.00006797,-0.00011492,0.000006
 17,0.00004868,0.00002832,0.00001327,-0.00000546,-0.00006028,0.00003981
 ,0.00028509,0.00019442,-0.00016592,-0.00022240,0.00008287,0.00012532,-
 0.00014014,-0.00011057,-0.00005377,0.00024091,-0.00002284,0.00002230,-
 0.00002634,-0.00003544,0.00004265,-0.00002375,-0.00003765,0.00005321,-
 0.00007614,0.00004583,0.00004676,0.00003049,0.00003011,0.00002608,0.00
 005641,0.00005551,0.00003319,0.00001902,-0.00019698,0.00031767,0.00003
 362,-0.00006271,-0.00009564,-0.00054178,0.00017672,-0.00051934,0.00122
 606,-0.00042284,0.00043057,0.00021878,0.00054448,0.00055914,-0.0006197
 2,0.00031111,0.00010194,-0.00135283,-0.00347937,0.00195954,-0.00047511
 ,0.00347958,0.00023842,0.00284292,0.00045605,-0.00169302,0.00144049,0.
 00037637,-0.00037591,-0.00026917,0.00000795,0.00004163,-0.00010422,0.0
 0007871,-0.00004007,0.00038405,-0.00008559,0.00005135,0.00021124,-0.00
 010809,0.00003289,-0.00026428,-0.00000593,0.00007068,-0.00043664,0.000
 62561,-0.00035449,0.00034387,-0.00012720,-0.00011581,-0.00014407,-0.00
 016720,0.00026329,-0.00026806,0.00001722,-0.00000364,-0.00001159,0.000
 04867,0.00003088,0.00022704,-0.00004712,0.00005299,-0.00027672,0.00007
 695,-0.00010277,-0.00000805,0.00003060,0.00003729,-0.00001906,-0.00004
 880,-0.00000858,-0.00025110,0.00001999,0.00001239,0.00026908,-0.000011
 76,-0.00002236,-0.00014595,0.00027217,-0.00042614,0.00027441,-0.000056
 31,0.00007511,-0.00034607,-0.00015950,0.00068718,-0.00793705,-0.002721
 45,-0.00088115,0.00003835,-0.00003020,-0.00001470,0.00002575,-0.000038
 56,-0.00001540,-0.00092071,-0.00302416,-0.00027621,0.00301414,0.002770
 90,-0.01763108,-0.00070602,0.00016741,0.00108221,-0.01727553,-0.005803
 19,-0.04807952,0.51886924,0.18049525,0.59995969,0.00003294,0.00003494,
 -0.00006432,0.00002974,-0.00001410,0.00002746,-0.00004886,0.00000204,0
 .00000006,0.00007059,-0.00005291,0.00003718,0.00002060,-0.00000442,0.0
 0002451,-0.00017797,0.00008370,-0.00008380,0.00003419,-0.00018483,0.00
 008633,0.00007391,-0.00003585,0.00005658,-0.00020659,0.00003916,-0.000
 00218,0.00007749,-0.00004181,-0.00001512,0.00005274,-0.00002611,0.0000
 0963,-0.00017664,0.00001608,-0.00001117,0.00002941,0.00016228,-0.00003
 398,0.00000970,0.00002336,0.00002481,0.00005376,-0.00000804,0.00003001
 ,0.00013591,0.00003849,0.00002977,0.00014320,0.00007732,-0.00008940,-0
 .00108872,-0.00033537,0.00035762,-0.00067848,-0.00047257,-0.00076251,-
 0.00021077,0.00069017,-0.00002489,0.00001879,0.00007340,0.00000635,-0.
 00002515,-0.00002350,-0.00001364,0.00001503,0.00002603,-0.00004204,-0.
 00021101,-0.00007485,0.00010750,0.00018014,0.00000571,-0.00013050,0.00
 009345,0.00000701,0.00003529,-0.00016670,0.00006979,-0.00009136,0.0000
 2019,0.00002003,-0.00001183,0.00002120,0.00000401,-0.00001718,0.000090
 44,-0.00005087,0.00000081,-0.00003782,-0.00001636,-0.00002129,-0.00007
 797,-0.00000324,-0.00003831,0.00011911,0.00012487,-0.00016613,-0.00004
 990,0.00003368,0.00002754,0.00030010,-0.00003019,-0.00003553,-0.001733
 82,-0.00001437,0.00027128,0.00003282,0.00020603,-0.00000919,-0.0000864
 6,0.00001034,0.00027430,0.00103632,-0.00003543,-0.00315743,0.00088685,
 0.00045821,0.00118540,0.00240348,0.00042152,0.00148540,-0.00062142,-0.
 00004199,0.00034515,0.00007146,-0.00002590,0.00004396,0.00007728,-0.00
 004572,0.00002467,-0.00020102,0.00001155,0.00002323,-0.00010842,0.0000
 4662,-0.00001920,0.00015881,0.00003671,-0.00009767,0.00020414,-0.00036
 772,0.00023368,-0.00017631,0.00007188,0.00006417,0.00010973,0.00011887
 ,-0.00019215,0.00018578,-0.00003135,0.00003361,0.00000229,-0.00003300,
 -0.00000665,-0.00016587,0.00001968,-0.00001209,0.00021371,-0.00000875,
 -0.00001037,0.00001080,-0.00003883,-0.00002068,0.00001932,0.00003657,0
 .00002328,0.00017930,-0.00003547,0.00002356,-0.00021696,0.00000817,0.0
 0002117,0.00011863,-0.00017875,0.00027923,-0.00019263,0.00003794,-0.00
 004780,0.00031603,0.00017139,-0.00036005,-0.00048650,0.00194976,0.0010
 1430,-0.00001830,0.00002516,0.00000948,-0.00003549,0.00003023,0.000007
 98,0.00102873,-0.00072731,-0.00046764,0.00063034,0.00003706,0.00076744
 ,0.00050659,0.00022610,-0.00041245,-0.01994237,-0.01406555,-0.03179668
 ,-0.53658226,-0.17229921,-0.50302852,0.55390939,0.00002114,0.00000214,
 -0.00001856,0.00000853,-0.00000489,0.00001463,-0.00000074,0.00001072,-
 0.00000193,0.00001614,-0.00000506,0.00003447,0.00000311,-0.00000722,0.
 00001468,-0.00012213,0.00013702,-0.00008180,-0.00004396,-0.00005295,-0
 .00003091,0.00001782,-0.00002475,0.00001132,-0.00004840,0.00002206,-0.
 00001505,0.00000864,-0.00001703,-0.00000358,0.00001391,-0.00001677,0.0
 0000982,-0.00004826,0.00001488,-0.00001642,0.00002374,-0.00005105,-0.0
 0003223,0.00000298,0.00000406,0.00001043,0.00001710,-0.00000610,0.0000
 1797,0.00009369,-0.00010636,0.00010910,0.00006059,0.00004949,-0.000022
 33,-0.00013652,0.00018627,-0.00001827,-0.00013318,-0.00023727,-0.00006
 166,0.00004716,-0.00001172,-0.00007298,0.00000394,0.00002177,0.0000021
 2,-0.00000432,-0.00000712,-0.00000568,0.00000823,0.00000425,-0.0000164
 8,-0.00010012,-0.00002939,0.00006513,0.00004595,-0.00001346,-0.0000674
 7,0.00002768,0.00000150,0.00001982,-0.00005561,0.00003792,-0.00004765,
 0.00000272,0.00001094,0.00000008,0.00000347,-0.00000375,-0.00000448,0.
 00004722,-0.00002125,0.00001271,-0.00001541,-0.00000288,-0.00000586,-0
 .00002905,0.00000633,-0.00001507,0.00002540,0.00001658,-0.00001481,-0.
 00002754,0.00001705,0.00000374,0.00012193,-0.00004586,0.00002836,-0.00
 058137,0.00004769,-0.00003923,-0.00008170,-0.00003132,0.00000752,-0.00
 011848,0.00007938,0.00016820,-0.00066132,0.00012566,-0.00044735,-0.000
 71386,-0.00224259,-0.00239704,0.00117515,-0.00037192,-0.00011257,-0.00
 010658,0.00003180,-0.00003966,0.00003779,-0.00002487,0.00000921,0.0000
 0195,-0.00003192,-0.00000834,-0.00008670,-0.00000959,0.00005089,-0.000
 02357,0.00000652,-0.00001009,0.00006087,0.00001764,-0.00004824,0.00003
 330,-0.00009785,0.00006548,-0.00003962,0.00001985,0.00001753,0.0000363
 3,0.00003725,-0.00006146,0.00005223,-0.00001325,0.00001660,0.00000088,
 -0.00001147,0.00000226,-0.00005161,0.00000325,0.00000119,0.00006997,0.
 00000805,-0.00002162,0.00000396,-0.00001550,-0.00000517,0.00000685,0.0
 0001123,0.00001111,0.00005545,-0.00001799,0.00001601,-0.00007272,0.000
 00249,0.00000790,0.00004324,-0.00005244,0.00007972,-0.00005702,0.00001
 073,-0.00001316,0.00003759,0.00001582,-0.00007791,0.00014060,-0.002757
 92,0.00110076,-0.00000190,0.00000715,0.00000186,-0.00001510,0.00000779
 ,0.00000064,-0.00014579,0.00036878,0.00067447,0.00038760,-0.00067069,-
 0.00051388,0.00018109,0.00013518,-0.00035687,-0.00972889,0.02008602,-0
 .00919023,-0.17356298,-0.09723305,-0.17136162,0.18386851,0.08268201,0.
 00002469,0.00004010,-0.00006633,0.00003172,-0.00001468,0.00001836,-0.0
 0005781,-0.00000300,-0.00000144,0.00008058,-0.00004095,0.00004104,0.00
 002534,0.00000541,0.00001799,-0.00025145,0.00015612,-0.00005083,-0.000
 04129,-0.00013802,0.00007829,0.00009375,-0.00003898,0.00005528,-0.0002
 1902,0.00002250,0.00003018,0.00007273,-0.00003452,-0.00002533,0.000056
 80,-0.00001580,-0.00000704,-0.00018827,0.00000371,0.00001212,-0.000071
 26,0.00018303,-0.00004284,0.00001182,0.00002951,0.00002077,0.00005593,
 -0.00000263,0.00001380,0.00026441,0.00003868,0.00006759,0.00013303,0.0
 0009051,-0.00006910,-0.00132865,0.00010026,0.00003817,-0.00078456,-0.0
 0081802,-0.00081444,-0.00027102,0.00081026,0.00004023,0.00002810,0.000
 07145,-0.00000084,-0.00003079,-0.00002320,-0.00001164,0.00000787,0.000
 03161,-0.00003494,-0.00021585,-0.00008186,0.00010964,0.00017122,-0.000
 03213,-0.00012508,0.00010374,0.00003203,0.00001819,-0.00016770,0.00004
 614,-0.00005084,0.00002134,0.00002197,-0.00002302,0.00002313,0.0000142
 1,-0.00003013,0.00006811,-0.00004123,-0.00002250,-0.00003040,-0.000019
 69,-0.00002104,-0.00005836,-0.00001739,-0.00002999,0.00005000,0.000142
 83,-0.00018730,-0.00003496,0.00003304,0.00004807,0.00037491,-0.0001258
 5,0.00019069,-0.00123420,0.00014567,-0.00005966,-0.00003762,-0.0000043
 4,-0.00023088,0.00015047,-0.00009460,0.00000946,0.00114172,0.00041030,
 -0.00185103,0.00027522,-0.00045164,0.00059690,0.00064047,0.00040600,0.
 00169197,-0.00068949,-0.00014289,0.00033024,0.00012696,-0.00001599,0.0
 0005074,0.00005976,-0.00005244,0.00002908,-0.00021894,0.00003270,0.000
 00738,-0.00012142,0.00005463,-0.00002236,0.00016595,0.00002970,-0.0000
 8782,0.00024350,-0.00039149,0.00024365,-0.00019791,0.00007923,0.000070
 02,0.00010610,0.00011766,-0.00018907,0.00018975,-0.00002342,0.00001914
 ,0.00000398,-0.00003232,-0.00001439,-0.00016350,0.00002584,-0.00002365
 ,0.00020468,-0.00003053,0.00002936,0.00000840,-0.00003073,-0.00002371,
 0.00001634,0.00003563,0.00001491,0.00017997,-0.00002448,0.00000521,-0.
 00020515,0.00000831,0.00001862,0.00011295,-0.00019068,0.00029716,-0.00
 019392,0.00003902,-0.00005040,0.00027338,0.00015243,-0.00039928,-0.000
 25820,0.00049026,-0.00206417,-0.00002415,0.00002443,0.00001105,-0.0000
 2735,0.00003026,0.00000953,0.00051003,0.00002653,-0.00031711,-0.000215
 31,-0.00046648,0.00384887,0.00049713,0.00005571,-0.00050477,-0.0302209
 5,-0.01127740,-0.01672350,-0.50334744,-0.17203228,-0.53761126,0.534300
 98,0.18267194,0.55370399\\0.00000034,-0.00000153,0.00000088,-0.0000004
 8,-0.00000179,-0.00000161,-0.00000106,-0.00000102,0.00000107,0.0000006
 4,0.00000156,0.00000028,-0.00000061,0.00000059,-0.00000070,-0.00000842
 ,0.00000158,-0.00000202,-0.00000169,-0.00000086,-0.00000090,-0.0000007
 0,-0.00000153,-0.00000238,0.00000229,0.00000001,0.00000007,-0.00000084
 ,0.00000127,0.00000114,0.00000008,0.00000001,-0.00000024,0.00000122,0.
 00000042,-0.00000088,-0.00000312,-0.00000148,-0.00000111,-0.00000044,-
 0.00000024,-0.00000061,0.00000008,0.00000004,0.00000048,0.00000181,-0.
 00000090,0.00000379,-0.00000015,-0.00000044,0.00000168,0.00001713,0.00
 000136,0.00000206,0.00001101,-0.00000555,0.00000487,-0.00001030,0.0000
 0092,-0.00000492,0.00000159,-0.00000036,0.00000027,0.00000045,0.000000
 17,-0.00000124,0.00000123,-0.00000181,-0.00000174,-0.00000094,0.000000
 06,0.00000152,0.00000176,0.00000152,-0.00000266,0.00000013,0.00000077,
 0.00000042,-0.00000089,0.00000199,-0.00000141,-0.00000003,0.00000059,0
 .00000048,-0.00000032,0.00000107,0.00000025,-0.00000207,0.00000037,0.0
 0000028,-0.00000027,0.00000106,-0.00000130,-0.00000228,0.00000248,-0.0
 0000029,0.00000219,0.00000396,0.00000154,0.00000163,0.00000141,0.00000
 084,0.00000477,0.00000049,-0.00000148,-0.00001356,0.00000101,0.0000028
 1,0.00000512,0.00000189,0.00000452,-0.00000115,0.00000271,-0.00000071,
 0.00001388,-0.00000262,0.00000763,-0.00002676,-0.00000152,0.00000391,-
 0.00001762,-0.00000362,0.00000204,0.00000205,-0.00000166,-0.00000198,-
 0.00000049,-0.00000114,0.00000232,0.00000010,-0.00000685,0.00000161,0.
 00000024,-0.00000122,-0.00000409,-0.00000030,-0.00000050,0.00000047,0.
 00000020,-0.00000164,-0.00000113,0.00000581,-0.00000304,-0.00000082,-0
 .00000050,-0.00000137,-0.00000120,-0.00000163,-0.00000167,-0.00000261,
 0.00000029,-0.00000217,-0.00000104,0.00000046,0.00000070,-0.00000112,0
 .00000012,0.00000023,0.00000040,0.00000097,0.00000128,-0.00000069,0.00
 000015,0.00000098,-0.00000036,-0.00000020,-0.00000002,0.00000048,0.000
 00028,0.00000417,-0.00000042,-0.00000032,0.00000083,0.00000099,-0.0000
 0060,0.00000268,0.00000118,0.00000034,-0.00000006,-0.00000077,0.000001
 05,0.00000193,0.00000112,0.00000006,-0.00000479,0.00000020,0.00000065,
 -0.00000002,0.00000029,-0.00000151,0.00000011,0.00000071,-0.00000632,-
 0.00000727,-0.00001252,-0.00001139,-0.00000975,0.00001946,-0.00000284,
 -0.00000220,-0.00000055,0.00004605,0.00003556,-0.00002254,-0.00001263,
 -0.00000868,0.00000674,0.00000627,0.00000154,-0.00000077\\\@
 The archive entry for this job was punched.


 Standing in the middle of the road is very dangerous;
 you get knocked down by the traffic from both sides.
                                -- Margaret Thatcher
 Job cpu time:       8 days  4 hours 30 minutes  5.1 seconds.
 Elapsed time:       0 days  4 hours 16 minutes 55.8 seconds.
 File lengths (MBytes):  RWF=  18395 Int=      0 D2E=      0 Chk=    164 Scr=      2
 Normal termination of Gaussian 16 at Thu Mar  9 21:29:03 2023.
