 Entering Gaussian System, Link 0=/apps/GAU16/avx2/g16/g16
 Initial command:
 /apps/GAU16/avx2/g16/l1.exe "/localscratch/chesha/scratch/Gau-189268.inp" -scrdir="/localscratch/chesha/scratch/"
 Entering Link 1 = /apps/GAU16/avx2/g16/l1.exe PID=    189269.
  
 Copyright (c) 1988-2019, Gaussian, Inc.  All Rights Reserved.
  
 This is part of the Gaussian(R) 16 program.  It is based on
 the Gaussian(R) 09 system (copyright 2009, Gaussian, Inc.),
 the Gaussian(R) 03 system (copyright 2003, Gaussian, Inc.),
 the Gaussian(R) 98 system (copyright 1998, Gaussian, Inc.),
 the Gaussian(R) 94 system (copyright 1995, Gaussian, Inc.),
 the Gaussian 92(TM) system (copyright 1992, Gaussian, Inc.),
 the Gaussian 90(TM) system (copyright 1990, Gaussian, Inc.),
 the Gaussian 88(TM) system (copyright 1988, Gaussian, Inc.),
 the Gaussian 86(TM) system (copyright 1986, Carnegie Mellon
 University), and the Gaussian 82(TM) system (copyright 1983,
 Carnegie Mellon University). Gaussian is a federally registered
 trademark of Gaussian, Inc.
  
 This software contains proprietary and confidential information,
 including trade secrets, belonging to Gaussian, Inc.
  
 This software is provided under written license and may be
 used, copied, transmitted, or stored only in accord with that
 written license.
  
 The following legend is applicable only to US Government
 contracts under FAR:
  
                    RESTRICTED RIGHTS LEGEND
  
 Use, reproduction and disclosure by the US Government is
 subject to restrictions as set forth in subparagraphs (a)
 and (c) of the Commercial Computer Software - Restricted
 Rights clause in FAR 52.227-19.
  
 Gaussian, Inc.
 340 Quinnipiac St., Bldg. 40, Wallingford CT 06492
  
  
 ---------------------------------------------------------------
 Warning -- This program may not be used in any manner that
 competes with the business of Gaussian, Inc. or will provide
 assistance to any competitor of Gaussian, Inc.  The licensee
 of this program is prohibited from giving any competitor of
 Gaussian, Inc. access to this program.  By using this program,
 the user acknowledges that Gaussian, Inc. is engaged in the
 business of creating and licensing software in the field of
 computational chemistry and represents and warrants to the
 licensee that it is not a competitor of Gaussian, Inc. and that
 it will not use this program in any manner prohibited above.
 ---------------------------------------------------------------
  

 Cite this work as:
 Gaussian 16, Revision C.01,
 M. J. Frisch, G. W. Trucks, H. B. Schlegel, G. E. Scuseria, 
 M. A. Robb, J. R. Cheeseman, G. Scalmani, V. Barone, 
 G. A. Petersson, H. Nakatsuji, X. Li, M. Caricato, A. V. Marenich, 
 J. Bloino, B. G. Janesko, R. Gomperts, B. Mennucci, H. P. Hratchian, 
 J. V. Ortiz, A. F. Izmaylov, J. L. Sonnenberg, D. Williams-Young, 
 F. Ding, F. Lipparini, F. Egidi, J. Goings, B. Peng, A. Petrone, 
 T. Henderson, D. Ranasinghe, V. G. Zakrzewski, J. Gao, N. Rega, 
 G. Zheng, W. Liang, M. Hada, M. Ehara, K. Toyota, R. Fukuda, 
 J. Hasegawa, M. Ishida, T. Nakajima, Y. Honda, O. Kitao, H. Nakai, 
 T. Vreven, K. Throssell, J. A. Montgomery, Jr., J. E. Peralta, 
 F. Ogliaro, M. J. Bearpark, J. J. Heyd, E. N. Brothers, K. N. Kudin, 
 V. N. Staroverov, T. A. Keith, R. Kobayashi, J. Normand, 
 K. Raghavachari, A. P. Rendell, J. C. Burant, S. S. Iyengar, 
 J. Tomasi, M. Cossi, J. M. Millam, M. Klene, C. Adamo, R. Cammi, 
 J. W. Ochterski, R. L. Martin, K. Morokuma, O. Farkas, 
 J. B. Foresman, and D. J. Fox, Gaussian, Inc., Wallingford CT, 2019.
 
 ******************************************
 Gaussian 16:  ES64L-G16RevC.01  3-Jul-2019
                 7-Mar-2023 
 ******************************************
 %nprocshared=48
 Will use up to   48 processors via shared memory.
 %chk=Mo20S47_Szz_Mo_H2S.chk
 %mem=100GB
 ----------------------------------------------------------
 # opt freq b3lyp/gen nosymm pseudo=read scf=maxcycles=1000
 ----------------------------------------------------------
 1/18=20,19=15,26=3,38=1/1,3;
 2/9=110,12=2,15=1,17=6,18=5,40=1/2;
 3/5=7,11=2,16=1,17=8,25=1,30=1,71=1,74=-5/1,2,3;
 4//1;
 5/5=2,7=1000,38=5/2;
 6/7=2,8=2,9=2,10=2,28=1/1;
 7/30=1/1,2,3,16;
 1/18=20,19=15,26=3/3(2);
 2/9=110,15=1/2;
 99//99;
 2/9=110,15=1/2;
 3/5=7,6=1,11=2,16=1,17=8,25=1,30=1,71=1,74=-5,82=7/1,2,3;
 4/5=5,16=3,69=1/1;
 5/5=2,7=1000,38=5/2;
 7/30=1/1,2,3,16;
 1/18=20,19=15,26=3/3(-5);
 2/9=110,15=1/2;
 6/7=2,8=2,9=2,10=2,19=2,28=1/1;
 99/9=1/99;
 -------------------
 Title Card Required
 -------------------
 Symbolic Z-matrix:
 Charge =  0 Multiplicity = 1
 42                    0.31439   1.18291   12.57929 
 16                    2.23178   2.30331   13.60094 
 16                   -0.82138   1.68836   14.75347 
 16                   -0.4005    0.75738   10.31387 
 16                    2.07787  -0.44186   12.06291 
 42                   -2.08107   2.43268   10.87909 
 16                   -2.80945   2.04138   8.59818 
 16                   -0.16012   3.46037   11.9355 
 42                    0.97381   2.73253   9.89077 
 16                    0.25067   2.29002   7.60731 
 16                    2.69605   1.08394   9.33998 
 42                    3.41798   1.53672   11.61148 
 42                   -1.39016   3.97349   8.1728 
 16                    5.42693   2.73978   12.6921 
 16                    2.91886   3.80391   10.90731 
 16                   -2.52886   4.7187    10.19233 
 16                    1.09325   6.65935   6.44478 
 42                   -4.47242   3.7375    9.12169 
 16                   -5.96593   1.69529   9.62652 
 16                   -5.64      4.501     11.29584 
 42                    2.69042   0.08978   14.33061 
 16                    4.88399   0.65461   15.43282 
 16                    1.64393   0.59249   16.31347 
 42                    1.57677   4.26764   7.18201 
 16                    0.81667   3.82901   4.78965 
 16                    0.51251   5.0284    9.21898 
 42                    4.03503   3.05457   8.88822 
 16                    3.27706   2.60792   6.61191 
 16                    3.52773   5.3342    8.18648 
 42                    4.47462   4.62366   6.09688 
 16                    6.84204   5.33235   6.59098 
 16                    4.07264   6.8661    5.45601 
 42                    2.12863   5.81974   4.43724 
 16                    3.81225   4.15256   3.87937 
 16                   -1.80209   6.55614   3.85164 
 42                   -0.75563   5.53863   5.40251 
 16                   -2.15383   3.58647   5.8377 
 16                   -1.87259   6.29903   7.4349 
 42                   -3.81859   5.21156   6.50277 
 16                   -5.17346   3.20976   6.81497 
 16                   -5.32885   6.17949   5.12946 
 42                   -5.01339   2.13495   11.92721 
 16                   -3.18969   3.21501   13.04286 
 16                   -3.52823   0.3759    11.30046 
 42                   -2.84403   0.89938   13.53079 
 16                   -1.1593   -0.84572   13.01168 
 16                   -4.07166   0.08528   15.04953 
 42                   -0.17714  -0.6966    15.19344 
 16                    1.48529  -2.11024   14.68633 
 16                   -1.28069  -1.66083   16.72341 
 42                    5.94592   0.51861   13.1973 
 16                    5.22312  -0.20986   11.08398 
 16                    8.48427   1.64298   10.76956 
 42                    6.38038   1.89527   10.60271 
 16                    5.81196   1.33265   8.26431 
 16                    6.05991   4.23846   9.8955 
 42                    7.06822   3.29549   8.00232 
 16                    9.18494   3.09871   8.02363 
 16                    1.84973   6.89748   2.63554 
 16                    7.97672   0.14747   13.66952 
 16                   -6.60607   1.54623   13.20508 
 16                   -4.86044   6.0982    8.51994 
 16                    4.79479  -1.25651   14.53022 
 16                    6.66906   3.5003    5.55369 
 42                   -7.44964   3.28406   10.46792 
 16                   -8.13081   4.43105   8.64297 
 16                   -9.23394   2.8397    11.56032 
 42                   -6.50436   5.12242   7.14886 
 16                   -7.82486   7.46812   7.20714 
 1                    -9.13712   7.18513   7.0653 
 1                    -7.6996    7.96894   5.95901 
 

 GradGradGradGradGradGradGradGradGradGradGradGradGradGradGradGradGradGrad
 Berny optimization.
 Initialization pass.
                           ----------------------------
                           !    Initial Parameters    !
                           ! (Angstroms and Degrees)  !
 --------------------------                            --------------------------
 ! Name  Definition              Value          Derivative Info.                !
 --------------------------------------------------------------------------------
 ! R1    R(1,2)                  2.4445         estimate D2E/DX2                !
 ! R2    R(1,3)                  2.5045         estimate D2E/DX2                !
 ! R3    R(1,4)                  2.4133         estimate D2E/DX2                !
 ! R4    R(1,5)                  2.4528         estimate D2E/DX2                !
 ! R5    R(1,8)                  2.4138         estimate D2E/DX2                !
 ! R6    R(1,46)                 2.5444         estimate D2E/DX2                !
 ! R7    R(2,12)                 2.4398         estimate D2E/DX2                !
 ! R8    R(2,21)                 2.3754         estimate D2E/DX2                !
 ! R9    R(3,45)                 2.4917         estimate D2E/DX2                !
 ! R10   R(3,48)                 2.5093         estimate D2E/DX2                !
 ! R11   R(4,6)                  2.4394         estimate D2E/DX2                !
 ! R12   R(4,9)                  2.4431         estimate D2E/DX2                !
 ! R13   R(5,12)                 2.432          estimate D2E/DX2                !
 ! R14   R(5,21)                 2.4084         estimate D2E/DX2                !
 ! R15   R(6,7)                  2.4261         estimate D2E/DX2                !
 ! R16   R(6,8)                  2.4212         estimate D2E/DX2                !
 ! R17   R(6,16)                 2.4286         estimate D2E/DX2                !
 ! R18   R(6,43)                 2.554          estimate D2E/DX2                !
 ! R19   R(6,44)                 2.5499         estimate D2E/DX2                !
 ! R20   R(7,13)                 2.4348         estimate D2E/DX2                !
 ! R21   R(7,18)                 2.4324         estimate D2E/DX2                !
 ! R22   R(8,9)                  2.4488         estimate D2E/DX2                !
 ! R23   R(9,10)                 2.4358         estimate D2E/DX2                !
 ! R24   R(9,11)                 2.4469         estimate D2E/DX2                !
 ! R25   R(9,15)                 2.4422         estimate D2E/DX2                !
 ! R26   R(9,26)                 2.4362         estimate D2E/DX2                !
 ! R27   R(10,13)                2.4179         estimate D2E/DX2                !
 ! R28   R(10,24)                2.4188         estimate D2E/DX2                !
 ! R29   R(11,12)                2.4261         estimate D2E/DX2                !
 ! R30   R(11,27)                2.4249         estimate D2E/DX2                !
 ! R31   R(12,14)                2.5789         estimate D2E/DX2                !
 ! R32   R(12,15)                2.4259         estimate D2E/DX2                !
 ! R33   R(12,52)                2.5666         estimate D2E/DX2                !
 ! R34   R(13,16)                2.4353         estimate D2E/DX2                !
 ! R35   R(13,26)                2.414          estimate D2E/DX2                !
 ! R36   R(13,37)                2.4871         estimate D2E/DX2                !
 ! R37   R(13,38)                2.487          estimate D2E/DX2                !
 ! R38   R(14,51)                2.3363         estimate D2E/DX2                !
 ! R39   R(14,54)                2.447          estimate D2E/DX2                !
 ! R40   R(15,27)                2.4257         estimate D2E/DX2                !
 ! R41   R(16,18)                2.4262         estimate D2E/DX2                !
 ! R42   R(17,24)                2.549          estimate D2E/DX2                !
 ! R43   R(17,33)                2.4098         estimate D2E/DX2                !
 ! R44   R(17,36)                2.4001         estimate D2E/DX2                !
 ! R45   R(18,19)                2.5799         estimate D2E/DX2                !
 ! R46   R(18,20)                2.5832         estimate D2E/DX2                !
 ! R47   R(18,39)                3.0756         estimate D2E/DX2                !
 ! R48   R(18,40)                2.468          estimate D2E/DX2                !
 ! R49   R(18,62)                2.4669         estimate D2E/DX2                !
 ! R50   R(19,42)                2.5286         estimate D2E/DX2                !
 ! R51   R(19,65)                2.331          estimate D2E/DX2                !
 ! R52   R(20,42)                2.5277         estimate D2E/DX2                !
 ! R53   R(20,65)                2.3326         estimate D2E/DX2                !
 ! R54   R(21,22)                2.5191         estimate D2E/DX2                !
 ! R55   R(21,23)                2.2977         estimate D2E/DX2                !
 ! R56   R(21,48)                3.0961         estimate D2E/DX2                !
 ! R57   R(21,49)                2.5336         estimate D2E/DX2                !
 ! R58   R(21,63)                2.5061         estimate D2E/DX2                !
 ! R59   R(22,51)                2.4787         estimate D2E/DX2                !
 ! R60   R(22,63)                2.1154         estimate D2E/DX2                !
 ! R61   R(23,48)                2.4965         estimate D2E/DX2                !
 ! R62   R(24,25)                2.5482         estimate D2E/DX2                !
 ! R63   R(24,26)                2.4209         estimate D2E/DX2                !
 ! R64   R(24,28)                2.4435         estimate D2E/DX2                !
 ! R65   R(24,29)                2.4398         estimate D2E/DX2                !
 ! R66   R(24,30)                3.1148         estimate D2E/DX2                !
 ! R67   R(25,33)                2.4101         estimate D2E/DX2                !
 ! R68   R(25,36)                2.4022         estimate D2E/DX2                !
 ! R69   R(27,28)                2.4404         estimate D2E/DX2                !
 ! R70   R(27,29)                2.4385         estimate D2E/DX2                !
 ! R71   R(27,55)                2.5518         estimate D2E/DX2                !
 ! R72   R(27,56)                2.5527         estimate D2E/DX2                !
 ! R73   R(28,30)                2.4005         estimate D2E/DX2                !
 ! R74   R(29,30)                2.4016         estimate D2E/DX2                !
 ! R75   R(30,31)                2.5201         estimate D2E/DX2                !
 ! R76   R(30,32)                2.3666         estimate D2E/DX2                !
 ! R77   R(30,33)                3.1127         estimate D2E/DX2                !
 ! R78   R(30,34)                2.3618         estimate D2E/DX2                !
 ! R79   R(30,64)                2.5244         estimate D2E/DX2                !
 ! R80   R(31,57)                2.4883         estimate D2E/DX2                !
 ! R81   R(31,64)                2.1124         estimate D2E/DX2                !
 ! R82   R(32,33)                2.4315         estimate D2E/DX2                !
 ! R83   R(33,34)                2.4342         estimate D2E/DX2                !
 ! R84   R(33,36)                3.0545         estimate D2E/DX2                !
 ! R85   R(33,59)                2.1179         estimate D2E/DX2                !
 ! R86   R(35,36)                2.1297         estimate D2E/DX2                !
 ! R87   R(36,37)                2.4403         estimate D2E/DX2                !
 ! R88   R(36,38)                2.4406         estimate D2E/DX2                !
 ! R89   R(37,39)                2.4196         estimate D2E/DX2                !
 ! R90   R(38,39)                2.4163         estimate D2E/DX2                !
 ! R91   R(39,40)                2.4373         estimate D2E/DX2                !
 ! R92   R(39,41)                2.2591         estimate D2E/DX2                !
 ! R93   R(39,62)                2.4373         estimate D2E/DX2                !
 ! R94   R(39,68)                2.7638         estimate D2E/DX2                !
 ! R95   R(40,68)                2.3539         estimate D2E/DX2                !
 ! R96   R(41,68)                2.5646         estimate D2E/DX2                !
 ! R97   R(42,43)                2.3952         estimate D2E/DX2                !
 ! R98   R(42,44)                2.386          estimate D2E/DX2                !
 ! R99   R(42,45)                2.9672         estimate D2E/DX2                !
 ! R100  R(42,61)                2.1251         estimate D2E/DX2                !
 ! R101  R(42,65)                3.0635         estimate D2E/DX2                !
 ! R102  R(43,45)                2.3916         estimate D2E/DX2                !
 ! R103  R(44,45)                2.3909         estimate D2E/DX2                !
 ! R104  R(45,46)                2.4806         estimate D2E/DX2                !
 ! R105  R(45,47)                2.1157         estimate D2E/DX2                !
 ! R106  R(46,48)                2.3973         estimate D2E/DX2                !
 ! R107  R(48,49)                2.2404         estimate D2E/DX2                !
 ! R108  R(48,50)                2.1186         estimate D2E/DX2                !
 ! R109  R(51,52)                2.3493         estimate D2E/DX2                !
 ! R110  R(51,54)                2.9691         estimate D2E/DX2                !
 ! R111  R(51,60)                2.1178         estimate D2E/DX2                !
 ! R112  R(51,63)                2.5006         estimate D2E/DX2                !
 ! R113  R(52,54)                2.45           estimate D2E/DX2                !
 ! R114  R(53,54)                2.1255         estimate D2E/DX2                !
 ! R115  R(54,55)                2.4714         estimate D2E/DX2                !
 ! R116  R(54,56)                2.4685         estimate D2E/DX2                !
 ! R117  R(54,57)                3.0325         estimate D2E/DX2                !
 ! R118  R(55,57)                2.3451         estimate D2E/DX2                !
 ! R119  R(56,57)                2.3431         estimate D2E/DX2                !
 ! R120  R(57,58)                2.126          estimate D2E/DX2                !
 ! R121  R(57,64)                2.4894         estimate D2E/DX2                !
 ! R122  R(62,68)                2.3526         estimate D2E/DX2                !
 ! R123  R(65,66)                2.2605         estimate D2E/DX2                !
 ! R124  R(65,67)                2.1388         estimate D2E/DX2                !
 ! R125  R(66,68)                2.3142         estimate D2E/DX2                !
 ! R126  R(68,69)                2.6925         estimate D2E/DX2                !
 ! R127  R(69,70)                1.3499         estimate D2E/DX2                !
 ! R128  R(69,71)                1.3507         estimate D2E/DX2                !
 ! A1    A(2,1,3)               84.2829         estimate D2E/DX2                !
 ! A2    A(2,1,4)              134.8693         estimate D2E/DX2                !
 ! A3    A(2,1,5)               80.076          estimate D2E/DX2                !
 ! A4    A(2,1,8)               80.3989         estimate D2E/DX2                !
 ! A5    A(2,1,46)             138.4779         estimate D2E/DX2                !
 ! A6    A(3,1,4)              135.7375         estimate D2E/DX2                !
 ! A7    A(3,1,5)              129.9771         estimate D2E/DX2                !
 ! A8    A(3,1,8)               87.2469         estimate D2E/DX2                !
 ! A9    A(3,1,46)              75.5654         estimate D2E/DX2                !
 ! A10   A(4,1,5)               84.1776         estimate D2E/DX2                !
 ! A11   A(4,1,8)               81.8233         estimate D2E/DX2                !
 ! A12   A(4,1,46)              81.221          estimate D2E/DX2                !
 ! A13   A(5,1,8)              135.2491         estimate D2E/DX2                !
 ! A14   A(5,1,46)              85.6447         estimate D2E/DX2                !
 ! A15   A(8,1,46)             133.1351         estimate D2E/DX2                !
 ! A16   A(1,2,12)              84.0616         estimate D2E/DX2                !
 ! A17   A(1,2,21)              81.5309         estimate D2E/DX2                !
 ! A18   A(12,2,21)             82.1728         estimate D2E/DX2                !
 ! A19   A(1,3,45)              83.0063         estimate D2E/DX2                !
 ! A20   A(1,3,48)              81.0232         estimate D2E/DX2                !
 ! A21   A(45,3,48)             89.6275         estimate D2E/DX2                !
 ! A22   A(1,4,6)               82.269          estimate D2E/DX2                !
 ! A23   A(1,4,9)               81.5693         estimate D2E/DX2                !
 ! A24   A(6,4,9)               82.6714         estimate D2E/DX2                !
 ! A25   A(1,5,12)              84.0502         estimate D2E/DX2                !
 ! A26   A(1,5,21)              80.7011         estimate D2E/DX2                !
 ! A27   A(12,5,21)             81.6648         estimate D2E/DX2                !
 ! A28   A(4,6,7)               83.0059         estimate D2E/DX2                !
 ! A29   A(4,6,8)               81.1417         estimate D2E/DX2                !
 ! A30   A(4,6,16)             135.0701         estimate D2E/DX2                !
 ! A31   A(4,6,43)             134.8879         estimate D2E/DX2                !
 ! A32   A(4,6,44)              82.8379         estimate D2E/DX2                !
 ! A33   A(7,6,8)              135.795          estimate D2E/DX2                !
 ! A34   A(7,6,16)              80.2475         estimate D2E/DX2                !
 ! A35   A(7,6,43)             135.6902         estimate D2E/DX2                !
 ! A36   A(7,6,44)              81.6557         estimate D2E/DX2                !
 ! A37   A(8,6,16)              82.5381         estimate D2E/DX2                !
 ! A38   A(8,6,43)              81.0668         estimate D2E/DX2                !
 ! A39   A(8,6,44)             136.0985         estimate D2E/DX2                !
 ! A40   A(16,6,43)             82.6003         estimate D2E/DX2                !
 ! A41   A(16,6,44)            134.5344         estimate D2E/DX2                !
 ! A42   A(43,6,44)             81.9942         estimate D2E/DX2                !
 ! A43   A(6,7,13)              82.0252         estimate D2E/DX2                !
 ! A44   A(6,7,18)              83.7106         estimate D2E/DX2                !
 ! A45   A(13,7,18)             83.2689         estimate D2E/DX2                !
 ! A46   A(1,8,6)               82.6376         estimate D2E/DX2                !
 ! A47   A(1,8,9)               81.4446         estimate D2E/DX2                !
 ! A48   A(6,8,9)               82.9289         estimate D2E/DX2                !
 ! A49   A(4,9,8)               80.5149         estimate D2E/DX2                !
 ! A50   A(4,9,10)              81.285          estimate D2E/DX2                !
 ! A51   A(4,9,11)              83.6972         estimate D2E/DX2                !
 ! A52   A(4,9,15)             136.9349         estimate D2E/DX2                !
 ! A53   A(4,9,26)             134.6778         estimate D2E/DX2                !
 ! A54   A(8,9,10)             134.3722         estimate D2E/DX2                !
 ! A55   A(8,9,11)             135.5724         estimate D2E/DX2                !
 ! A56   A(8,9,15)              83.7332         estimate D2E/DX2                !
 ! A57   A(8,9,26)              82.095          estimate D2E/DX2                !
 ! A58   A(10,9,11)             82.8502         estimate D2E/DX2                !
 ! A59   A(10,9,15)            134.939          estimate D2E/DX2                !
 ! A60   A(10,9,26)             81.7483         estimate D2E/DX2                !
 ! A61   A(11,9,15)             80.1367         estimate D2E/DX2                !
 ! A62   A(11,9,26)            134.9213         estimate D2E/DX2                !
 ! A63   A(15,9,26)             81.4982         estimate D2E/DX2                !
 ! A64   A(9,10,13)             81.705          estimate D2E/DX2                !
 ! A65   A(9,10,24)             81.578          estimate D2E/DX2                !
 ! A66   A(13,10,24)            81.02           estimate D2E/DX2                !
 ! A67   A(9,11,12)             82.7008         estimate D2E/DX2                !
 ! A68   A(9,11,27)             83.2844         estimate D2E/DX2                !
 ! A69   A(12,11,27)            81.8625         estimate D2E/DX2                !
 ! A70   A(2,12,5)              80.5814         estimate D2E/DX2                !
 ! A71   A(2,12,11)            132.6426         estimate D2E/DX2                !
 ! A72   A(2,12,14)             83.7125         estimate D2E/DX2                !
 ! A73   A(2,12,15)             80.9681         estimate D2E/DX2                !
 ! A74   A(2,12,52)            136.3319         estimate D2E/DX2                !
 ! A75   A(5,12,11)             81.8357         estimate D2E/DX2                !
 ! A76   A(5,12,14)            136.9699         estimate D2E/DX2                !
 ! A77   A(5,12,15)            134.4945         estimate D2E/DX2                !
 ! A78   A(5,12,52)             82.6502         estimate D2E/DX2                !
 ! A79   A(11,12,14)           135.3309         estimate D2E/DX2                !
 ! A80   A(11,12,15)            80.8757         estimate D2E/DX2                !
 ! A81   A(11,12,52)            83.6764         estimate D2E/DX2                !
 ! A82   A(14,12,15)            81.137          estimate D2E/DX2                !
 ! A83   A(14,12,52)            81.7029         estimate D2E/DX2                !
 ! A84   A(15,12,52)           136.1395         estimate D2E/DX2                !
 ! A85   A(7,13,10)             83.3351         estimate D2E/DX2                !
 ! A86   A(7,13,16)             79.9432         estimate D2E/DX2                !
 ! A87   A(7,13,26)            136.9274         estimate D2E/DX2                !
 ! A88   A(7,13,37)             82.0426         estimate D2E/DX2                !
 ! A89   A(7,13,38)            132.9034         estimate D2E/DX2                !
 ! A90   A(10,13,16)           136.4128         estimate D2E/DX2                !
 ! A91   A(10,13,26)            82.5733         estimate D2E/DX2                !
 ! A92   A(10,13,37)            83.1335         estimate D2E/DX2                !
 ! A93   A(10,13,38)           135.5034         estimate D2E/DX2                !
 ! A94   A(16,13,26)            82.8438         estimate D2E/DX2                !
 ! A95   A(16,13,37)           133.0511         estimate D2E/DX2                !
 ! A96   A(16,13,38)            82.4848         estimate D2E/DX2                !
 ! A97   A(26,13,37)           135.7995         estimate D2E/DX2                !
 ! A98   A(26,13,38)            82.6953         estimate D2E/DX2                !
 ! A99   A(37,13,38)            78.8945         estimate D2E/DX2                !
 ! A100  A(12,14,51)            79.6387         estimate D2E/DX2                !
 ! A101  A(12,14,54)            77.5696         estimate D2E/DX2                !
 ! A102  A(9,15,12)             82.8014         estimate D2E/DX2                !
 ! A103  A(9,15,27)             83.3668         estimate D2E/DX2                !
 ! A104  A(12,15,27)            81.8498         estimate D2E/DX2                !
 ! A105  A(6,16,13)             81.9667         estimate D2E/DX2                !
 ! A106  A(6,16,18)             83.7894         estimate D2E/DX2                !
 ! A107  A(13,16,18)            83.3889         estimate D2E/DX2                !
 ! A108  A(24,17,33)            80.3592         estimate D2E/DX2                !
 ! A109  A(24,17,36)            80.4212         estimate D2E/DX2                !
 ! A110  A(7,18,16)             80.1713         estimate D2E/DX2                !
 ! A111  A(7,18,19)             83.4493         estimate D2E/DX2                !
 ! A112  A(7,18,20)            134.1275         estimate D2E/DX2                !
 ! A113  A(7,18,39)             90.3206         estimate D2E/DX2                !
 ! A114  A(7,18,40)             81.021          estimate D2E/DX2                !
 ! A115  A(7,18,62)            136.2477         estimate D2E/DX2                !
 ! A116  A(16,18,19)           134.228          estimate D2E/DX2                !
 ! A117  A(16,18,20)            82.5966         estimate D2E/DX2                !
 ! A118  A(16,18,39)            90.6667         estimate D2E/DX2                !
 ! A119  A(16,18,40)           136.5916         estimate D2E/DX2                !
 ! A120  A(16,18,62)            81.1781         estimate D2E/DX2                !
 ! A121  A(19,18,20)            78.9082         estimate D2E/DX2                !
 ! A122  A(19,18,39)           131.9957         estimate D2E/DX2                !
 ! A123  A(19,18,40)            81.3259         estimate D2E/DX2                !
 ! A124  A(19,18,62)           135.5758         estimate D2E/DX2                !
 ! A125  A(20,18,39)           132.1526         estimate D2E/DX2                !
 ! A126  A(20,18,40)           136.175          estimate D2E/DX2                !
 ! A127  A(20,18,62)            81.4525         estimate D2E/DX2                !
 ! A128  A(40,18,62)            86.0986         estimate D2E/DX2                !
 ! A129  A(18,19,42)            79.7658         estimate D2E/DX2                !
 ! A130  A(18,19,65)            84.2366         estimate D2E/DX2                !
 ! A131  A(18,20,42)            79.7188         estimate D2E/DX2                !
 ! A132  A(18,20,65)            84.1301         estimate D2E/DX2                !
 ! A133  A(2,21,5)              82.3779         estimate D2E/DX2                !
 ! A134  A(2,21,22)             95.3704         estimate D2E/DX2                !
 ! A135  A(2,21,23)             88.4684         estimate D2E/DX2                !
 ! A136  A(2,21,48)             98.2482         estimate D2E/DX2                !
 ! A137  A(2,21,49)            139.5052         estimate D2E/DX2                !
 ! A138  A(2,21,63)            133.4079         estimate D2E/DX2                !
 ! A139  A(5,21,22)            133.0757         estimate D2E/DX2                !
 ! A140  A(5,21,23)            138.1597         estimate D2E/DX2                !
 ! A141  A(5,21,48)             88.3249         estimate D2E/DX2                !
 ! A142  A(5,21,49)             79.6033         estimate D2E/DX2                !
 ! A143  A(5,21,63)             99.7867         estimate D2E/DX2                !
 ! A144  A(22,21,23)            88.2783         estimate D2E/DX2                !
 ! A145  A(22,21,48)           137.8618         estimate D2E/DX2                !
 ! A146  A(22,21,49)           123.194          estimate D2E/DX2                !
 ! A147  A(23,21,49)            81.499          estimate D2E/DX2                !
 ! A148  A(23,21,63)           115.5454         estimate D2E/DX2                !
 ! A149  A(48,21,63)           128.248          estimate D2E/DX2                !
 ! A150  A(49,21,63)            85.5122         estimate D2E/DX2                !
 ! A151  A(21,22,51)            88.0597         estimate D2E/DX2                !
 ! A152  A(10,24,17)           135.5622         estimate D2E/DX2                !
 ! A153  A(10,24,25)            81.9987         estimate D2E/DX2                !
 ! A154  A(10,24,26)            82.4126         estimate D2E/DX2                !
 ! A155  A(10,24,28)            82.3666         estimate D2E/DX2                !
 ! A156  A(10,24,29)           136.3382         estimate D2E/DX2                !
 ! A157  A(10,24,30)           131.6659         estimate D2E/DX2                !
 ! A158  A(17,24,25)            80.4098         estimate D2E/DX2                !
 ! A159  A(17,24,26)            82.2477         estimate D2E/DX2                !
 ! A160  A(17,24,28)           134.5743         estimate D2E/DX2                !
 ! A161  A(17,24,29)            81.9861         estimate D2E/DX2                !
 ! A162  A(17,24,30)            88.1934         estimate D2E/DX2                !
 ! A163  A(25,24,26)           135.4718         estimate D2E/DX2                !
 ! A164  A(25,24,28)            82.623          estimate D2E/DX2                !
 ! A165  A(25,24,29)           134.4495         estimate D2E/DX2                !
 ! A166  A(25,24,30)            88.2877         estimate D2E/DX2                !
 ! A167  A(26,24,28)           135.6981         estimate D2E/DX2                !
 ! A168  A(26,24,29)            82.4002         estimate D2E/DX2                !
 ! A169  A(26,24,30)           131.7757         estimate D2E/DX2                !
 ! A170  A(28,24,29)            80.5937         estimate D2E/DX2                !
 ! A171  A(24,25,33)            80.3702         estimate D2E/DX2                !
 ! A172  A(24,25,36)            80.3989         estimate D2E/DX2                !
 ! A173  A(9,26,13)             81.7743         estimate D2E/DX2                !
 ! A174  A(9,26,24)             81.5258         estimate D2E/DX2                !
 ! A175  A(13,26,24)            81.0553         estimate D2E/DX2                !
 ! A176  A(11,27,15)            80.9032         estimate D2E/DX2                !
 ! A177  A(11,27,28)            81.578          estimate D2E/DX2                !
 ! A178  A(11,27,29)           134.3011         estimate D2E/DX2                !
 ! A179  A(11,27,55)            83.2051         estimate D2E/DX2                !
 ! A180  A(11,27,56)           137.8488         estimate D2E/DX2                !
 ! A181  A(15,27,28)           133.6317         estimate D2E/DX2                !
 ! A182  A(15,27,29)            81.6638         estimate D2E/DX2                !
 ! A183  A(15,27,55)           137.0864         estimate D2E/DX2                !
 ! A184  A(15,27,56)            83.874          estimate D2E/DX2                !
 ! A185  A(28,27,29)            80.6805         estimate D2E/DX2                !
 ! A186  A(28,27,55)            82.2251         estimate D2E/DX2                !
 ! A187  A(28,27,56)           134.3714         estimate D2E/DX2                !
 ! A188  A(29,27,55)           134.8548         estimate D2E/DX2                !
 ! A189  A(29,27,56)            81.0842         estimate D2E/DX2                !
 ! A190  A(55,27,56)            81.7827         estimate D2E/DX2                !
 ! A191  A(24,28,27)            82.772          estimate D2E/DX2                !
 ! A192  A(27,28,30)            83.7706         estimate D2E/DX2                !
 ! A193  A(24,29,27)            82.8868         estimate D2E/DX2                !
 ! A194  A(27,29,30)            83.7875         estimate D2E/DX2                !
 ! A195  A(24,30,31)           146.9107         estimate D2E/DX2                !
 ! A196  A(24,30,32)            92.5571         estimate D2E/DX2                !
 ! A197  A(24,30,33)            61.8663         estimate D2E/DX2                !
 ! A198  A(24,30,34)            92.486          estimate D2E/DX2                !
 ! A199  A(24,30,64)           146.3931         estimate D2E/DX2                !
 ! A200  A(28,30,29)            82.2455         estimate D2E/DX2                !
 ! A201  A(28,30,31)           131.507          estimate D2E/DX2                !
 ! A202  A(28,30,32)           140.2648         estimate D2E/DX2                !
 ! A203  A(28,30,33)            93.5008         estimate D2E/DX2                !
 ! A204  A(28,30,34)            83.9173         estimate D2E/DX2                !
 ! A205  A(28,30,64)            96.0941         estimate D2E/DX2                !
 ! A206  A(29,30,31)            96.6955         estimate D2E/DX2                !
 ! A207  A(29,30,32)            83.5872         estimate D2E/DX2                !
 ! A208  A(29,30,33)            93.0419         estimate D2E/DX2                !
 ! A209  A(29,30,34)           139.9388         estimate D2E/DX2                !
 ! A210  A(29,30,64)           131.4228         estimate D2E/DX2                !
 ! A211  A(31,30,32)            86.9159         estimate D2E/DX2                !
 ! A212  A(31,30,33)           134.7892         estimate D2E/DX2                !
 ! A213  A(31,30,34)           120.241          estimate D2E/DX2                !
 ! A214  A(32,30,34)            83.518          estimate D2E/DX2                !
 ! A215  A(32,30,64)           120.7331         estimate D2E/DX2                !
 ! A216  A(33,30,64)           135.3529         estimate D2E/DX2                !
 ! A217  A(34,30,64)            87.3064         estimate D2E/DX2                !
 ! A218  A(30,31,57)            88.0746         estimate D2E/DX2                !
 ! A219  A(17,33,25)            86.1061         estimate D2E/DX2                !
 ! A220  A(17,33,30)            90.7749         estimate D2E/DX2                !
 ! A221  A(17,33,32)            81.0557         estimate D2E/DX2                !
 ! A222  A(17,33,34)           136.6124         estimate D2E/DX2                !
 ! A223  A(17,33,59)           118.3477         estimate D2E/DX2                !
 ! A224  A(25,33,30)            90.8548         estimate D2E/DX2                !
 ! A225  A(25,33,32)           136.8391         estimate D2E/DX2                !
 ! A226  A(25,33,34)            81.0423         estimate D2E/DX2                !
 ! A227  A(25,33,59)           118.2318         estimate D2E/DX2                !
 ! A228  A(30,33,36)           120.5196         estimate D2E/DX2                !
 ! A229  A(30,33,59)           138.4503         estimate D2E/DX2                !
 ! A230  A(32,33,34)            80.6635         estimate D2E/DX2                !
 ! A231  A(32,33,36)           131.4657         estimate D2E/DX2                !
 ! A232  A(32,33,59)           104.0484         estimate D2E/DX2                !
 ! A233  A(34,33,36)           131.4915         estimate D2E/DX2                !
 ! A234  A(34,33,59)           104.1609         estimate D2E/DX2                !
 ! A235  A(36,33,59)           101.0301         estimate D2E/DX2                !
 ! A236  A(17,36,25)            86.4978         estimate D2E/DX2                !
 ! A237  A(17,36,35)           118.1414         estimate D2E/DX2                !
 ! A238  A(17,36,37)           137.5141         estimate D2E/DX2                !
 ! A239  A(17,36,38)            81.1088         estimate D2E/DX2                !
 ! A240  A(25,36,35)           118.4147         estimate D2E/DX2                !
 ! A241  A(25,36,37)            81.4419         estimate D2E/DX2                !
 ! A242  A(25,36,38)           137.2014         estimate D2E/DX2                !
 ! A243  A(33,36,35)           100.9461         estimate D2E/DX2                !
 ! A244  A(33,36,37)           132.1446         estimate D2E/DX2                !
 ! A245  A(33,36,38)           131.8092         estimate D2E/DX2                !
 ! A246  A(35,36,37)           103.3282         estimate D2E/DX2                !
 ! A247  A(35,36,38)           103.4552         estimate D2E/DX2                !
 ! A248  A(37,36,38)            80.7068         estimate D2E/DX2                !
 ! A249  A(13,37,36)            82.3584         estimate D2E/DX2                !
 ! A250  A(13,37,39)            81.2968         estimate D2E/DX2                !
 ! A251  A(36,37,39)            84.6036         estimate D2E/DX2                !
 ! A252  A(13,38,36)            82.3549         estimate D2E/DX2                !
 ! A253  A(13,38,39)            81.3642         estimate D2E/DX2                !
 ! A254  A(36,38,39)            84.6703         estimate D2E/DX2                !
 ! A255  A(18,39,37)            93.3492         estimate D2E/DX2                !
 ! A256  A(18,39,38)            93.3492         estimate D2E/DX2                !
 ! A257  A(18,39,41)           125.5113         estimate D2E/DX2                !
 ! A258  A(18,39,68)            65.096          estimate D2E/DX2                !
 ! A259  A(37,39,38)            81.6158         estimate D2E/DX2                !
 ! A260  A(37,39,40)            82.3023         estimate D2E/DX2                !
 ! A261  A(37,39,41)           125.4942         estimate D2E/DX2                !
 ! A262  A(37,39,62)           139.9869         estimate D2E/DX2                !
 ! A263  A(37,39,68)           135.3312         estimate D2E/DX2                !
 ! A264  A(38,39,40)           140.1685         estimate D2E/DX2                !
 ! A265  A(38,39,41)           125.4559         estimate D2E/DX2                !
 ! A266  A(38,39,62)            82.0254         estimate D2E/DX2                !
 ! A267  A(38,39,68)           134.9883         estimate D2E/DX2                !
 ! A268  A(40,39,41)            93.3334         estimate D2E/DX2                !
 ! A269  A(40,39,62)            87.4292         estimate D2E/DX2                !
 ! A270  A(41,39,62)            93.5249         estimate D2E/DX2                !
 ! A271  A(18,40,68)            81.621          estimate D2E/DX2                !
 ! A272  A(19,42,20)            80.9153         estimate D2E/DX2                !
 ! A273  A(19,42,43)           142.0948         estimate D2E/DX2                !
 ! A274  A(19,42,44)            82.3739         estimate D2E/DX2                !
 ! A275  A(19,42,45)           134.0067         estimate D2E/DX2                !
 ! A276  A(19,42,61)           102.5107         estimate D2E/DX2                !
 ! A277  A(20,42,43)            83.2815         estimate D2E/DX2                !
 ! A278  A(20,42,44)           141.1497         estimate D2E/DX2                !
 ! A279  A(20,42,45)           134.9106         estimate D2E/DX2                !
 ! A280  A(20,42,61)           102.9272         estimate D2E/DX2                !
 ! A281  A(43,42,44)            88.9034         estimate D2E/DX2                !
 ! A282  A(43,42,61)           114.5483         estimate D2E/DX2                !
 ! A283  A(43,42,65)           131.1644         estimate D2E/DX2                !
 ! A284  A(44,42,61)           114.8485         estimate D2E/DX2                !
 ! A285  A(44,42,65)           130.272          estimate D2E/DX2                !
 ! A286  A(45,42,61)            96.1773         estimate D2E/DX2                !
 ! A287  A(61,42,65)            78.1322         estimate D2E/DX2                !
 ! A288  A(6,43,42)             78.332          estimate D2E/DX2                !
 ! A289  A(6,43,45)             79.253          estimate D2E/DX2                !
 ! A290  A(6,44,42)             78.5801         estimate D2E/DX2                !
 ! A291  A(6,44,45)             79.3472         estimate D2E/DX2                !
 ! A292  A(3,45,42)            136.6211         estimate D2E/DX2                !
 ! A293  A(3,45,43)             84.8853         estimate D2E/DX2                !
 ! A294  A(3,45,44)            139.4079         estimate D2E/DX2                !
 ! A295  A(3,45,46)             76.9456         estimate D2E/DX2                !
 ! A296  A(3,45,47)            103.9225         estimate D2E/DX2                !
 ! A297  A(42,45,46)           132.5634         estimate D2E/DX2                !
 ! A298  A(42,45,47)            97.1203         estimate D2E/DX2                !
 ! A299  A(43,45,44)            88.8722         estimate D2E/DX2                !
 ! A300  A(43,45,46)           137.4453         estimate D2E/DX2                !
 ! A301  A(43,45,47)           115.7949         estimate D2E/DX2                !
 ! A302  A(44,45,46)            81.0896         estimate D2E/DX2                !
 ! A303  A(44,45,47)           114.7919         estimate D2E/DX2                !
 ! A304  A(46,45,47)           105.8786         estimate D2E/DX2                !
 ! A305  A(1,46,45)             82.4166         estimate D2E/DX2                !
 ! A306  A(1,46,48)             82.4018         estimate D2E/DX2                !
 ! A307  A(45,46,48)            92.5241         estimate D2E/DX2                !
 ! A308  A(3,48,21)             86.9919         estimate D2E/DX2                !
 ! A309  A(3,48,23)             77.0074         estimate D2E/DX2                !
 ! A310  A(3,48,46)             78.1333         estimate D2E/DX2                !
 ! A311  A(3,48,49)            138.6375         estimate D2E/DX2                !
 ! A312  A(3,48,50)            115.1801         estimate D2E/DX2                !
 ! A313  A(21,48,46)            98.1421         estimate D2E/DX2                !
 ! A314  A(21,48,50)           143.0632         estimate D2E/DX2                !
 ! A315  A(23,48,46)           137.6704         estimate D2E/DX2                !
 ! A316  A(23,48,49)            83.4592         estimate D2E/DX2                !
 ! A317  A(23,48,50)           106.9166         estimate D2E/DX2                !
 ! A318  A(46,48,49)            93.3686         estimate D2E/DX2                !
 ! A319  A(46,48,50)           114.5522         estimate D2E/DX2                !
 ! A320  A(49,48,50)           105.2362         estimate D2E/DX2                !
 ! A321  A(14,51,22)            92.7334         estimate D2E/DX2                !
 ! A322  A(14,51,52)            91.8298         estimate D2E/DX2                !
 ! A323  A(14,51,60)           115.3317         estimate D2E/DX2                !
 ! A324  A(14,51,63)           133.4652         estimate D2E/DX2                !
 ! A325  A(22,51,52)           134.148          estimate D2E/DX2                !
 ! A326  A(22,51,54)           145.627          estimate D2E/DX2                !
 ! A327  A(22,51,60)           102.6704         estimate D2E/DX2                !
 ! A328  A(52,51,60)           116.1856         estimate D2E/DX2                !
 ! A329  A(52,51,63)            96.7625         estimate D2E/DX2                !
 ! A330  A(54,51,60)            97.8045         estimate D2E/DX2                !
 ! A331  A(54,51,63)           149.5767         estimate D2E/DX2                !
 ! A332  A(60,51,63)           101.4304         estimate D2E/DX2                !
 ! A333  A(12,52,51)            79.6593         estimate D2E/DX2                !
 ! A334  A(12,52,54)            77.7529         estimate D2E/DX2                !
 ! A335  A(14,54,52)            86.8337         estimate D2E/DX2                !
 ! A336  A(14,54,53)           111.0767         estimate D2E/DX2                !
 ! A337  A(14,54,55)           142.8312         estimate D2E/DX2                !
 ! A338  A(14,54,56)            82.3248         estimate D2E/DX2                !
 ! A339  A(14,54,57)           131.3932         estimate D2E/DX2                !
 ! A340  A(51,54,53)            91.2152         estimate D2E/DX2                !
 ! A341  A(51,54,55)           133.4418         estimate D2E/DX2                !
 ! A342  A(51,54,56)           132.1818         estimate D2E/DX2                !
 ! A343  A(52,54,53)           110.4959         estimate D2E/DX2                !
 ! A344  A(52,54,55)            83.201          estimate D2E/DX2                !
 ! A345  A(52,54,56)           144.1531         estimate D2E/DX2                !
 ! A346  A(52,54,57)           132.2479         estimate D2E/DX2                !
 ! A347  A(53,54,55)           105.9567         estimate D2E/DX2                !
 ! A348  A(53,54,56)           105.2875         estimate D2E/DX2                !
 ! A349  A(53,54,57)            84.1226         estimate D2E/DX2                !
 ! A350  A(55,54,56)            85.1329         estimate D2E/DX2                !
 ! A351  A(27,55,54)            77.0089         estimate D2E/DX2                !
 ! A352  A(27,55,57)            80.5348         estimate D2E/DX2                !
 ! A353  A(27,56,54)            77.0437         estimate D2E/DX2                !
 ! A354  A(27,56,57)            80.5542         estimate D2E/DX2                !
 ! A355  A(31,57,54)           147.5349         estimate D2E/DX2                !
 ! A356  A(31,57,55)           134.4108         estimate D2E/DX2                !
 ! A357  A(31,57,56)            95.1483         estimate D2E/DX2                !
 ! A358  A(31,57,58)            99.9015         estimate D2E/DX2                !
 ! A359  A(54,57,58)           100.0499         estimate D2E/DX2                !
 ! A360  A(54,57,64)           147.6824         estimate D2E/DX2                !
 ! A361  A(55,57,56)            90.9196         estimate D2E/DX2                !
 ! A362  A(55,57,58)           117.0504         estimate D2E/DX2                !
 ! A363  A(55,57,64)            95.3278         estimate D2E/DX2                !
 ! A364  A(56,57,58)           117.2336         estimate D2E/DX2                !
 ! A365  A(56,57,64)           133.84           estimate D2E/DX2                !
 ! A366  A(58,57,64)           100.2022         estimate D2E/DX2                !
 ! A367  A(18,62,68)            81.6717         estimate D2E/DX2                !
 ! A368  A(21,63,51)            87.8648         estimate D2E/DX2                !
 ! A369  A(30,64,57)            87.9567         estimate D2E/DX2                !
 ! A370  A(19,65,20)            89.4213         estimate D2E/DX2                !
 ! A371  A(19,65,66)           104.2545         estimate D2E/DX2                !
 ! A372  A(19,65,67)           125.0133         estimate D2E/DX2                !
 ! A373  A(20,65,66)           104.8089         estimate D2E/DX2                !
 ! A374  A(20,65,67)           125.0512         estimate D2E/DX2                !
 ! A375  A(42,65,66)           144.5384         estimate D2E/DX2                !
 ! A376  A(42,65,67)           110.0114         estimate D2E/DX2                !
 ! A377  A(66,65,67)           105.4481         estimate D2E/DX2                !
 ! A378  A(65,66,68)           117.4529         estimate D2E/DX2                !
 ! A379  A(39,68,66)           147.5127         estimate D2E/DX2                !
 ! A380  A(39,68,69)           116.9718         estimate D2E/DX2                !
 ! A381  A(40,68,41)            87.9407         estimate D2E/DX2                !
 ! A382  A(40,68,62)            91.4095         estimate D2E/DX2                !
 ! A383  A(40,68,66)           104.2524         estimate D2E/DX2                !
 ! A384  A(41,68,62)            88.1464         estimate D2E/DX2                !
 ! A385  A(41,68,66)           162.4851         estimate D2E/DX2                !
 ! A386  A(41,68,69)            83.2668         estimate D2E/DX2                !
 ! A387  A(62,68,66)           103.8125         estimate D2E/DX2                !
 ! A388  A(62,68,69)            88.2087         estimate D2E/DX2                !
 ! A389  A(66,68,69)            84.3535         estimate D2E/DX2                !
 ! A390  A(68,69,70)           106.9689         estimate D2E/DX2                !
 ! A391  A(68,69,71)           104.9246         estimate D2E/DX2                !
 ! A392  A(70,69,71)            94.0595         estimate D2E/DX2                !
 ! A393  L(45,42,65,61,-1)     174.3094         estimate D2E/DX2                !
 ! A394  L(51,54,57,53,-1)     175.3378         estimate D2E/DX2                !
 ! A395  L(40,68,69,41,-1)     171.2075         estimate D2E/DX2                !
 ! A396  L(45,42,65,61,-2)     180.4929         estimate D2E/DX2                !
 ! A397  L(51,54,57,53,-2)     180.6638         estimate D2E/DX2                !
 ! A398  L(40,68,69,41,-2)     180.1078         estimate D2E/DX2                !
 ! D1    D(3,1,2,12)           172.6057         estimate D2E/DX2                !
 ! D2    D(3,1,2,21)            89.6676         estimate D2E/DX2                !
 ! D3    D(4,1,2,12)           -31.0635         estimate D2E/DX2                !
 ! D4    D(4,1,2,21)          -114.0015         estimate D2E/DX2                !
 ! D5    D(5,1,2,12)            40.3053         estimate D2E/DX2                !
 ! D6    D(5,1,2,21)           -42.6327         estimate D2E/DX2                !
 ! D7    D(8,1,2,12)           -99.2295         estimate D2E/DX2                !
 ! D8    D(8,1,2,21)           177.8325         estimate D2E/DX2                !
 ! D9    D(46,1,2,12)          112.0109         estimate D2E/DX2                !
 ! D10   D(46,1,2,21)           29.0729         estimate D2E/DX2                !
 ! D11   D(2,1,3,45)           170.761          estimate D2E/DX2                !
 ! D12   D(2,1,3,48)           -98.5086         estimate D2E/DX2                !
 ! D13   D(4,1,3,45)            14.8183         estimate D2E/DX2                !
 ! D14   D(4,1,3,48)           105.5487         estimate D2E/DX2                !
 ! D15   D(5,1,3,45)          -117.2959         estimate D2E/DX2                !
 ! D16   D(5,1,3,48)           -26.5656         estimate D2E/DX2                !
 ! D17   D(8,1,3,45)            90.1421         estimate D2E/DX2                !
 ! D18   D(8,1,3,48)          -179.1275         estimate D2E/DX2                !
 ! D19   D(46,1,3,45)          -45.8465         estimate D2E/DX2                !
 ! D20   D(46,1,3,48)           44.8839         estimate D2E/DX2                !
 ! D21   D(2,1,4,6)           -108.5722         estimate D2E/DX2                !
 ! D22   D(2,1,4,9)            -24.8884         estimate D2E/DX2                !
 ! D23   D(3,1,4,6)             36.5148         estimate D2E/DX2                !
 ! D24   D(3,1,4,9)            120.1986         estimate D2E/DX2                !
 ! D25   D(5,1,4,6)           -178.3329         estimate D2E/DX2                !
 ! D26   D(5,1,4,9)            -94.6491         estimate D2E/DX2                !
 ! D27   D(8,1,4,6)            -40.9545         estimate D2E/DX2                !
 ! D28   D(8,1,4,9)             42.7293         estimate D2E/DX2                !
 ! D29   D(46,1,4,6)            95.1926         estimate D2E/DX2                !
 ! D30   D(46,1,4,9)           178.8764         estimate D2E/DX2                !
 ! D31   D(2,1,5,12)           -40.4635         estimate D2E/DX2                !
 ! D32   D(2,1,5,21)            42.0308         estimate D2E/DX2                !
 ! D33   D(3,1,5,12)          -114.2832         estimate D2E/DX2                !
 ! D34   D(3,1,5,21)           -31.7889         estimate D2E/DX2                !
 ! D35   D(4,1,5,12)            97.0777         estimate D2E/DX2                !
 ! D36   D(4,1,5,21)           179.572          estimate D2E/DX2                !
 ! D37   D(8,1,5,12)            24.8918         estimate D2E/DX2                !
 ! D38   D(8,1,5,21)           107.3861         estimate D2E/DX2                !
 ! D39   D(46,1,5,12)          178.6771         estimate D2E/DX2                !
 ! D40   D(46,1,5,21)          -98.8286         estimate D2E/DX2                !
 ! D41   D(2,1,8,6)            179.6312         estimate D2E/DX2                !
 ! D42   D(2,1,8,9)             95.7208         estimate D2E/DX2                !
 ! D43   D(3,1,8,6)            -95.7058         estimate D2E/DX2                !
 ! D44   D(3,1,8,9)           -179.6162         estimate D2E/DX2                !
 ! D45   D(4,1,8,6)             41.2856         estimate D2E/DX2                !
 ! D46   D(4,1,8,9)            -42.6249         estimate D2E/DX2                !
 ! D47   D(5,1,8,6)            114.3967         estimate D2E/DX2                !
 ! D48   D(5,1,8,9)             30.4863         estimate D2E/DX2                !
 ! D49   D(46,1,8,6)           -28.4764         estimate D2E/DX2                !
 ! D50   D(46,1,8,9)          -112.3869         estimate D2E/DX2                !
 ! D51   D(2,1,46,45)          109.7107         estimate D2E/DX2                !
 ! D52   D(2,1,46,48)           16.1227         estimate D2E/DX2                !
 ! D53   D(3,1,46,45)           46.1905         estimate D2E/DX2                !
 ! D54   D(3,1,46,48)          -47.3974         estimate D2E/DX2                !
 ! D55   D(4,1,46,45)          -95.8095         estimate D2E/DX2                !
 ! D56   D(4,1,46,48)          170.6025         estimate D2E/DX2                !
 ! D57   D(5,1,46,45)          179.4222         estimate D2E/DX2                !
 ! D58   D(5,1,46,48)           85.8342         estimate D2E/DX2                !
 ! D59   D(8,1,46,45)          -25.8024         estimate D2E/DX2                !
 ! D60   D(8,1,46,48)         -119.3904         estimate D2E/DX2                !
 ! D61   D(1,2,12,5)           -40.6494         estimate D2E/DX2                !
 ! D62   D(1,2,12,11)           28.9574         estimate D2E/DX2                !
 ! D63   D(1,2,12,14)          179.555          estimate D2E/DX2                !
 ! D64   D(1,2,12,15)           97.5703         estimate D2E/DX2                !
 ! D65   D(1,2,12,52)         -109.452          estimate D2E/DX2                !
 ! D66   D(21,2,12,5)           41.5824         estimate D2E/DX2                !
 ! D67   D(21,2,12,11)         111.1893         estimate D2E/DX2                !
 ! D68   D(21,2,12,14)         -98.2131         estimate D2E/DX2                !
 ! D69   D(21,2,12,15)         179.8021         estimate D2E/DX2                !
 ! D70   D(21,2,12,52)         -27.2201         estimate D2E/DX2                !
 ! D71   D(1,2,21,5)            43.2774         estimate D2E/DX2                !
 ! D72   D(1,2,21,22)          176.0827         estimate D2E/DX2                !
 ! D73   D(1,2,21,23)          -95.7913         estimate D2E/DX2                !
 ! D74   D(1,2,21,48)          -43.9026         estimate D2E/DX2                !
 ! D75   D(1,2,21,49)          -20.8042         estimate D2E/DX2                !
 ! D76   D(1,2,21,63)          139.5628         estimate D2E/DX2                !
 ! D77   D(12,2,21,5)          -41.8401         estimate D2E/DX2                !
 ! D78   D(12,2,21,22)          90.9653         estimate D2E/DX2                !
 ! D79   D(12,2,21,23)         179.0912         estimate D2E/DX2                !
 ! D80   D(12,2,21,48)        -129.02           estimate D2E/DX2                !
 ! D81   D(12,2,21,49)        -105.9217         estimate D2E/DX2                !
 ! D82   D(12,2,21,63)          54.4454         estimate D2E/DX2                !
 ! D83   D(1,3,45,42)          -92.937          estimate D2E/DX2                !
 ! D84   D(1,3,45,43)          -94.2337         estimate D2E/DX2                !
 ! D85   D(1,3,45,44)          -11.9825         estimate D2E/DX2                !
 ! D86   D(1,3,45,46)           47.0225         estimate D2E/DX2                !
 ! D87   D(1,3,45,47)          150.4303         estimate D2E/DX2                !
 ! D88   D(48,3,45,42)        -173.9385         estimate D2E/DX2                !
 ! D89   D(48,3,45,43)        -175.2351         estimate D2E/DX2                !
 ! D90   D(48,3,45,44)         -92.9839         estimate D2E/DX2                !
 ! D91   D(48,3,45,46)         -33.979          estimate D2E/DX2                !
 ! D92   D(48,3,45,47)          69.4289         estimate D2E/DX2                !
 ! D93   D(1,3,48,21)           51.1405         estimate D2E/DX2                !
 ! D94   D(1,3,48,23)           97.6306         estimate D2E/DX2                !
 ! D95   D(1,3,48,46)          -47.8322         estimate D2E/DX2                !
 ! D96   D(1,3,48,49)           33.6686         estimate D2E/DX2                !
 ! D97   D(1,3,48,50)         -159.572          estimate D2E/DX2                !
 ! D98   D(45,3,48,21)         134.1188         estimate D2E/DX2                !
 ! D99   D(45,3,48,23)        -179.3911         estimate D2E/DX2                !
 ! D100  D(45,3,48,46)          35.1461         estimate D2E/DX2                !
 ! D101  D(45,3,48,49)         116.6468         estimate D2E/DX2                !
 ! D102  D(45,3,48,50)         -76.5937         estimate D2E/DX2                !
 ! D103  D(1,4,6,7)            179.4869         estimate D2E/DX2                !
 ! D104  D(1,4,6,8)             40.8911         estimate D2E/DX2                !
 ! D105  D(1,4,6,16)           110.8718         estimate D2E/DX2                !
 ! D106  D(1,4,6,43)           -26.9571         estimate D2E/DX2                !
 ! D107  D(1,4,6,44)           -98.095          estimate D2E/DX2                !
 ! D108  D(9,4,6,7)             97.0558         estimate D2E/DX2                !
 ! D109  D(9,4,6,8)            -41.54           estimate D2E/DX2                !
 ! D110  D(9,4,6,16)            28.4406         estimate D2E/DX2                !
 ! D111  D(9,4,6,43)          -109.3882         estimate D2E/DX2                !
 ! D112  D(9,4,6,44)           179.4739         estimate D2E/DX2                !
 ! D113  D(1,4,9,8)            -42.1615         estimate D2E/DX2                !
 ! D114  D(1,4,9,10)           179.8593         estimate D2E/DX2                !
 ! D115  D(1,4,9,11)            96.1603         estimate D2E/DX2                !
 ! D116  D(1,4,9,15)            27.9107         estimate D2E/DX2                !
 ! D117  D(1,4,9,26)          -110.9815         estimate D2E/DX2                !
 ! D118  D(6,4,9,8)             41.059          estimate D2E/DX2                !
 ! D119  D(6,4,9,10)           -96.9203         estimate D2E/DX2                !
 ! D120  D(6,4,9,11)           179.3807         estimate D2E/DX2                !
 ! D121  D(6,4,9,15)           111.1312         estimate D2E/DX2                !
 ! D122  D(6,4,9,26)           -27.761          estimate D2E/DX2                !
 ! D123  D(1,5,12,2)            40.4833         estimate D2E/DX2                !
 ! D124  D(1,5,12,11)          -95.3659         estimate D2E/DX2                !
 ! D125  D(1,5,12,14)          110.5829         estimate D2E/DX2                !
 ! D126  D(1,5,12,15)          -26.8068         estimate D2E/DX2                !
 ! D127  D(1,5,12,52)         -179.9901         estimate D2E/DX2                !
 ! D128  D(21,5,12,2)          -40.9521         estimate D2E/DX2                !
 ! D129  D(21,5,12,11)        -176.8013         estimate D2E/DX2                !
 ! D130  D(21,5,12,14)          29.1475         estimate D2E/DX2                !
 ! D131  D(21,5,12,15)        -108.2422         estimate D2E/DX2                !
 ! D132  D(21,5,12,52)          98.5746         estimate D2E/DX2                !
 ! D133  D(1,5,21,2)           -43.2157         estimate D2E/DX2                !
 ! D134  D(1,5,21,22)         -133.4536         estimate D2E/DX2                !
 ! D135  D(1,5,21,23)           35.8382         estimate D2E/DX2                !
 ! D136  D(1,5,21,48)           55.3368         estimate D2E/DX2                !
 ! D137  D(1,5,21,49)          100.3564         estimate D2E/DX2                !
 ! D138  D(1,5,21,63)         -176.0959         estimate D2E/DX2                !
 ! D139  D(12,5,21,2)           42.071          estimate D2E/DX2                !
 ! D140  D(12,5,21,22)         -48.167          estimate D2E/DX2                !
 ! D141  D(12,5,21,23)         121.1249         estimate D2E/DX2                !
 ! D142  D(12,5,21,48)         140.6235         estimate D2E/DX2                !
 ! D143  D(12,5,21,49)        -174.357          estimate D2E/DX2                !
 ! D144  D(12,5,21,63)         -90.8092         estimate D2E/DX2                !
 ! D145  D(4,6,7,13)           -95.0201         estimate D2E/DX2                !
 ! D146  D(4,6,7,18)          -179.0718         estimate D2E/DX2                !
 ! D147  D(8,6,7,13)           -25.425          estimate D2E/DX2                !
 ! D148  D(8,6,7,18)          -109.4767         estimate D2E/DX2                !
 ! D149  D(16,6,7,13)           43.1239         estimate D2E/DX2                !
 ! D150  D(16,6,7,18)          -40.9278         estimate D2E/DX2                !
 ! D151  D(43,6,7,13)          111.8305         estimate D2E/DX2                !
 ! D152  D(43,6,7,18)           27.7789         estimate D2E/DX2                !
 ! D153  D(44,6,7,13)         -178.7647         estimate D2E/DX2                !
 ! D154  D(44,6,7,18)           97.1837         estimate D2E/DX2                !
 ! D155  D(4,6,8,1)            -40.8394         estimate D2E/DX2                !
 ! D156  D(4,6,8,9)             41.3948         estimate D2E/DX2                !
 ! D157  D(7,6,8,1)           -111.1458         estimate D2E/DX2                !
 ! D158  D(7,6,8,9)            -28.9116         estimate D2E/DX2                !
 ! D159  D(16,6,8,1)          -178.8314         estimate D2E/DX2                !
 ! D160  D(16,6,8,9)           -96.5971         estimate D2E/DX2                !
 ! D161  D(43,6,8,1)            97.5357         estimate D2E/DX2                !
 ! D162  D(43,6,8,9)           179.7699         estimate D2E/DX2                !
 ! D163  D(44,6,8,1)            29.045          estimate D2E/DX2                !
 ! D164  D(44,6,8,9)           111.2792         estimate D2E/DX2                !
 ! D165  D(4,6,16,13)           26.5589         estimate D2E/DX2                !
 ! D166  D(4,6,16,18)          110.7277         estimate D2E/DX2                !
 ! D167  D(7,6,16,13)          -43.1223         estimate D2E/DX2                !
 ! D168  D(7,6,16,18)           41.0465         estimate D2E/DX2                !
 ! D169  D(8,6,16,13)           95.998          estimate D2E/DX2                !
 ! D170  D(8,6,16,18)         -179.8332         estimate D2E/DX2                !
 ! D171  D(43,6,16,13)         177.8973         estimate D2E/DX2                !
 ! D172  D(43,6,16,18)         -97.9339         estimate D2E/DX2                !
 ! D173  D(44,6,16,13)        -111.0563         estimate D2E/DX2                !
 ! D174  D(44,6,16,18)         -26.8875         estimate D2E/DX2                !
 ! D175  D(4,6,43,42)         -111.0899         estimate D2E/DX2                !
 ! D176  D(4,6,43,45)          -32.711          estimate D2E/DX2                !
 ! D177  D(7,6,43,42)           29.6558         estimate D2E/DX2                !
 ! D178  D(7,6,43,45)          108.0347         estimate D2E/DX2                !
 ! D179  D(8,6,43,42)         -178.9669         estimate D2E/DX2                !
 ! D180  D(8,6,43,45)         -100.588          estimate D2E/DX2                !
 ! D181  D(16,6,43,42)          97.4725         estimate D2E/DX2                !
 ! D182  D(16,6,43,45)         175.8514         estimate D2E/DX2                !
 ! D183  D(44,6,43,42)         -39.62           estimate D2E/DX2                !
 ! D184  D(44,6,43,45)          38.7589         estimate D2E/DX2                !
 ! D185  D(4,6,44,42)          177.1496         estimate D2E/DX2                !
 ! D186  D(4,6,44,45)           98.6299         estimate D2E/DX2                !
 ! D187  D(7,6,44,42)          -98.9126         estimate D2E/DX2                !
 ! D188  D(7,6,44,45)         -177.4323         estimate D2E/DX2                !
 ! D189  D(8,6,44,42)          107.9058         estimate D2E/DX2                !
 ! D190  D(8,6,44,45)           29.3862         estimate D2E/DX2                !
 ! D191  D(16,6,44,42)         -31.5244         estimate D2E/DX2                !
 ! D192  D(16,6,44,45)        -110.0441         estimate D2E/DX2                !
 ! D193  D(43,6,44,42)          39.7624         estimate D2E/DX2                !
 ! D194  D(43,6,44,45)         -38.7572         estimate D2E/DX2                !
 ! D195  D(6,7,13,10)           96.5575         estimate D2E/DX2                !
 ! D196  D(6,7,13,16)          -43.0266         estimate D2E/DX2                !
 ! D197  D(6,7,13,26)           24.9515         estimate D2E/DX2                !
 ! D198  D(6,7,13,37)         -179.4816         estimate D2E/DX2                !
 ! D199  D(6,7,13,38)         -112.7739         estimate D2E/DX2                !
 ! D200  D(18,7,13,10)        -178.8854         estimate D2E/DX2                !
 ! D201  D(18,7,13,16)          41.5305         estimate D2E/DX2                !
 ! D202  D(18,7,13,26)         109.5086         estimate D2E/DX2                !
 ! D203  D(18,7,13,37)         -94.9245         estimate D2E/DX2                !
 ! D204  D(18,7,13,38)         -28.2168         estimate D2E/DX2                !
 ! D205  D(6,7,18,16)           40.988          estimate D2E/DX2                !
 ! D206  D(6,7,18,19)          -96.1043         estimate D2E/DX2                !
 ! D207  D(6,7,18,20)          -28.5102         estimate D2E/DX2                !
 ! D208  D(6,7,18,39)          131.6091         estimate D2E/DX2                !
 ! D209  D(6,7,18,40)         -178.3141         estimate D2E/DX2                !
 ! D210  D(6,7,18,62)          107.0321         estimate D2E/DX2                !
 ! D211  D(13,7,18,16)         -41.6846         estimate D2E/DX2                !
 ! D212  D(13,7,18,19)        -178.7769         estimate D2E/DX2                !
 ! D213  D(13,7,18,20)        -111.1828         estimate D2E/DX2                !
 ! D214  D(13,7,18,39)          48.9365         estimate D2E/DX2                !
 ! D215  D(13,7,18,40)          99.0132         estimate D2E/DX2                !
 ! D216  D(13,7,18,62)          24.3595         estimate D2E/DX2                !
 ! D217  D(1,8,9,4)             42.1685         estimate D2E/DX2                !
 ! D218  D(1,8,9,10)           109.9361         estimate D2E/DX2                !
 ! D219  D(1,8,9,11)           -28.596          estimate D2E/DX2                !
 ! D220  D(1,8,9,15)           -97.6056         estimate D2E/DX2                !
 ! D221  D(1,8,9,26)          -179.8523         estimate D2E/DX2                !
 ! D222  D(6,8,9,4)            -41.4056         estimate D2E/DX2                !
 ! D223  D(6,8,9,10)            26.3621         estimate D2E/DX2                !
 ! D224  D(6,8,9,11)          -112.1701         estimate D2E/DX2                !
 ! D225  D(6,8,9,15)           178.8203         estimate D2E/DX2                !
 ! D226  D(6,8,9,26)            96.5736         estimate D2E/DX2                !
 ! D227  D(4,9,10,13)           96.9757         estimate D2E/DX2                !
 ! D228  D(4,9,10,24)          179.0509         estimate D2E/DX2                !
 ! D229  D(8,9,10,13)           29.5075         estimate D2E/DX2                !
 ! D230  D(8,9,10,24)          111.5828         estimate D2E/DX2                !
 ! D231  D(11,9,10,13)        -178.3437         estimate D2E/DX2                !
 ! D232  D(11,9,10,24)         -96.2684         estimate D2E/DX2                !
 ! D233  D(15,9,10,13)        -110.0015         estimate D2E/DX2                !
 ! D234  D(15,9,10,24)         -27.9263         estimate D2E/DX2                !
 ! D235  D(26,9,10,13)         -40.8413         estimate D2E/DX2                !
 ! D236  D(26,9,10,24)          41.2339         estimate D2E/DX2                !
 ! D237  D(4,9,11,12)          -98.2914         estimate D2E/DX2                !
 ! D238  D(4,9,11,27)          179.0978         estimate D2E/DX2                !
 ! D239  D(8,9,11,12)          -28.7496         estimate D2E/DX2                !
 ! D240  D(8,9,11,27)         -111.3604         estimate D2E/DX2                !
 ! D241  D(10,9,11,12)         179.7438         estimate D2E/DX2                !
 ! D242  D(10,9,11,27)          97.133          estimate D2E/DX2                !
 ! D243  D(15,9,11,12)          41.638          estimate D2E/DX2                !
 ! D244  D(15,9,11,27)         -40.9728         estimate D2E/DX2                !
 ! D245  D(26,9,11,12)         108.9746         estimate D2E/DX2                !
 ! D246  D(26,9,11,27)          26.3639         estimate D2E/DX2                !
 ! D247  D(4,9,15,12)           27.9309         estimate D2E/DX2                !
 ! D248  D(4,9,15,27)          110.5093         estimate D2E/DX2                !
 ! D249  D(8,9,15,12)           96.8136         estimate D2E/DX2                !
 ! D250  D(8,9,15,27)          179.3919         estimate D2E/DX2                !
 ! D251  D(10,9,15,12)        -111.0221         estimate D2E/DX2                !
 ! D252  D(10,9,15,27)         -28.4438         estimate D2E/DX2                !
 ! D253  D(11,9,15,12)         -41.6298         estimate D2E/DX2                !
 ! D254  D(11,9,15,27)          40.9485         estimate D2E/DX2                !
 ! D255  D(26,9,15,12)         179.7207         estimate D2E/DX2                !
 ! D256  D(26,9,15,27)         -97.701          estimate D2E/DX2                !
 ! D257  D(4,9,26,13)          -28.0666         estimate D2E/DX2                !
 ! D258  D(4,9,26,24)         -110.1754         estimate D2E/DX2                !
 ! D259  D(8,9,26,13)          -96.2726         estimate D2E/DX2                !
 ! D260  D(8,9,26,24)         -178.3814         estimate D2E/DX2                !
 ! D261  D(10,9,26,13)          40.912          estimate D2E/DX2                !
 ! D262  D(10,9,26,24)         -41.1968         estimate D2E/DX2                !
 ! D263  D(11,9,26,13)         112.1136         estimate D2E/DX2                !
 ! D264  D(11,9,26,24)          30.0048         estimate D2E/DX2                !
 ! D265  D(15,9,26,13)         178.9298         estimate D2E/DX2                !
 ! D266  D(15,9,26,24)          96.821          estimate D2E/DX2                !
 ! D267  D(9,10,13,7)          -97.9941         estimate D2E/DX2                !
 ! D268  D(9,10,13,16)         -30.1893         estimate D2E/DX2                !
 ! D269  D(9,10,13,26)          41.1987         estimate D2E/DX2                !
 ! D270  D(9,10,13,37)         179.2625         estimate D2E/DX2                !
 ! D271  D(9,10,13,38)         112.8011         estimate D2E/DX2                !
 ! D272  D(24,10,13,7)         179.2911         estimate D2E/DX2                !
 ! D273  D(24,10,13,16)       -112.9041         estimate D2E/DX2                !
 ! D274  D(24,10,13,26)        -41.5161         estimate D2E/DX2                !
 ! D275  D(24,10,13,37)         96.5477         estimate D2E/DX2                !
 ! D276  D(24,10,13,38)         30.0863         estimate D2E/DX2                !
 ! D277  D(9,10,24,17)        -112.1895         estimate D2E/DX2                !
 ! D278  D(9,10,24,25)        -179.6299         estimate D2E/DX2                !
 ! D279  D(9,10,24,26)         -41.471          estimate D2E/DX2                !
 ! D280  D(9,10,24,28)          96.7997         estimate D2E/DX2                !
 ! D281  D(9,10,24,29)          29.0884         estimate D2E/DX2                !
 ! D282  D(9,10,24,30)          99.8953         estimate D2E/DX2                !
 ! D283  D(13,10,24,17)        -29.3273         estimate D2E/DX2                !
 ! D284  D(13,10,24,25)        -96.7676         estimate D2E/DX2                !
 ! D285  D(13,10,24,26)         41.3912         estimate D2E/DX2                !
 ! D286  D(13,10,24,28)        179.6619         estimate D2E/DX2                !
 ! D287  D(13,10,24,29)        111.9506         estimate D2E/DX2                !
 ! D288  D(13,10,24,30)       -177.2425         estimate D2E/DX2                !
 ! D289  D(9,11,12,2)           26.7808         estimate D2E/DX2                !
 ! D290  D(9,11,12,5)           95.8729         estimate D2E/DX2                !
 ! D291  D(9,11,12,14)        -109.2606         estimate D2E/DX2                !
 ! D292  D(9,11,12,15)         -41.8698         estimate D2E/DX2                !
 ! D293  D(9,11,12,52)         179.3195         estimate D2E/DX2                !
 ! D294  D(27,11,12,2)         110.9967         estimate D2E/DX2                !
 ! D295  D(27,11,12,5)        -179.9112         estimate D2E/DX2                !
 ! D296  D(27,11,12,14)        -25.0446         estimate D2E/DX2                !
 ! D297  D(27,11,12,15)         42.3461         estimate D2E/DX2                !
 ! D298  D(27,11,12,52)        -96.4646         estimate D2E/DX2                !
 ! D299  D(9,11,27,15)          41.1999         estimate D2E/DX2                !
 ! D300  D(9,11,27,28)         -95.6977         estimate D2E/DX2                !
 ! D301  D(9,11,27,29)         -27.6128         estimate D2E/DX2                !
 ! D302  D(9,11,27,55)        -178.8009         estimate D2E/DX2                !
 ! D303  D(9,11,27,56)         111.4491         estimate D2E/DX2                !
 ! D304  D(12,11,27,15)        -42.3468         estimate D2E/DX2                !
 ! D305  D(12,11,27,28)       -179.2444         estimate D2E/DX2                !
 ! D306  D(12,11,27,29)       -111.1595         estimate D2E/DX2                !
 ! D307  D(12,11,27,55)         97.6524         estimate D2E/DX2                !
 ! D308  D(12,11,27,56)         27.9024         estimate D2E/DX2                !
 ! D309  D(2,12,14,51)         102.4442         estimate D2E/DX2                !
 ! D310  D(2,12,14,54)        -179.0437         estimate D2E/DX2                !
 ! D311  D(5,12,14,51)          33.5012         estimate D2E/DX2                !
 ! D312  D(5,12,14,54)         112.0133         estimate D2E/DX2                !
 ! D313  D(11,12,14,51)       -108.466          estimate D2E/DX2                !
 ! D314  D(11,12,14,54)        -29.9539         estimate D2E/DX2                !
 ! D315  D(15,12,14,51)       -175.7577         estimate D2E/DX2                !
 ! D316  D(15,12,14,54)        -97.2456         estimate D2E/DX2                !
 ! D317  D(52,12,14,51)        -36.2758         estimate D2E/DX2                !
 ! D318  D(52,12,14,54)         42.2363         estimate D2E/DX2                !
 ! D319  D(2,12,15,9)          -94.1181         estimate D2E/DX2                !
 ! D320  D(2,12,15,27)        -178.406          estimate D2E/DX2                !
 ! D321  D(5,12,15,9)          -26.9775         estimate D2E/DX2                !
 ! D322  D(5,12,15,27)        -111.2654         estimate D2E/DX2                !
 ! D323  D(11,12,15,9)          41.9568         estimate D2E/DX2                !
 ! D324  D(11,12,15,27)        -42.3311         estimate D2E/DX2                !
 ! D325  D(14,12,15,9)        -179.1014         estimate D2E/DX2                !
 ! D326  D(14,12,15,27)         96.6107         estimate D2E/DX2                !
 ! D327  D(52,12,15,9)         112.8019         estimate D2E/DX2                !
 ! D328  D(52,12,15,27)         28.514          estimate D2E/DX2                !
 ! D329  D(2,12,52,51)         -35.7158         estimate D2E/DX2                !
 ! D330  D(2,12,52,54)        -113.8927         estimate D2E/DX2                !
 ! D331  D(5,12,52,51)        -103.7475         estimate D2E/DX2                !
 ! D332  D(5,12,52,54)         178.0757         estimate D2E/DX2                !
 ! D333  D(11,12,52,51)        173.7089         estimate D2E/DX2                !
 ! D334  D(11,12,52,54)         95.532          estimate D2E/DX2                !
 ! D335  D(14,12,52,51)         36.0403         estimate D2E/DX2                !
 ! D336  D(14,12,52,54)        -42.1366         estimate D2E/DX2                !
 ! D337  D(15,12,52,51)        103.9257         estimate D2E/DX2                !
 ! D338  D(15,12,52,54)         25.7489         estimate D2E/DX2                !
 ! D339  D(7,13,16,6)           42.9806         estimate D2E/DX2                !
 ! D340  D(7,13,16,18)         -41.647          estimate D2E/DX2                !
 ! D341  D(10,13,16,6)         -26.0859         estimate D2E/DX2                !
[...]
 .00002638,-0.00001307,-0.00000818,0.00001823,0.00003472,0.00001367,-0.
 00002549,0.00004351,-0.00011098,0.00011861,-0.00000234,-0.00000889,0.0
 0000386,-0.00001042,-0.00001011,0.00001719,-0.00010123,0.00010236,0.00
 018552,0.00000044,0.00001216,-0.00002039,0.00120936,-0.00028568,0.0003
 1469,-0.00017811,-0.00025594,0.00004450,-0.00010505,-0.00017948,-0.000
 41584,-0.00000865,0.00000047,0.00001001,0.00001017,0.00000238,-0.00000
 136,0.00001187,-0.00000943,-0.00000763,-0.00000836,-0.00000425,-0.0000
 3071,0.00001707,0.00001631,0.00000536,-0.00004358,-0.00001687,0.000028
 35,0.00001817,0.00002330,-0.00004234,-0.00000859,-0.00000470,0.0000163
 5,-0.00000768,-0.00000880,0.00001466,0.00002180,-0.00001534,0.00002644
 ,-0.00000506,0.00000582,0.00000234,-0.00001054,0.00001395,-0.00001132,
 -0.00001051,-0.00003476,0.00004937,-0.00001245,0.00000274,-0.00001907,
 -0.00007460,0.00011991,-0.00011888,-0.00018761,-0.00005908,0.00014119,
 -0.00017968,-0.00010037,0.00008179,-0.00021230,-0.00015682,0.00005251,
 0.00178890,0.00027429,0.00036944,-0.00272449,0.00241606,0.00206647,0.0
 0289752,-0.00117475,-0.00207513,0.00015418,-0.00007356,0.00009771,-0.0
 0001910,0.00000805,-0.00007151,-0.00000898,0.00002835,-0.00000262,0.00
 001369,-0.00005590,0.00002495,0.00002321,-0.00000580,-0.00000244,-0.00
 002250,0.00000254,0.00001013,-0.00007032,0.00005995,-0.00004255,0.0000
 3575,-0.00001214,-0.00000820,-0.00000548,-0.00000908,0.00001548,-0.000
 02733,-0.00000531,0.00001231,-0.00000110,0.00000067,0.00001026,0.00001
 177,-0.00000864,0.00001377,-0.00000578,0.00002542,-0.00004501,0.000001
 74,-0.00000548,0.00000571,0.00000236,-0.00000185,0.00000739,-0.0000192
 4,-0.00001071,0.00002300,0.00000552,-0.00000084,0.00000088,0.00000497,
 0.00002048,-0.00003477,0.00002085,-0.00000557,0.00000831,-0.00006478,-
 0.00003171,-0.00006865,-0.00149150,-0.00009788,-0.00012338,0.00001088,
 -0.00000246,-0.00000335,-0.00000683,-0.00000381,-0.00000354,0.00047773
 ,0.00089471,0.00102963,-0.00017066,0.00587660,-0.00370979,-0.00022405,
 -0.00040143,-0.00002911,0.00353899,0.00070309,-0.01085418,0.00804659,-
 0.04315847,0.29367033,0.00000754,0.00000136,-0.00000215,-0.00000083,0.
 00000067,0.00000087,0.00000145,-0.00000156,0.00000083,0.00000253,-0.00
 000372,-0.00000162,-0.00000077,-0.00000120,0.00000044,0.00000360,-0.00
 002271,0.00001737,0.00001043,-0.00001031,-0.00002756,-0.00000230,0.000
 00232,0.00000103,-0.00000205,-0.00000076,0.00000023,0.00000046,-0.0000
 0535,0.00000223,-0.00000084,-0.00000080,0.00000188,0.00000053,0.000002
 23,-0.00000291,0.00004848,-0.00001797,0.00002240,-0.00000018,-0.000000
 40,0.00000072,0.00000055,-0.00000116,0.00000212,0.00001751,0.00007117,
 0.00002738,-0.00000113,-0.00000132,-0.00000502,0.00024170,-0.00020607,
 0.00020368,-0.00011255,-0.00008142,0.00006422,0.00002421,-0.00001043,0
 .00005813,-0.00000075,0.00000059,-0.00000016,0.00000067,0.00000010,-0.
 00000030,0.00000061,-0.00000044,-0.00000058,-0.00000758,0.00000158,-0.
 00000083,0.00001436,-0.00000320,-0.00001259,-0.00000737,0.00000114,0.0
 0000554,0.00000153,0.00000263,-0.00000365,-0.00000236,-0.00000012,0.00
 000132,-0.00000132,-0.00000033,0.00000108,0.00000331,-0.00000201,0.000
 00078,-0.00000088,0.00000051,0.00000019,-0.00000412,-0.00000031,-0.000
 00538,0.00000342,0.00000323,0.00000560,-0.00000102,0.00000002,-0.00000
 170,-0.00000936,-0.00001183,-0.00001788,-0.00010566,-0.00003376,0.0000
 1741,0.00003348,-0.00000723,0.00001823,-0.00003016,0.00004149,-0.00000
 074,0.00082470,-0.00025941,-0.00015004,0.00020896,0.00073721,0.0001578
 2,-0.00051130,0.00112731,0.00016143,-0.00001286,0.00000481,-0.00001032
 ,-0.00000223,-0.00000641,-0.00001353,0.00001619,-0.00001120,-0.0000018
 0,-0.00000600,0.00000345,-0.00000585,-0.00000035,0.00000114,0.00000094
 ,-0.00000085,-0.00000034,0.00000117,-0.00000032,0.00000206,-0.00000163
 ,0.00000065,-0.00000045,-0.00000018,-0.00000055,-0.00000026,0.00000083
 ,-0.00000098,-0.00000059,0.00000106,0.00000019,-0.00000057,0.00000096,
 -0.00000049,-0.00000049,0.00000085,0.00000150,0.00000200,-0.00000411,0
 .00000048,-0.00000106,0.00000036,0.00000018,0.00000031,0.00000102,-0.0
 0000005,-0.00000165,0.00000274,-0.00000197,0.00000009,0.00000027,0.000
 00478,-0.00000526,0.00000669,0.00000022,-0.00000010,0.00000028,0.00002
 218,-0.00000851,0.00002357,-0.00015362,0.00013449,-0.00007922,0.000000
 79,0.00000006,-0.00000021,-0.00000105,-0.00000019,-0.00000027,0.000077
 93,0.00059369,-0.00116233,-0.00004642,-0.00128538,0.00164110,0.0000081
 0,-0.00008388,0.00010959,-0.00509392,-0.00030599,0.00018256,-0.2277532
 5,-0.08526539,0.02035903,0.23147883,-0.00000174,0.00000050,0.00000670,
 -0.00000038,-0.00000029,0.00000111,0.00000109,0.00000321,-0.00000149,-
 0.00000492,0.00000338,-0.00000282,-0.00000017,-0.00000118,0.00000071,0
 .00002391,0.00004578,-0.00000163,0.00000384,0.00000382,0.00006530,-0.0
 0000302,-0.00000820,0.00000037,0.00000786,0.00000661,-0.00000864,-0.00
 000371,-0.00000234,-0.00000009,-0.00000091,-0.00000181,0.00000170,0.00
 000224,0.00000178,-0.00000463,0.00000748,0.00002651,0.00001078,0.,-0.0
 0000072,0.00000090,-0.00000095,-0.00000184,0.00000240,-0.00002883,-0.0
 0006778,0.00002447,-0.00000232,-0.00000002,-0.00000722,-0.00014834,0.0
 0028704,-0.00028935,-0.00003360,-0.00003464,0.00002636,0.00001372,0.00
 002015,-0.00016527,-0.00000069,0.00000089,0.00000095,0.00000052,-0.000
 00026,-0.00000038,0.00000102,-0.00000099,-0.00000162,-0.00000793,-0.00
 000016,0.00000678,-0.00000665,0.00000123,-0.00000243,0.00000304,-0.000
 00889,0.00000325,-0.00000211,0.00000297,-0.00000540,-0.00000032,0.0000
 0015,0.00000239,0.00000079,-0.00000134,-0.00000037,0.00000393,-0.00000
 254,0.00000088,-0.00000115,0.00000018,-0.00000016,-0.00000190,0.000002
 85,-0.00000189,0.00000783,-0.00000518,0.00001052,-0.00000188,-0.000001
 45,-0.00000060,-0.00000585,0.00002588,-0.00001297,-0.00000141,0.000016
 41,0.00003680,-0.00008457,-0.00005065,-0.00000607,0.00001058,-0.000102
 27,-0.00000814,-0.00035795,0.00028361,0.00002077,0.00017463,-0.0012305
 8,-0.00022391,0.00078355,-0.00088151,-0.00014981,0.00005660,-0.0000956
 6,0.00002470,-0.00000696,0.00000258,-0.00001285,-0.00000866,-0.0000042
 4,0.00000030,-0.00000695,-0.00000556,-0.00000472,-0.00000005,0.0000014
 5,-0.00000040,-0.00000164,-0.00000021,0.00000087,-0.00000550,0.0000006
 6,0.00000178,0.00000127,-0.00000007,-0.00000021,0.00000203,0.00000124,
 -0.00000201,0.00000067,-0.00000125,0.00000230,-0.00000021,-0.00000028,
 0.00000102,-0.00000166,-0.00000054,0.00000135,0.00000300,0.00000260,-0
 .00000505,0.00000018,-0.00000106,0.00000024,0.00000069,0.00000028,0.00
 000125,0.00000107,-0.00000181,0.00000248,-0.00000292,0.00000009,0.0000
 0036,-0.00000084,0.00000337,-0.00000666,-0.00000143,0.00000017,-0.0000
 0008,-0.00000938,0.00001777,-0.00002573,0.00008688,-0.00015908,0.00018
 528,0.00000077,0.00000032,-0.00000002,-0.00000120,0.00000013,-0.000000
 21,-0.00004781,-0.00072769,0.00111667,0.00040178,0.00110221,-0.0010542
 5,-0.00001619,0.00003757,-0.00013463,0.00577049,0.00288873,-0.00143703
 ,-0.08848096,-0.04165755,0.01668504,0.08471042,0.04288912,-0.00000248,
 -0.00000205,-0.00000266,0.00000124,-0.00000020,0.00000057,-0.00000008,
 0.00000075,0.00000077,0.00000438,0.00000062,0.00000154,0.00000119,0.00
 000067,0.00000090,-0.00001962,0.00001434,-0.00001138,0.00005255,0.0000
 0442,0.00001722,0.00000125,-0.00000382,0.00000201,-0.00000059,-0.00000
 211,0.00000114,0.00000970,-0.00000242,-0.00000932,0.00000087,0.0000001
 3,-0.00000063,-0.00000423,0.00000077,0.00000100,-0.00002113,0.00003799
 ,0.00002429,-0.00000023,0.00000074,-0.00000004,0.00000248,0.00000019,-
 0.00000048,0.00001138,0.00001240,-0.00000907,-0.00000171,-0.00000126,-
 0.00000931,-0.00016155,-0.00006272,-0.00004586,-0.00000094,-0.00008947
 ,-0.00002928,0.00007452,-0.00008033,-0.00000512,-0.00000023,0.00000087
 ,-0.00000029,-0.00000114,-0.00000071,-0.00000012,-0.00000013,0.0000003
 5,-0.00000093,-0.00000443,-0.00000578,0.00000203,0.00000535,0.00000390
 ,0.00000428,0.00000568,-0.00000141,0.00000260,-0.00000374,-0.00000172,
 0.00000265,0.00000158,0.00000199,-0.00000095,0.00000143,0.00000081,-0.
 00000169,-0.00000087,-0.00000110,-0.00000292,0.00000002,-0.00000080,-0
 .00000048,0.00000089,0.00000021,0.00000089,0.00001192,0.00000373,-0.00
 000702,0.00000148,-0.00000147,0.00000124,0.00001440,0.00001467,0.00000
 505,-0.00001806,0.00000642,0.00002409,0.00002861,-0.00001739,-0.000057
 77,0.00009890,0.00004787,0.00001069,0.00005964,0.00017152,-0.00049106,
 0.00021618,0.00045733,0.00011650,0.00106899,-0.00106660,0.00026841,-0.
 00007339,0.00005564,0.00001469,0.00000527,-0.00000195,0.00001705,0.000
 00403,-0.00000517,-0.00000437,0.00000014,-0.00000196,0.00001073,-0.000
 00134,-0.00000022,-0.00000191,0.00000639,0.00000401,-0.00000549,0.0000
 0416,-0.00000716,0.00000758,-0.00000299,0.00000118,0.00000108,0.000002
 50,0.00000272,-0.00000447,0.00000424,-0.00000053,0.00000009,0.00000008
 ,-0.00000032,-0.00000052,-0.00000245,0.00000060,-0.00000084,0.00000225
 ,-0.00000156,0.00000229,-0.00000009,0.00000003,-0.00000038,-0.00000022
 ,0.00000040,-0.00000018,0.00000329,0.00000090,-0.00000156,-0.00000237,
 0.00000020,0.00000012,-0.00000108,-0.00000114,0.00000153,-0.00000376,0
 .00000089,-0.00000114,0.00000869,-0.00001275,-0.00001817,0.00014297,0.
 00041393,0.00014371,-0.00000101,0.00000077,0.00000066,0.00000013,0.000
 00093,0.00000028,-0.00016606,0.00053803,-0.00015906,-0.00006621,0.0000
 6773,-0.00019666,0.00009197,-0.00009065,-0.00008138,-0.00117838,-0.001
 52211,-0.00043166,-0.00388382,0.00500982,-0.02537863,-0.02068957,-0.01
 366366,0.02897517,-0.00000390,-0.00000218,-0.00000088,0.00000150,0.000
 00009,-0.00000181,-0.00000201,-0.00000107,0.00000076,0.00000636,0.0000
 0234,0.00000310,0.00000207,0.00000292,-0.00000093,-0.00002422,0.000011
 79,-0.00000194,0.00007700,0.00002293,0.00005155,0.00000330,-0.00000511
 ,-0.00000142,-0.00000331,-0.00000367,-0.00000366,0.00001165,-0.0000139
 6,-0.00001929,0.00000103,0.00000234,-0.00000409,-0.00000550,-0.0000025
 3,0.00000675,0.00001154,0.00002459,0.00005460,0.00000011,0.00000175,-0
 .00000130,0.00000202,0.00000265,-0.00000349,0.00003079,0.00001015,0.00
 003149,-0.00001250,-0.00000950,-0.00000805,0.00008102,-0.00023185,-0.0
 0008913,0.00001088,-0.00001735,-0.00000762,0.00009008,0.00005323,-0.00
 000542,0.00000135,-0.00000119,-0.00000237,-0.00000203,-0.00000024,0.00
 000043,-0.00000245,0.00000156,0.00000153,-0.00000012,0.00000055,-0.000
 00220,0.00000288,-0.00000414,0.00000357,0.00000296,0.00000962,-0.00000
 336,-0.00000107,-0.00000584,0.00000942,0.00000131,0.00000104,-0.000002
 94,0.00000231,0.00000338,-0.00000279,-0.00000640,0.00000179,-0.0000068
 3,0.00000182,-0.00000103,0.00000006,0.00000130,-0.00000370,0.00000100,
 0.00000119,0.00001105,-0.00001074,0.00000460,-0.00000294,0.00000394,0.
 00000234,-0.00001906,0.00002503,0.00001841,0.00001875,-0.00002551,0.00
 001137,-0.00012038,-0.00005001,0.00013988,0.00012317,0.00001987,-0.000
 77320,0.00034727,-0.00047922,-0.00029029,0.00027418,0.00083268,0.00088
 608,-0.00075326,0.00076099,-0.00004889,-0.00000627,0.00001187,0.000005
 05,-0.00000429,-0.00000031,0.00000483,-0.00001109,0.00000491,-0.000000
 28,0.00000429,-0.00000561,-0.00000351,0.00000152,0.00000086,0.00000178
 ,-0.00000018,-0.00000052,0.00001165,-0.00000704,0.00000682,-0.00000505
 ,0.00000158,0.00000100,-0.00000038,0.00000065,-0.00000094,0.00000299,0
 .00000156,-0.00000338,0.00000041,0.00000027,-0.00000214,0.00000052,0.0
 0000150,-0.00000295,-0.00000256,-0.00000537,0.00000981,-0.00000054,0.0
 0000214,-0.00000058,-0.00000118,-0.00000023,-0.00000194,0.00000146,0.0
 0000326,-0.00000546,0.00000236,0.00000008,-0.00000049,-0.00000258,-0.0
 0000355,0.00000616,-0.00000145,0.00000059,-0.00000100,0.00001918,0.000
 00759,-0.00001585,0.00023710,0.00045308,0.00017228,-0.00000207,0.00000
 026,0.00000084,0.00000191,0.00000004,0.00000077,-0.00018674,0.00008312
 ,-0.00014863,0.00012629,0.00008692,0.00020960,0.00002819,-0.00000595,-
 0.00002641,-0.00015659,0.00057946,-0.00554894,-0.02901758,-0.00029341,
 -0.03283400,0.00081536,-0.00278820,0.02436317,0.02789016,-0.00000674,0
 .00000417,-0.00000148,0.00000183,-0.00000097,-0.00000034,-0.00000100,0
 .00000162,-0.00000075,0.00000066,-0.00000167,-0.00000123,0.00000195,0.
 00000110,0.00000024,-0.00000531,0.00002788,-0.00001134,-0.00003584,0.0
 0005314,0.00000717,0.00000329,0.00000102,0.00000360,-0.00001573,-0.000
 00633,0.00000811,0.00000730,-0.00000129,0.00000833,0.00000433,0.000001
 30,-0.00000227,-0.00000723,-0.00000334,0.00000376,-0.00004967,0.000050
 85,-0.00011074,0.00000054,0.00000168,-0.00000051,0.00000154,0.00000166
 ,-0.00000271,0.00001545,-0.00001841,-0.00001556,0.00000533,-0.00000024
 ,0.00001687,-0.00039860,0.00018428,-0.00018866,-0.00000742,0.00009001,
 0.00004734,0.00006121,0.00007269,0.00004546,0.00000153,-0.00000006,-0.
 00000059,-0.00000186,-0.00000066,0.00000003,-0.00000112,0.00000094,-0.
 00000010,0.00000317,0.00000565,0.00001974,-0.00000428,-0.00000814,-0.0
 0001247,0.00000956,-0.00000182,-0.00000913,-0.00000731,-0.00000446,0.0
 0000581,0.00000192,0.00000047,-0.00000399,0.00000152,0.00000128,-0.000
 00394,-0.00000318,0.00000686,-0.00000442,0.00000048,-0.00000134,-0.000
 00124,0.00000175,-0.00000631,0.00000316,-0.00000020,0.00001349,-0.0000
 2049,0.00000280,-0.00000047,0.00000254,0.00003525,-0.00005201,0.000037
 68,0.00003173,0.00000909,-0.00008126,0.00003946,0.00010264,0.00003395,
 0.00000731,-0.00001151,-0.00000060,-0.00006299,-0.00029012,0.00035017,
 0.00069941,-0.00049402,-0.00084368,-0.00057646,0.00074429,-0.00055136,
 0.00003353,-0.00010573,0.00001261,0.00000047,0.00001060,-0.00000634,-0
 .00000960,-0.00001502,0.00000235,-0.00000878,-0.00000308,0.00000502,-0
 .00000269,-0.00000008,-0.00000128,0.00000422,0.00000132,-0.00000584,0.
 00000564,-0.00000771,0.00000581,-0.00000417,0.00000179,0.00000132,0.00
 000180,0.00000166,-0.00000277,0.00000651,0.00000058,-0.00000134,-0.000
 00028,-0.00000013,-0.00000193,-0.00000414,0.00000192,-0.00000259,0.000
 00397,-0.00000515,0.00000825,-0.00000039,0.00000053,-0.00000139,-0.000
 00019,0.00000097,-0.00000130,0.00000592,0.00000238,-0.00000420,-0.0000
 0349,0.00000025,0.00000010,0.00000227,-0.00001059,0.00001798,-0.000005
 20,0.00000132,-0.00000187,0.00000405,0.00002386,0.00001780,0.00011402,
 0.00009039,-0.00013588,-0.00000185,0.00000067,0.00000076,0.00000122,0.
 00000170,0.00000095,-0.00000057,-0.00059104,-0.00004326,0.00101444,-0.
 00105890,0.00052538,-0.00008883,0.00007536,0.00002280,-0.00101743,-0.0
 0246767,0.00768015,-0.00218980,-0.00906108,0.01910464,0.00021543,-0.00
 262161,0.00977006,0.00216951,0.01525961,0.00000014,-0.00000057,-0.0000
 0240,0.00000112,-0.00000008,0.00000005,-0.00000497,-0.00000288,-0.0000
 0109,0.00000529,0.00000231,0.00000285,0.00000071,0.00000072,-0.0000004
 8,-0.00001752,-0.00002637,-0.00000094,0.00001069,-0.00003820,0.0000498
 8,0.00000440,0.00000019,-0.00000177,-0.00000180,0.00000360,0.00000120,
 -0.00000928,0.00001172,-0.00000672,0.00000189,0.00000013,-0.00000110,-
 0.00000460,-0.00000135,0.00000006,-0.00001645,-0.00000421,0.00009927,0
 .00000042,0.00000084,0.00000024,0.00000077,0.00000126,-0.00000093,-0.0
 0000155,-0.00000267,-0.00003143,0.00000727,0.00000367,-0.00000321,0.00
 006924,-0.00011567,-0.00011353,0.00003700,0.00000575,-0.00009137,0.000
 04640,0.00003834,0.00016501,-0.00000005,0.00000113,-0.00000027,-0.0000
 0097,-0.00000038,0.00000005,-0.00000061,0.00000092,-0.00000003,0.00000
 178,-0.00000623,-0.00000466,0.00000737,0.00000082,0.00000280,-0.000001
 53,0.00000015,-0.00000334,-0.00000287,0.00000067,0.00000054,0.00000199
 ,0.00000056,-0.00000093,0.00000068,0.00000016,-0.00000028,-0.00000053,
 0.00000112,0.00000066,-0.00000055,-0.00000001,-0.00000029,-0.00000079,
 -0.00000135,0.00000011,-0.00000723,-0.00000297,0.00000613,0.00000014,-
 0.00000064,-0.00000044,0.00001763,0.00000141,0.00001862,-0.00002330,0.
 00003184,0.00001238,-0.00002509,-0.00001116,-0.00007723,-0.00002997,-0
 .00000398,-0.00002646,0.00002246,0.00008118,-0.00007860,0.00028204,-0.
 00031532,0.00051304,0.00028910,-0.00094517,0.00022290,-0.00006545,0.00
 007074,-0.00000367,0.00000836,-0.00000405,0.00001994,0.00000402,0.0000
 1695,-0.00000449,0.00000085,0.00000538,0.00000668,-0.00000240,0.000000
 22,0.00000004,0.00000601,0.00000012,-0.00000247,0.00000772,-0.00001013
 ,0.00000628,-0.00000427,0.00000160,0.00000141,0.00000220,0.00000272,-0
 .00000461,0.00000479,-0.00000018,0.00000006,0.00000001,-0.00000055,-0.
 00000056,-0.00000332,0.00000079,-0.00000076,0.00000345,-0.00000129,0.0
 0000159,0.00000022,-0.00000046,-0.00000063,0.00000066,0.00000070,-0.00
 000007,0.00000383,-0.00000044,-0.00000016,-0.00000422,0.00000027,0.000
 00028,0.00000132,-0.00000094,0.00000072,-0.00000456,0.00000104,-0.0000
 0133,0.00002771,0.00000004,0.00000422,0.00014743,0.00013296,-0.0000706
 7,-0.00000111,0.00000061,0.00000023,-0.00000050,0.00000072,0.00000023,
 -0.00013301,0.00013856,-0.00035494,-0.00076270,-0.00021546,0.00027033,
 0.00007338,0.00006211,0.00003904,-0.00104733,0.00257359,-0.00144291,-0
 .01075749,0.03521053,-0.25542890,-0.00090378,-0.00100437,-0.00269004,0
 .01273931,-0.03569106,0.25900689\\-0.00000294,-0.00000057,-0.00000267,
 -0.00000146,-0.00000025,-0.00000014,-0.00000007,-0.00000057,-0.0000000
 4,-0.00000026,-0.00000006,-0.00000159,0.00000195,0.00000169,-0.0000002
 5,0.00000031,0.00000384,-0.00000057,-0.00000249,-0.00000376,0.00001060
 ,-0.00000185,-0.00000139,-0.00000014,0.00000059,0.00000143,0.00000133,
 0.00000143,0.00000025,-0.00000156,0.00000086,-0.00000028,-0.00000020,-
 0.00000112,0.00000042,0.00000204,0.00000447,-0.00000305,0.00000065,0.0
 0000026,0.00000005,0.00000030,0.00000018,-0.00000027,-0.00000028,-0.00
 000341,-0.00000294,-0.00000720,-0.00000007,0.00000472,-0.00000132,0.00
 000714,0.00000139,-0.00001083,-0.00000699,-0.00000618,0.00000175,0.000
 00389,-0.00000309,-0.00000304,-0.00000258,-0.00000230,0.00000125,-0.00
 000032,-0.00000020,0.00000041,-0.00000082,0.00000069,0.00000015,0.0000
 0071,0.00000084,-0.00000335,0.00000002,0.00000060,-0.00000149,-0.00000
 050,-0.00000168,-0.00000014,-0.00000132,0.00000034,-0.00000104,-0.0000
 0021,-0.00000122,-0.00000003,-0.00000119,0.00000084,-0.00000019,0.0000
 0333,-0.00000365,0.00000578,-0.00000043,-0.00000090,0.00000005,0.00000
 125,-0.00000029,0.00000106,-0.00000212,-0.00000034,0.00000017,0.000000
 61,-0.00000066,0.00000034,-0.00000177,0.00000008,-0.00000024,0.0000067
 4,-0.00000093,0.00000304,-0.00000568,0.00000011,-0.00000259,-0.0000001
 8,-0.00000544,-0.00000243,0.00000666,0.00001261,0.00000159,0.00000433,
 0.00000475,0.00000616,0.00000069,0.00000096,-0.00000077,0.00000550,0.0
 0000966,0.00000984,0.00000294,0.00000071,0.00000104,-0.00000549,-0.000
 00548,-0.00000093,-0.00002021,0.00000480,0.00000314,0.00000194,0.00000
 511,-0.00000174,0.00000655,-0.00000306,0.00000271,0.00000385,-0.000003
 11,0.00000058,-0.00000038,0.00000042,-0.00000038,0.00000013,0.00000007
 ,0.00000109,0.00000033,-0.00000123,-0.00000065,0.00000076,-0.00000056,
 -0.00000075,-0.00000040,-0.00000077,0.00000139,-0.00000012,-0.00000026
 ,-0.00000150,0.,-0.00000014,0.00000007,-0.00000031,-0.00000031,0.00000
 104,0.00000117,0.00000051,0.00000009,0.00000019,-0.00000049,0.00000088
 ,-0.00000234,-0.00000038,0.00000077,-0.00000035,-0.00000047,0.00000112
 ,0.00000606,-0.00000529,-0.00000070,-0.00000428,0.00000640,-0.00000172
 ,-0.00000027,0.00000081,0.00000051,-0.00000019,0.00000065,-0.00000019,
 0.00001120,0.00000371,0.00000517,-0.00001062,0.00000643,-0.00001123,0.
 00000058,-0.00000343,-0.00000689,-0.00000263,-0.00001050,0.00000458,-0
 .00000241,0.00000066,0.00000044,0.00000147,-0.00000265,-0.00000163,-0.
 00000033,0.00000260,-0.00000068\\\@
 The archive entry for this job was punched.


 IN-LAWS ARE LIKE SEEDS. YOU DON'T NEED THEM
 BUT THEY COME WITH THE TOMATO.
 Job cpu time:       8 days 16 hours 37 minutes 23.6 seconds.
 Elapsed time:       0 days  4 hours 21 minutes 29.2 seconds.
 File lengths (MBytes):  RWF=  18650 Int=      0 D2E=      0 Chk=    164 Scr=      2
 Normal termination of Gaussian 16 at Tue Mar  7 20:13:48 2023.
