 Entering Gaussian System, Link 0=/apps/GAU16/avx2/g16/g16
 Initial command:
 /apps/GAU16/avx2//g16/l1.exe "/localscratch/chegho/Gau-133306.inp" -scrdir="/localscratch/chegho/"
 Entering Link 1 = /apps/GAU16/avx2//g16/l1.exe PID=    133307.
  
 Copyright (c) 1988-2019, Gaussian, Inc.  All Rights Reserved.
  
 This is part of the Gaussian(R) 16 program.  It is based on
 the Gaussian(R) 09 system (copyright 2009, Gaussian, Inc.),
 the Gaussian(R) 03 system (copyright 2003, Gaussian, Inc.),
 the Gaussian(R) 98 system (copyright 1998, Gaussian, Inc.),
 the Gaussian(R) 94 system (copyright 1995, Gaussian, Inc.),
 the Gaussian 92(TM) system (copyright 1992, Gaussian, Inc.),
 the Gaussian 90(TM) system (copyright 1990, Gaussian, Inc.),
 the Gaussian 88(TM) system (copyright 1988, Gaussian, Inc.),
 the Gaussian 86(TM) system (copyright 1986, Carnegie Mellon
 University), and the Gaussian 82(TM) system (copyright 1983,
 Carnegie Mellon University). Gaussian is a federally registered
 trademark of Gaussian, Inc.
  
 This software contains proprietary and confidential information,
 including trade secrets, belonging to Gaussian, Inc.
  
 This software is provided under written license and may be
 used, copied, transmitted, or stored only in accord with that
 written license.
  
 The following legend is applicable only to US Government
 contracts under FAR:
  
                    RESTRICTED RIGHTS LEGEND
  
 Use, reproduction and disclosure by the US Government is
 subject to restrictions as set forth in subparagraphs (a)
 and (c) of the Commercial Computer Software - Restricted
 Rights clause in FAR 52.227-19.
  
 Gaussian, Inc.
 340 Quinnipiac St., Bldg. 40, Wallingford CT 06492
  
  
 ---------------------------------------------------------------
 Warning -- This program may not be used in any manner that
 competes with the business of Gaussian, Inc. or will provide
 assistance to any competitor of Gaussian, Inc.  The licensee
 of this program is prohibited from giving any competitor of
 Gaussian, Inc. access to this program.  By using this program,
 the user acknowledges that Gaussian, Inc. is engaged in the
 business of creating and licensing software in the field of
 computational chemistry and represents and warrants to the
 licensee that it is not a competitor of Gaussian, Inc. and that
 it will not use this program in any manner prohibited above.
 ---------------------------------------------------------------
  

 Cite this work as:
 Gaussian 16, Revision C.01,
 M. J. Frisch, G. W. Trucks, H. B. Schlegel, G. E. Scuseria, 
 M. A. Robb, J. R. Cheeseman, G. Scalmani, V. Barone, 
 G. A. Petersson, H. Nakatsuji, X. Li, M. Caricato, A. V. Marenich, 
 J. Bloino, B. G. Janesko, R. Gomperts, B. Mennucci, H. P. Hratchian, 
 J. V. Ortiz, A. F. Izmaylov, J. L. Sonnenberg, D. Williams-Young, 
 F. Ding, F. Lipparini, F. Egidi, J. Goings, B. Peng, A. Petrone, 
 T. Henderson, D. Ranasinghe, V. G. Zakrzewski, J. Gao, N. Rega, 
 G. Zheng, W. Liang, M. Hada, M. Ehara, K. Toyota, R. Fukuda, 
 J. Hasegawa, M. Ishida, T. Nakajima, Y. Honda, O. Kitao, H. Nakai, 
 T. Vreven, K. Throssell, J. A. Montgomery, Jr., J. E. Peralta, 
 F. Ogliaro, M. J. Bearpark, J. J. Heyd, E. N. Brothers, K. N. Kudin, 
 V. N. Staroverov, T. A. Keith, R. Kobayashi, J. Normand, 
 K. Raghavachari, A. P. Rendell, J. C. Burant, S. S. Iyengar, 
 J. Tomasi, M. Cossi, J. M. Millam, M. Klene, C. Adamo, R. Cammi, 
 J. W. Ochterski, R. L. Martin, K. Morokuma, O. Farkas, 
 J. B. Foresman, and D. J. Fox, Gaussian, Inc., Wallingford CT, 2019.
 
 ******************************************
 Gaussian 16:  ES64L-G16RevC.01  3-Jul-2019
                 6-Mar-2023 
 ******************************************
 %nprocshared=48
 Will use up to   48 processors via shared memory.
 %chk=Mo20S47_Szz_Mo_SH_2_ts.chk
 %mem=100GB
 ----------------------------------------------------------------------
 # opt=(calcfc,ts,noeigen) freq b3lyp/gen nosymm pseudo=read scf=maxcyc
 les=1000
 ----------------------------------------------------------------------
 1/5=1,10=4,11=1,18=20,26=3,38=1/1,3;
 2/9=110,12=2,15=1,17=6,18=5,40=1/2;
 3/5=7,11=2,16=1,17=8,25=1,30=1,71=2,74=-5,140=1/1,2,3;
 4//1;
 5/5=2,7=1000,38=5/2;
 8/6=4,10=90,11=11/1;
 11/6=1,8=1,9=11,15=111,16=1,31=1/1,2,10;
 10/6=1,13=1,31=1/2;
 6/7=2,8=2,9=2,10=2,28=1/1;
 7/10=1,25=1,30=1/1,2,3,16;
 1/5=1,10=4,11=1,18=20,26=3/3(2);
 2/9=110,15=1/2;
 99//99;
 2/9=110,15=1/2;
 3/5=7,6=1,11=2,16=1,17=8,25=1,30=1,71=1,74=-5,82=7/1,2,3;
 4/5=5,16=3,69=1/1;
 5/5=2,7=1000,38=5/2;
 7/30=1/1,2,3,16;
 1/5=1,11=1,18=20,26=3/3(-5);
 2/9=110,15=1/2;
 6/7=2,8=2,9=2,10=2,19=2,28=1/1;
 99/9=1/99;
 -------------------
 Title Card Required
 -------------------
 Symbolic Z-matrix:
 Charge =  0 Multiplicity = 1
 42                    0.29653   1.35992   12.52766 
 16                    2.20261   2.50671   13.54486 
 16                   -0.86311   2.03031   14.64849 
 16                   -0.37672   0.83468   10.26401 
 16                    2.03824  -0.31513   12.14447 
 42                   -2.06072   2.52002   10.74195 
 16                   -2.75805   2.0264    8.45539 
 16                   -0.16644   3.60903   11.78201 
 42                    0.99558   2.79509   9.7893 
 16                    0.28426   2.30443   7.49945 
 16                    2.68977   1.08676   9.35634 
 42                    3.40272   1.6295    11.61204 
 42                   -1.37741   3.98679   8.00043 
 16                    5.40707   2.82553   12.68181 
 16                    2.94523   3.86964   10.80148 
 16                   -2.54153   4.78319   10.00046 
 16                    1.13834   6.60682   6.25223 
 42                   -4.40441   3.71445   8.92652 
 16                   -5.84642   1.72533   9.51557 
 16                   -5.74638   4.38266   10.93308 
 42                    2.59918   0.32292   14.40105 
 16                    4.78181   0.89096   15.52898 
 16                    1.52505   0.96394   16.32754 
 42                    1.64644   4.24704   7.04505 
 16                    1.02858   3.94419   4.63487 
 16                    0.53876   5.06914   9.03409 
 42                    4.07489   3.0098    8.83327 
 16                    3.27943   2.48529   6.58596 
 16                    3.64528   5.26481   8.02675 
 42                    4.62251   4.36063   6.01652 
 16                    7.03021   4.94325   6.39263 
 16                    4.36477   6.78261   5.34694 
 42                    2.50446   5.94173   4.40221 
 16                    4.03207   4.0474    3.82284 
 16                   -1.30277   6.53496   3.48081 
 42                   -0.82923   5.48407   5.25152 
 16                   -2.0739    3.47423   5.58985 
 16                   -1.84138   6.38012   7.2145 
 42                   -3.64342   5.20928   6.15773 
 16                   -5.11525   3.29537   6.58944 
 16                   -4.6867    6.21879   4.60643 
 42                   -5.02814   2.18407   11.80289 
 16                   -3.24165   3.37401   12.85084 
 16                   -3.48959   0.45635   11.2396 
 42                   -2.81199   1.07505   13.4661 
 16                   -1.14146  -0.6697    13.00263 
 16                   -4.0597    0.30699   14.98943 
 42                   -0.31967  -0.31033   15.22654 
 16                    1.36129  -1.8008    14.83915 
 16                   -1.37892  -1.17853   16.84687 
 42                    5.8743    0.62581   13.31975 
 16                    5.15942  -0.19366   11.23959 
 16                    8.43413   1.4885    10.98343 
 42                    6.37105   1.85932   10.63662 
 16                    5.79148   1.15514   8.35728 
 16                    6.14178   4.16119   9.81402 
 42                    7.12872   3.03833   8.00324 
 16                    9.22308   2.71991   8.08828 
 16                    2.24756   7.06735   2.62643 
 16                    7.87666   0.21834   13.89069 
 16                   -6.62047   1.60289   13.06594 
 16                   -4.80257   6.03106   8.15714 
 16                    4.67074  -1.05695   14.71309 
 16                    6.71149   3.02447   5.56171 
 42                   -7.67253   3.39071   9.53679 
 16                   -8.14588   2.80668   7.44391 
 16                   -9.29865   2.76679   10.74373 
 42                   -6.74943   4.98552   7.19188 
 16                   -7.94388   5.70975   9.08118 
 1                    -7.07666   6.65521   6.7167 
 16                   -8.10792   5.14994   5.27029 
 1                    -7.48294   6.37324   6.13213 
 

 GradGradGradGradGradGradGradGradGradGradGradGradGradGradGradGradGradGrad
 Berny optimization.
 Initialization pass.
                           ----------------------------
                           !    Initial Parameters    !
                           ! (Angstroms and Degrees)  !
 --------------------------                            --------------------------
 ! Name  Definition              Value          Derivative Info.                !
 --------------------------------------------------------------------------------
 ! R1    R(1,2)                  2.446          calculate D2E/DX2 analytically  !
 ! R2    R(1,3)                  2.5084         calculate D2E/DX2 analytically  !
 ! R3    R(1,4)                  2.4194         calculate D2E/DX2 analytically  !
 ! R4    R(1,5)                  2.4467         calculate D2E/DX2 analytically  !
 ! R5    R(1,8)                  2.4143         calculate D2E/DX2 analytically  !
 ! R6    R(1,46)                 2.5323         calculate D2E/DX2 analytically  !
 ! R7    R(2,12)                 2.4384         calculate D2E/DX2 analytically  !
 ! R8    R(2,21)                 2.3789         calculate D2E/DX2 analytically  !
 ! R9    R(3,45)                 2.4716         calculate D2E/DX2 analytically  !
 ! R10   R(3,48)                 2.4714         calculate D2E/DX2 analytically  !
 ! R11   R(4,6)                  2.4299         calculate D2E/DX2 analytically  !
 ! R12   R(4,9)                  2.4396         calculate D2E/DX2 analytically  !
 ! R13   R(5,12)                 2.4345         calculate D2E/DX2 analytically  !
 ! R14   R(5,21)                 2.4112         calculate D2E/DX2 analytically  !
 ! R15   R(6,7)                  2.441          calculate D2E/DX2 analytically  !
 ! R16   R(6,8)                  2.4199         calculate D2E/DX2 analytically  !
 ! R17   R(6,16)                 2.4296         calculate D2E/DX2 analytically  !
 ! R18   R(6,43)                 2.5635         calculate D2E/DX2 analytically  !
 ! R19   R(6,44)                 2.5589         calculate D2E/DX2 analytically  !
 ! R20   R(7,13)                 2.4406         calculate D2E/DX2 analytically  !
 ! R21   R(7,18)                 2.4046         calculate D2E/DX2 analytically  !
 ! R22   R(8,9)                  2.4462         calculate D2E/DX2 analytically  !
 ! R23   R(9,10)                 2.4475         calculate D2E/DX2 analytically  !
 ! R24   R(9,11)                 2.4446         calculate D2E/DX2 analytically  !
 ! R25   R(9,15)                 2.4455         calculate D2E/DX2 analytically  !
 ! R26   R(9,26)                 2.4393         calculate D2E/DX2 analytically  !
 ! R27   R(10,13)                2.4171         calculate D2E/DX2 analytically  !
 ! R28   R(10,24)                2.4157         calculate D2E/DX2 analytically  !
 ! R29   R(11,12)                2.4271         calculate D2E/DX2 analytically  !
 ! R30   R(11,27)                2.427          calculate D2E/DX2 analytically  !
 ! R31   R(12,14)                2.5675         calculate D2E/DX2 analytically  !
 ! R32   R(12,15)                2.4258         calculate D2E/DX2 analytically  !
 ! R33   R(12,52)                2.559          calculate D2E/DX2 analytically  !
 ! R34   R(13,16)                2.4474         calculate D2E/DX2 analytically  !
 ! R35   R(13,26)                2.4314         calculate D2E/DX2 analytically  !
 ! R36   R(13,37)                2.561          calculate D2E/DX2 analytically  !
 ! R37   R(13,38)                2.5614         calculate D2E/DX2 analytically  !
 ! R38   R(14,51)                2.3375         calculate D2E/DX2 analytically  !
 ! R39   R(14,54)                2.4588         calculate D2E/DX2 analytically  !
 ! R40   R(15,27)                2.4268         calculate D2E/DX2 analytically  !
 ! R41   R(16,18)                2.4012         calculate D2E/DX2 analytically  !
 ! R42   R(17,24)                2.5407         calculate D2E/DX2 analytically  !
 ! R43   R(17,33)                2.394          calculate D2E/DX2 analytically  !
 ! R44   R(17,36)                2.4765         calculate D2E/DX2 analytically  !
 ! R45   R(18,19)                2.5264         calculate D2E/DX2 analytically  !
 ! R46   R(18,20)                2.5047         calculate D2E/DX2 analytically  !
 ! R47   R(18,40)                2.4785         calculate D2E/DX2 analytically  !
 ! R48   R(18,62)                2.4733         calculate D2E/DX2 analytically  !
 ! R49   R(19,42)                2.4722         calculate D2E/DX2 analytically  !
 ! R50   R(19,65)                2.4716         calculate D2E/DX2 analytically  !
 ! R51   R(20,42)                2.4711         calculate D2E/DX2 analytically  !
 ! R52   R(20,65)                2.5775         calculate D2E/DX2 analytically  !
 ! R53   R(21,22)                2.5217         calculate D2E/DX2 analytically  !
 ! R54   R(21,23)                2.297          calculate D2E/DX2 analytically  !
 ! R55   R(21,48)                3.0987         calculate D2E/DX2 analytically  !
 ! R56   R(21,49)                2.4969         calculate D2E/DX2 analytically  !
 ! R57   R(21,63)                2.5085         calculate D2E/DX2 analytically  !
 ! R58   R(22,51)                2.4788         calculate D2E/DX2 analytically  !
 ! R59   R(22,63)                2.1148         calculate D2E/DX2 analytically  !
 ! R60   R(23,48)                2.4978         calculate D2E/DX2 analytically  !
 ! R61   R(24,25)                2.5065         calculate D2E/DX2 analytically  !
 ! R62   R(24,26)                2.4206         calculate D2E/DX2 analytically  !
 ! R63   R(24,28)                2.4457         calculate D2E/DX2 analytically  !
 ! R64   R(24,29)                2.4485         calculate D2E/DX2 analytically  !
 ! R65   R(25,33)                2.4945         calculate D2E/DX2 analytically  !
 ! R66   R(25,36)                2.4906         calculate D2E/DX2 analytically  !
 ! R67   R(27,28)                2.441          calculate D2E/DX2 analytically  !
 ! R68   R(27,29)                2.4331         calculate D2E/DX2 analytically  !
 ! R69   R(27,55)                2.5716         calculate D2E/DX2 analytically  !
 ! R70   R(27,56)                2.5612         calculate D2E/DX2 analytically  !
 ! R71   R(28,30)                2.3759         calculate D2E/DX2 analytically  !
 ! R72   R(29,30)                2.4111         calculate D2E/DX2 analytically  !
 ! R73   R(30,31)                2.5056         calculate D2E/DX2 analytically  !
 ! R74   R(30,32)                2.526          calculate D2E/DX2 analytically  !
 ! R75   R(30,33)                3.0971         calculate D2E/DX2 analytically  !
 ! R76   R(30,34)                2.2932         calculate D2E/DX2 analytically  !
 ! R77   R(30,64)                2.5211         calculate D2E/DX2 analytically  !
 ! R78   R(31,57)                2.4965         calculate D2E/DX2 analytically  !
 ! R79   R(31,64)                2.1151         calculate D2E/DX2 analytically  !
 ! R80   R(32,33)                2.2495         calculate D2E/DX2 analytically  !
 ! R81   R(33,34)                2.5016         calculate D2E/DX2 analytically  !
 ! R82   R(33,59)                2.1181         calculate D2E/DX2 analytically  !
 ! R83   R(35,36)                2.1128         calculate D2E/DX2 analytically  !
 ! R84   R(36,37)                2.3881         calculate D2E/DX2 analytically  !
 ! R85   R(36,38)                2.3834         calculate D2E/DX2 analytically  !
 ! R86   R(36,39)                2.9692         calculate D2E/DX2 analytically  !
 ! R87   R(37,39)                2.4075         calculate D2E/DX2 analytically  !
 ! R88   R(38,39)                2.3948         calculate D2E/DX2 analytically  !
 ! R89   R(39,40)                2.4527         calculate D2E/DX2 analytically  !
 ! R90   R(39,41)                2.1246         calculate D2E/DX2 analytically  !
 ! R91   R(39,62)                2.4529         calculate D2E/DX2 analytically  !
 ! R92   R(40,68)                2.427          calculate D2E/DX2 analytically  !
 ! R93   R(42,43)                2.3887         calculate D2E/DX2 analytically  !
 ! R94   R(42,44)                2.3811         calculate D2E/DX2 analytically  !
 ! R95   R(42,45)                2.9845         calculate D2E/DX2 analytically  !
 ! R96   R(42,61)                2.1139         calculate D2E/DX2 analytically  !
 ! R97   R(43,45)                2.4183         calculate D2E/DX2 analytically  !
 ! R98   R(44,45)                2.4082         calculate D2E/DX2 analytically  !
 ! R99   R(45,46)                2.4596         calculate D2E/DX2 analytically  !
 ! R100  R(45,47)                2.1136         calculate D2E/DX2 analytically  !
 ! R101  R(46,48)                2.398          calculate D2E/DX2 analytically  !
 ! R102  R(48,49)                2.2797         calculate D2E/DX2 analytically  !
 ! R103  R(48,50)                2.1216         calculate D2E/DX2 analytically  !
 ! R104  R(51,52)                2.3473         calculate D2E/DX2 analytically  !
 ! R105  R(51,54)                2.9946         calculate D2E/DX2 analytically  !
 ! R106  R(51,60)                2.1217         calculate D2E/DX2 analytically  !
 ! R107  R(51,63)                2.4943         calculate D2E/DX2 analytically  !
 ! R108  R(52,54)                2.4589         calculate D2E/DX2 analytically  !
 ! R109  R(53,54)                2.1246         calculate D2E/DX2 analytically  !
 ! R110  R(54,55)                2.455          calculate D2E/DX2 analytically  !
 ! R111  R(54,56)                2.4552         calculate D2E/DX2 analytically  !
 ! R112  R(54,57)                2.9831         calculate D2E/DX2 analytically  !
 ! R113  R(55,57)                2.3367         calculate D2E/DX2 analytically  !
 ! R114  R(56,57)                2.3481         calculate D2E/DX2 analytically  !
 ! R115  R(57,58)                2.1201         calculate D2E/DX2 analytically  !
 ! R116  R(57,64)                2.477          calculate D2E/DX2 analytically  !
 ! R117  R(62,68)                2.4115         calculate D2E/DX2 analytically  !
 ! R118  R(65,66)                2.2238         calculate D2E/DX2 analytically  !
 ! R119  R(65,67)                2.119          calculate D2E/DX2 analytically  !
 ! R120  R(65,68)                2.9823         calculate D2E/DX2 analytically  !
 ! R121  R(65,69)                2.3789         calculate D2E/DX2 analytically  !
 ! R122  R(66,68)                2.6002         calculate D2E/DX2 analytically  !
 ! R123  R(68,69)                2.3496         calculate D2E/DX2 analytically  !
 ! R124  R(68,70)                1.7666         calculate D2E/DX2 analytically  !
 ! R125  R(68,71)                2.359          calculate D2E/DX2 analytically  !
 ! R126  R(68,72)                1.8939         calculate D2E/DX2 analytically  !
 ! R127  R(70,72)                0.7657         calculate D2E/DX2 analytically  !
 ! A1    A(2,1,3)               83.3009         calculate D2E/DX2 analytically  !
 ! A2    A(2,1,4)              135.0508         calculate D2E/DX2 analytically  !
 ! A3    A(2,1,5)               80.2924         calculate D2E/DX2 analytically  !
 ! A4    A(2,1,8)               80.8575         calculate D2E/DX2 analytically  !
 ! A5    A(2,1,46)             137.7545         calculate D2E/DX2 analytically  !
 ! A6    A(3,1,4)              136.0917         calculate D2E/DX2 analytically  !
 ! A7    A(3,1,5)              130.1272         calculate D2E/DX2 analytically  !
 ! A8    A(3,1,8)               85.6128         calculate D2E/DX2 analytically  !
 ! A9    A(3,1,46)              78.0594         calculate D2E/DX2 analytically  !
 ! A10   A(4,1,5)               84.4294         calculate D2E/DX2 analytically  !
 ! A11   A(4,1,8)               81.9468         calculate D2E/DX2 analytically  !
 ! A12   A(4,1,46)              80.9944         calculate D2E/DX2 analytically  !
 ! A13   A(5,1,8)              136.5457         calculate D2E/DX2 analytically  !
 ! A14   A(5,1,46)              83.3906         calculate D2E/DX2 analytically  !
 ! A15   A(8,1,46)             134.0809         calculate D2E/DX2 analytically  !
 ! A16   A(1,2,12)              83.4094         calculate D2E/DX2 analytically  !
 ! A17   A(1,2,21)              81.3261         calculate D2E/DX2 analytically  !
 ! A18   A(12,2,21)             82.7034         calculate D2E/DX2 analytically  !
 ! A19   A(1,3,45)              81.7646         calculate D2E/DX2 analytically  !
 ! A20   A(1,3,48)              80.9664         calculate D2E/DX2 analytically  !
 ! A21   A(45,3,48)             85.3673         calculate D2E/DX2 analytically  !
 ! A22   A(1,4,6)               81.8508         calculate D2E/DX2 analytically  !
 ! A23   A(1,4,9)               81.4354         calculate D2E/DX2 analytically  !
 ! A24   A(6,4,9)               82.5747         calculate D2E/DX2 analytically  !
 ! A25   A(1,5,12)              83.4757         calculate D2E/DX2 analytically  !
 ! A26   A(1,5,21)              80.6696         calculate D2E/DX2 analytically  !
 ! A27   A(12,5,21)             82.1212         calculate D2E/DX2 analytically  !
 ! A28   A(4,6,7)               82.7312         calculate D2E/DX2 analytically  !
 ! A29   A(4,6,8)               81.6145         calculate D2E/DX2 analytically  !
 ! A30   A(4,6,16)             136.3176         calculate D2E/DX2 analytically  !
 ! A31   A(4,6,43)             135.4082         calculate D2E/DX2 analytically  !
 ! A32   A(4,6,44)              82.2928         calculate D2E/DX2 analytically  !
 ! A33   A(7,6,8)              135.8269         calculate D2E/DX2 analytically  !
 ! A34   A(7,6,16)              81.1385         calculate D2E/DX2 analytically  !
 ! A35   A(7,6,43)             134.9427         calculate D2E/DX2 analytically  !
 ! A36   A(7,6,44)              81.9272         calculate D2E/DX2 analytically  !
 ! A37   A(8,6,16)              82.3504         calculate D2E/DX2 analytically  !
 ! A38   A(8,6,43)              81.7852         calculate D2E/DX2 analytically  !
 ! A39   A(8,6,44)             135.7614         calculate D2E/DX2 analytically  !
 ! A40   A(16,6,43)             81.349          calculate D2E/DX2 analytically  !
 ! A41   A(16,6,44)            134.4326         calculate D2E/DX2 analytically  !
 ! A42   A(43,6,44)             81.4563         calculate D2E/DX2 analytically  !
 ! A43   A(6,7,13)              81.4063         calculate D2E/DX2 analytically  !
 ! A44   A(6,7,18)              82.5357         calculate D2E/DX2 analytically  !
 ! A45   A(13,7,18)             81.9495         calculate D2E/DX2 analytically  !
 ! A46   A(1,8,6)               82.1618         calculate D2E/DX2 analytically  !
 ! A47   A(1,8,9)               81.4037         calculate D2E/DX2 analytically  !
 ! A48   A(6,8,9)               82.6457         calculate D2E/DX2 analytically  !
 ! A49   A(4,9,8)               80.889          calculate D2E/DX2 analytically  !
 ! A50   A(4,9,10)              81.8057         calculate D2E/DX2 analytically  !
 ! A51   A(4,9,11)              82.1111         calculate D2E/DX2 analytically  !
 ! A52   A(4,9,15)             136.1381         calculate D2E/DX2 analytically  !
 ! A53   A(4,9,26)             134.7508         calculate D2E/DX2 analytically  !
 ! A54   A(8,9,10)             133.694          calculate D2E/DX2 analytically  !
 ! A55   A(8,9,11)             134.9117         calculate D2E/DX2 analytically  !
 ! A56   A(8,9,15)              83.9926         calculate D2E/DX2 analytically  !
 ! A57   A(8,9,26)              81.5498         calculate D2E/DX2 analytically  !
 ! A58   A(10,9,11)             84.0087         calculate D2E/DX2 analytically  !
 ! A59   A(10,9,15)            134.995          calculate D2E/DX2 analytically  !
 ! A60   A(10,9,26)             80.9562         calculate D2E/DX2 analytically  !
 ! A61   A(11,9,15)             80.087          calculate D2E/DX2 analytically  !
 ! A62   A(11,9,26)            136.5872         calculate D2E/DX2 analytically  !
 ! A63   A(15,9,26)             82.404          calculate D2E/DX2 analytically  !
 ! A64   A(9,10,13)             82.3191         calculate D2E/DX2 analytically  !
 ! A65   A(9,10,24)             81.4245         calculate D2E/DX2 analytically  !
 ! A66   A(13,10,24)            82.3526         calculate D2E/DX2 analytically  !
 ! A67   A(9,11,12)             83.2642         calculate D2E/DX2 analytically  !
 ! A68   A(9,11,27)             83.1069         calculate D2E/DX2 analytically  !
 ! A69   A(12,11,27)            81.6902         calculate D2E/DX2 analytically  !
 ! A70   A(2,12,5)              80.6856         calculate D2E/DX2 analytically  !
 ! A71   A(2,12,11)            132.2647         calculate D2E/DX2 analytically  !
 ! A72   A(2,12,14)             83.4755         calculate D2E/DX2 analytically  !
 ! A73   A(2,12,15)             80.783          calculate D2E/DX2 analytically  !
 ! A74   A(2,12,52)            135.1975         calculate D2E/DX2 analytically  !
 ! A75   A(5,12,11)             81.9524         calculate D2E/DX2 analytically  !
 ! A76   A(5,12,14)            135.9305         calculate D2E/DX2 analytically  !
 ! A77   A(5,12,15)            134.8308         calculate D2E/DX2 analytically  !
 ! A78   A(5,12,52)             81.2281         calculate D2E/DX2 analytically  !
 ! A79   A(11,12,14)           136.1114         calculate D2E/DX2 analytically  !
 ! A80   A(11,12,15)            80.8259         calculate D2E/DX2 analytically  !
 ! A81   A(11,12,52)            84.6678         calculate D2E/DX2 analytically  !
 ! A82   A(14,12,15)            81.7365         calculate D2E/DX2 analytically  !
 ! A83   A(14,12,52)            81.7564         calculate D2E/DX2 analytically  !
 ! A84   A(15,12,52)           137.6246         calculate D2E/DX2 analytically  !
 ! A85   A(7,13,10)             82.4411         calculate D2E/DX2 analytically  !
 ! A86   A(7,13,16)             80.7909         calculate D2E/DX2 analytically  !
 ! A87   A(7,13,26)            136.3992         calculate D2E/DX2 analytically  !
 ! A88   A(7,13,37)             82.0013         calculate D2E/DX2 analytically  !
 ! A89   A(7,13,38)            134.8509         calculate D2E/DX2 analytically  !
 ! A90   A(10,13,16)           136.2925         calculate D2E/DX2 analytically  !
 ! A91   A(10,13,26)            81.7307         calculate D2E/DX2 analytically  !
 ! A92   A(10,13,37)            81.5219         calculate D2E/DX2 analytically  !
 ! A93   A(10,13,38)           135.3382         calculate D2E/DX2 analytically  !
 ! A94   A(16,13,26)            83.257          calculate D2E/DX2 analytically  !
 ! A95   A(16,13,37)           134.8284         calculate D2E/DX2 analytically  !
 ! A96   A(16,13,38)            81.9829         calculate D2E/DX2 analytically  !
 ! A97   A(26,13,37)           134.7155         calculate D2E/DX2 analytically  !
 ! A98   A(26,13,38)            81.7932         calculate D2E/DX2 analytically  !
 ! A99   A(37,13,38)            81.3112         calculate D2E/DX2 analytically  !
 ! A100  A(12,14,51)            80.2929         calculate D2E/DX2 analytically  !
 ! A101  A(12,14,54)            77.0819         calculate D2E/DX2 analytically  !
 ! A102  A(9,15,12)             83.2742         calculate D2E/DX2 analytically  !
 ! A103  A(9,15,27)             83.0931         calculate D2E/DX2 analytically  !
 ! A104  A(12,15,27)            81.7215         calculate D2E/DX2 analytically  !
 ! A105  A(6,16,13)             81.4978         calculate D2E/DX2 analytically  !
 ! A106  A(6,16,18)             82.8441         calculate D2E/DX2 analytically  !
 ! A107  A(13,16,18)            81.8764         calculate D2E/DX2 analytically  !
 ! A108  A(24,17,33)            82.4721         calculate D2E/DX2 analytically  !
 ! A109  A(24,17,36)            82.1781         calculate D2E/DX2 analytically  !
 ! A110  A(33,17,36)            90.8686         calculate D2E/DX2 analytically  !
 ! A111  A(7,18,16)             82.4671         calculate D2E/DX2 analytically  !
 ! A112  A(7,18,19)             83.3252         calculate D2E/DX2 analytically  !
 ! A113  A(7,18,20)            135.3229         calculate D2E/DX2 analytically  !
 ! A114  A(7,18,40)             83.8524         calculate D2E/DX2 analytically  !
 ! A115  A(7,18,62)            134.9761         calculate D2E/DX2 analytically  !
 ! A116  A(16,18,19)           133.5468         calculate D2E/DX2 analytically  !
 ! A117  A(16,18,20)            86.4813         calculate D2E/DX2 analytically  !
 ! A118  A(16,18,40)           136.0123         calculate D2E/DX2 analytically  !
 ! A119  A(16,18,62)            81.2068         calculate D2E/DX2 analytically  !
 ! A120  A(19,18,20)            73.5881         calculate D2E/DX2 analytically  !
 ! A121  A(19,18,40)            85.5856         calculate D2E/DX2 analytically  !
 ! A122  A(19,18,62)           135.8968         calculate D2E/DX2 analytically  !
 ! A123  A(20,18,40)           130.3048         calculate D2E/DX2 analytically  !
 ! A124  A(20,18,62)            85.0135         calculate D2E/DX2 analytically  !
 ! A125  A(40,18,62)            79.5646         calculate D2E/DX2 analytically  !
 ! A126  A(18,19,42)            83.1485         calculate D2E/DX2 analytically  !
 ! A127  A(18,19,65)            83.8693         calculate D2E/DX2 analytically  !
 ! A128  A(42,19,65)            96.4063         calculate D2E/DX2 analytically  !
 ! A129  A(18,20,42)            83.6211         calculate D2E/DX2 analytically  !
 ! A130  A(18,20,65)            82.168          calculate D2E/DX2 analytically  !
 ! A131  A(42,20,65)            93.7545         calculate D2E/DX2 analytically  !
 ! A132  A(2,21,5)              82.3747         calculate D2E/DX2 analytically  !
 ! A133  A(2,21,22)             95.6519         calculate D2E/DX2 analytically  !
 ! A134  A(2,21,23)             88.1502         calculate D2E/DX2 analytically  !
 ! A135  A(2,21,48)             97.2643         calculate D2E/DX2 analytically  !
 ! A136  A(2,21,49)            139.5773         calculate D2E/DX2 analytically  !
 ! A137  A(2,21,63)            133.4232         calculate D2E/DX2 analytically  !
 ! A138  A(5,21,22)            132.8109         calculate D2E/DX2 analytically  !
 ! A139  A(5,21,23)            138.5894         calculate D2E/DX2 analytically  !
 ! A140  A(5,21,48)             88.6308         calculate D2E/DX2 analytically  !
 ! A141  A(5,21,49)             79.8518         calculate D2E/DX2 analytically  !
 ! A142  A(5,21,63)             99.3795         calculate D2E/DX2 analytically  !
 ! A143  A(22,21,23)            88.0939         calculate D2E/DX2 analytically  !
 ! A144  A(22,21,48)           137.9178         calculate D2E/DX2 analytically  !
 ! A145  A(22,21,49)           122.8357         calculate D2E/DX2 analytically  !
 ! A146  A(23,21,49)            81.8576         calculate D2E/DX2 analytically  !
 ! A147  A(23,21,63)           115.8074         calculate D2E/DX2 analytically  !
 ! A148  A(48,21,63)           129.2214         calculate D2E/DX2 analytically  !
 ! A149  A(49,21,63)            85.3957         calculate D2E/DX2 analytically  !
 ! A150  A(21,22,51)            87.6349         calculate D2E/DX2 analytically  !
 ! A151  A(10,24,17)           133.8531         calculate D2E/DX2 analytically  !
 ! A152  A(10,24,25)            86.8306         calculate D2E/DX2 analytically  !
 ! A153  A(10,24,26)            81.9818         calculate D2E/DX2 analytically  !
 ! A154  A(10,24,28)            80.3597         calculate D2E/DX2 analytically  !
 ! A155  A(10,24,29)           135.9869         calculate D2E/DX2 analytically  !
 ! A156  A(17,24,25)            76.283          calculate D2E/DX2 analytically  !
 ! A157  A(17,24,26)            81.3415         calculate D2E/DX2 analytically  !
 ! A158  A(17,24,28)           138.0745         calculate D2E/DX2 analytically  !
 ! A159  A(17,24,29)            84.3931         calculate D2E/DX2 analytically  !
 ! A160  A(25,24,26)           135.922          calculate D2E/DX2 analytically  !
 ! A161  A(25,24,28)            84.0909         calculate D2E/DX2 analytically  !
 ! A162  A(25,24,29)           129.5688         calculate D2E/DX2 analytically  !
 ! A163  A(26,24,28)           134.7863         calculate D2E/DX2 analytically  !
 ! A164  A(26,24,29)            84.4297         calculate D2E/DX2 analytically  !
 ! A165  A(28,24,29)            80.1891         calculate D2E/DX2 analytically  !
 ! A166  A(24,25,33)            81.204          calculate D2E/DX2 analytically  !
 ! A167  A(24,25,36)            82.5932         calculate D2E/DX2 analytically  !
 ! A168  A(33,25,36)            88.2418         calculate D2E/DX2 analytically  !
 ! A169  A(9,26,13)             82.1957         calculate D2E/DX2 analytically  !
 ! A170  A(9,26,24)             81.4938         calculate D2E/DX2 analytically  !
 ! A171  A(13,26,24)            81.9585         calculate D2E/DX2 analytically  !
 ! A172  A(11,27,15)            80.8094         calculate D2E/DX2 analytically  !
 ! A173  A(11,27,28)            80.9195         calculate D2E/DX2 analytically  !
 ! A174  A(11,27,29)           134.8314         calculate D2E/DX2 analytically  !
 ! A175  A(11,27,55)            81.3382         calculate D2E/DX2 analytically  !
 ! A176  A(11,27,56)           137.2441         calculate D2E/DX2 analytically  !
 ! A177  A(15,27,28)           132.1543         calculate D2E/DX2 analytically  !
 ! A178  A(15,27,29)            81.852          calculate D2E/DX2 analytically  !
 ! A179  A(15,27,55)           135.7569         calculate D2E/DX2 analytically  !
 ! A180  A(15,27,56)            84.595          calculate D2E/DX2 analytically  !
 ! A181  A(28,27,29)            80.5857         calculate D2E/DX2 analytically  !
 ! A182  A(28,27,55)            83.8085         calculate D2E/DX2 analytically  !
 ! A183  A(28,27,56)           135.4094         calculate D2E/DX2 analytically  !
 ! A184  A(29,27,55)           136.4628         calculate D2E/DX2 analytically  !
 ! A185  A(29,27,56)            81.5341         calculate D2E/DX2 analytically  !
 ! A186  A(55,27,56)            81.7444         calculate D2E/DX2 analytically  !
 ! A187  A(24,28,27)            83.6836         calculate D2E/DX2 analytically  !
 ! A188  A(24,28,30)            81.596          calculate D2E/DX2 analytically  !
 ! A189  A(27,28,30)            82.3475         calculate D2E/DX2 analytically  !
 ! A190  A(24,29,27)            83.7885         calculate D2E/DX2 analytically  !
 ! A191  A(24,29,30)            80.8344         calculate D2E/DX2 analytically  !
 ! A192  A(27,29,30)            81.7929         calculate D2E/DX2 analytically  !
 ! A193  A(28,30,29)            82.3607         calculate D2E/DX2 analytically  !
 ! A194  A(28,30,31)           133.6905         calculate D2E/DX2 analytically  !
 ! A195  A(28,30,32)           139.6989         calculate D2E/DX2 analytically  !
 ! A196  A(28,30,33)            98.1224         calculate D2E/DX2 analytically  !
 ! A197  A(28,30,34)            88.6198         calculate D2E/DX2 analytically  !
 ! A198  A(28,30,64)            95.3537         calculate D2E/DX2 analytically  !
 ! A199  A(29,30,31)           100.2018         calculate D2E/DX2 analytically  !
 ! A200  A(29,30,32)            79.6354         calculate D2E/DX2 analytically  !
 ! A201  A(29,30,33)            88.0486         calculate D2E/DX2 analytically  !
 ! A202  A(29,30,34)           138.108          calculate D2E/DX2 analytically  !
 ! A203  A(29,30,64)           133.234          calculate D2E/DX2 analytically  !
 ! A204  A(31,30,32)            85.1173         calculate D2E/DX2 analytically  !
 ! A205  A(31,30,33)           128.0756         calculate D2E/DX2 analytically  !
 ! A206  A(31,30,34)           115.009          calculate D2E/DX2 analytically  !
 ! A207  A(32,30,34)            81.4384         calculate D2E/DX2 analytically  !
 ! A208  A(32,30,64)           123.0167         calculate D2E/DX2 analytically  !
 ! A209  A(33,30,64)           138.0043         calculate D2E/DX2 analytically  !
 ! A210  A(34,30,64)            88.1878         calculate D2E/DX2 analytically  !
 ! A211  A(30,31,57)            87.5546         calculate D2E/DX2 analytically  !
 ! A212  A(17,33,25)            79.2088         calculate D2E/DX2 analytically  !
 ! A213  A(17,33,30)            97.4283         calculate D2E/DX2 analytically  !
 ! A214  A(17,33,32)            92.4945         calculate D2E/DX2 analytically  !
 ! A215  A(17,33,34)           137.547          calculate D2E/DX2 analytically  !
 ! A216  A(17,33,59)           115.5327         calculate D2E/DX2 analytically  !
 ! A217  A(25,33,30)            86.9734         calculate D2E/DX2 analytically  !
 ! A218  A(25,33,32)           138.5427         calculate D2E/DX2 analytically  !
 ! A219  A(25,33,34)            77.0856         calculate D2E/DX2 analytically  !
 ! A220  A(25,33,59)           115.5938         calculate D2E/DX2 analytically  !
 ! A221  A(30,33,59)           142.3012         calculate D2E/DX2 analytically  !
 ! A222  A(32,33,34)            82.8379         calculate D2E/DX2 analytically  !
 ! A223  A(32,33,59)           104.6994         calculate D2E/DX2 analytically  !
 ! A224  A(34,33,59)           106.3989         calculate D2E/DX2 analytically  !
 ! A225  A(17,36,25)            77.7438         calculate D2E/DX2 analytically  !
 ! A226  A(17,36,35)           106.9309         calculate D2E/DX2 analytically  !
 ! A227  A(17,36,37)           137.5928         calculate D2E/DX2 analytically  !
 ! A228  A(17,36,38)            80.4536         calculate D2E/DX2 analytically  !
 ! A229  A(17,36,39)           132.1926         calculate D2E/DX2 analytically  !
 ! A230  A(25,36,35)           105.4982         calculate D2E/DX2 analytically  !
 ! A231  A(25,36,37)            84.4628         calculate D2E/DX2 analytically  !
 ! A232  A(25,36,38)           138.863          calculate D2E/DX2 analytically  !
 ! A233  A(25,36,39)           136.4964         calculate D2E/DX2 analytically  !
 ! A234  A(35,36,37)           114.8674         calculate D2E/DX2 analytically  !
 ! A235  A(35,36,38)           114.0835         calculate D2E/DX2 analytically  !
 ! A236  A(35,36,39)            95.1283         calculate D2E/DX2 analytically  !
 ! A237  A(37,36,38)            88.7615         calculate D2E/DX2 analytically  !
 ! A238  A(13,37,36)            79.8148         calculate D2E/DX2 analytically  !
 ! A239  A(13,37,39)            79.1081         calculate D2E/DX2 analytically  !
 ! A240  A(13,38,36)            79.8925         calculate D2E/DX2 analytically  !
 ! A241  A(13,38,39)            79.3318         calculate D2E/DX2 analytically  !
 ! A242  A(36,39,40)           134.0021         calculate D2E/DX2 analytically  !
 ! A243  A(36,39,41)           101.4543         calculate D2E/DX2 analytically  !
 ! A244  A(36,39,62)           131.7332         calculate D2E/DX2 analytically  !
 ! A245  A(37,39,38)            88.0446         calculate D2E/DX2 analytically  !
 ! A246  A(37,39,40)            82.5511         calculate D2E/DX2 analytically  !
 ! A247  A(37,39,41)           119.3614         calculate D2E/DX2 analytically  !
 ! A248  A(37,39,62)           137.8839         calculate D2E/DX2 analytically  !
 ! A249  A(38,39,40)           139.0601         calculate D2E/DX2 analytically  !
 ! A250  A(38,39,41)           117.3484         calculate D2E/DX2 analytically  !
 ! A251  A(38,39,62)            80.3342         calculate D2E/DX2 analytically  !
 ! A252  A(40,39,41)           101.8071         calculate D2E/DX2 analytically  !
 ! A253  A(40,39,62)            80.4665         calculate D2E/DX2 analytically  !
 ! A254  A(41,39,62)           101.7669         calculate D2E/DX2 analytically  !
 ! A255  A(18,40,39)            82.0634         calculate D2E/DX2 analytically  !
 ! A256  A(18,40,68)            80.8684         calculate D2E/DX2 analytically  !
 ! A257  A(39,40,68)            84.5101         calculate D2E/DX2 analytically  !
 ! A258  A(19,42,20)            75.1209         calculate D2E/DX2 analytically  !
 ! A259  A(19,42,43)           138.2359         calculate D2E/DX2 analytically  !
 ! A260  A(19,42,44)            81.9726         calculate D2E/DX2 analytically  !
 ! A261  A(19,42,45)           133.822          calculate D2E/DX2 analytically  !
 ! A262  A(19,42,61)           104.6236         calculate D2E/DX2 analytically  !
 ! A263  A(20,42,43)            85.9045         calculate D2E/DX2 analytically  !
 ! A264  A(20,42,44)           138.6022         calculate D2E/DX2 analytically  !
 ! A265  A(20,42,45)           137.9532         calculate D2E/DX2 analytically  !
 ! A266  A(20,42,61)           103.6498         calculate D2E/DX2 analytically  !
 ! A267  A(43,42,44)            88.9684         calculate D2E/DX2 analytically  !
 ! A268  A(43,42,61)           115.9892         calculate D2E/DX2 analytically  !
 ! A269  A(44,42,61)           115.378          calculate D2E/DX2 analytically  !
 ! A270  A(45,42,61)            97.1346         calculate D2E/DX2 analytically  !
 ! A271  A(6,43,42)             79.4942         calculate D2E/DX2 analytically  !
 ! A272  A(6,43,45)             79.0914         calculate D2E/DX2 analytically  !
 ! A273  A(6,44,42)             79.7258         calculate D2E/DX2 analytically  !
 ! A274  A(6,44,45)             79.3677         calculate D2E/DX2 analytically  !
 ! A275  A(3,45,42)            135.1116         calculate D2E/DX2 analytically  !
 ! A276  A(3,45,43)             83.9374         calculate D2E/DX2 analytically  !
 ! A277  A(3,45,44)            139.7715         calculate D2E/DX2 analytically  !
 ! A278  A(3,45,46)             80.1403         calculate D2E/DX2 analytically  !
 ! A279  A(3,45,47)            105.1378         calculate D2E/DX2 analytically  !
 ! A280  A(42,45,46)           131.5219         calculate D2E/DX2 analytically  !
 ! A281  A(42,45,47)            95.6431         calculate D2E/DX2 analytically  !
 ! A282  A(43,45,44)            87.6511         calculate D2E/DX2 analytically  !
 ! A283  A(43,45,46)           138.3375         calculate D2E/DX2 analytically  !
 ! A284  A(43,45,47)           115.0832         calculate D2E/DX2 analytically  !
 ! A285  A(44,45,46)            80.4819         calculate D2E/DX2 analytically  !
 ! A286  A(44,45,47)           114.0102         calculate D2E/DX2 analytically  !
 ! A287  A(46,45,47)           106.1996         calculate D2E/DX2 analytically  !
 ! A288  A(1,46,45)             81.5169         calculate D2E/DX2 analytically  !
 ! A289  A(1,46,48)             81.9075         calculate D2E/DX2 analytically  !
 ! A290  A(45,46,48)            87.2311         calculate D2E/DX2 analytically  !
 ! A291  A(3,48,21)             87.2071         calculate D2E/DX2 analytically  !
 ! A292  A(3,48,23)             77.4282         calculate D2E/DX2 analytically  !
 ! A293  A(3,48,46)             81.3535         calculate D2E/DX2 analytically  !
 ! A294  A(3,48,49)            137.8658         calculate D2E/DX2 analytically  !
 ! A295  A(3,48,50)            117.1554         calculate D2E/DX2 analytically  !
 ! A296  A(21,48,46)            96.1063         calculate D2E/DX2 analytically  !
 ! A297  A(21,48,50)           139.2324         calculate D2E/DX2 analytically  !
 ! A298  A(23,48,46)           137.591          calculate D2E/DX2 analytically  !
 ! A299  A(23,48,49)            82.1764         calculate D2E/DX2 analytically  !
 ! A300  A(23,48,50)           103.9369         calculate D2E/DX2 analytically  !
 ! A301  A(46,48,49)            89.8349         calculate D2E/DX2 analytically  !
 ! A302  A(46,48,50)           118.4154         calculate D2E/DX2 analytically  !
 ! A303  A(49,48,50)           103.3187         calculate D2E/DX2 analytically  !
 ! A304  A(14,51,22)            93.1227         calculate D2E/DX2 analytically  !
 ! A305  A(14,51,52)            91.4782         calculate D2E/DX2 analytically  !
 ! A306  A(14,51,60)           116.2836         calculate D2E/DX2 analytically  !
 ! A307  A(14,51,63)           133.6987         calculate D2E/DX2 analytically  !
 ! A308  A(22,51,52)           133.8632         calculate D2E/DX2 analytically  !
 ! A309  A(22,51,54)           145.8526         calculate D2E/DX2 analytically  !
 ! A310  A(22,51,60)           101.3418         calculate D2E/DX2 analytically  !
 ! A311  A(52,51,60)           117.3139         calculate D2E/DX2 analytically  !
 ! A312  A(52,51,63)            96.4628         calculate D2E/DX2 analytically  !
 ! A313  A(54,51,60)            99.4198         calculate D2E/DX2 analytically  !
 ! A314  A(54,51,63)           149.1421         calculate D2E/DX2 analytically  !
 ! A315  A(60,51,63)           100.1079         calculate D2E/DX2 analytically  !
 ! A316  A(12,52,51)            80.2918         calculate D2E/DX2 analytically  !
 ! A317  A(12,52,54)            77.2394         calculate D2E/DX2 analytically  !
 ! A318  A(14,54,52)            86.0396         calculate D2E/DX2 analytically  !
 ! A319  A(14,54,53)           108.2705         calculate D2E/DX2 analytically  !
 ! A320  A(14,54,55)           142.4128         calculate D2E/DX2 analytically  !
 ! A321  A(14,54,56)            82.7414         calculate D2E/DX2 analytically  !
 ! A322  A(14,54,57)           132.7302         calculate D2E/DX2 analytically  !
 ! A323  A(51,54,53)            86.728          calculate D2E/DX2 analytically  !
 ! A324  A(51,54,55)           132.4203         calculate D2E/DX2 analytically  !
 ! A325  A(51,54,56)           132.1371         calculate D2E/DX2 analytically  !
 ! A326  A(52,54,53)           107.021          calculate D2E/DX2 analytically  !
 ! A327  A(52,54,55)            82.6382         calculate D2E/DX2 analytically  !
 ! A328  A(52,54,56)           144.9772         calculate D2E/DX2 analytically  !
 ! A329  A(52,54,57)           132.191          calculate D2E/DX2 analytically  !
 ! A330  A(53,54,55)           109.3127         calculate D2E/DX2 analytically  !
 ! A331  A(53,54,56)           107.9992         calculate D2E/DX2 analytically  !
 ! A332  A(53,54,57)            88.0772         calculate D2E/DX2 analytically  !
 ! A333  A(55,54,56)            86.3196         calculate D2E/DX2 analytically  !
 ! A334  A(27,55,54)            77.2243         calculate D2E/DX2 analytically  !
 ! A335  A(27,55,57)            80.1428         calculate D2E/DX2 analytically  !
 ! A336  A(27,56,54)            77.4186         calculate D2E/DX2 analytically  !
 ! A337  A(27,56,57)            80.1493         calculate D2E/DX2 analytically  !
 ! A338  A(31,57,54)           149.4371         calculate D2E/DX2 analytically  !
 ! A339  A(31,57,55)           133.6401         calculate D2E/DX2 analytically  !
 ! A340  A(31,57,56)            96.664          calculate D2E/DX2 analytically  !
 ! A341  A(31,57,58)           100.3379         calculate D2E/DX2 analytically  !
 ! A342  A(54,57,58)            98.9828         calculate D2E/DX2 analytically  !
 ! A343  A(54,57,64)           145.6035         calculate D2E/DX2 analytically  !
 ! A344  A(55,57,56)            91.6052         calculate D2E/DX2 analytically  !
 ! A345  A(55,57,58)           115.99           calculate D2E/DX2 analytically  !
 ! A346  A(55,57,64)            92.7766         calculate D2E/DX2 analytically  !
 ! A347  A(56,57,58)           117.1347         calculate D2E/DX2 analytically  !
 ! A348  A(56,57,64)           133.7884         calculate D2E/DX2 analytically  !
 ! A349  A(58,57,64)           101.8349         calculate D2E/DX2 analytically  !
 ! A350  A(18,62,39)            82.1657         calculate D2E/DX2 analytically  !
 ! A351  A(18,62,68)            81.2791         calculate D2E/DX2 analytically  !
 ! A352  A(39,62,68)            84.8355         calculate D2E/DX2 analytically  !
 ! A353  A(21,63,51)            87.5862         calculate D2E/DX2 analytically  !
 ! A354  A(30,64,57)            87.6381         calculate D2E/DX2 analytically  !
 ! A355  A(19,65,20)            73.2518         calculate D2E/DX2 analytically  !
 ! A356  A(19,65,66)            88.4086         calculate D2E/DX2 analytically  !
 ! A357  A(19,65,67)           111.9303         calculate D2E/DX2 analytically  !
 ! A358  A(19,65,68)            97.1741         calculate D2E/DX2 analytically  !
 ! A359  A(19,65,69)           137.6885         calculate D2E/DX2 analytically  !
 ! A360  A(20,65,66)           140.3504         calculate D2E/DX2 analytically  !
 ! A361  A(20,65,67)           112.2239         calculate D2E/DX2 analytically  !
 ! A362  A(20,65,68)            89.3605         calculate D2E/DX2 analytically  !
 ! A363  A(20,65,69)            79.2707         calculate D2E/DX2 analytically  !
 ! A364  A(66,65,67)           107.1796         calculate D2E/DX2 analytically  !
 ! A365  A(66,65,69)            92.9516         calculate D2E/DX2 analytically  !
 ! A366  A(67,65,68)           147.4394         calculate D2E/DX2 analytically  !
 ! A367  A(67,65,69)           107.9737         calculate D2E/DX2 analytically  !
 ! A368  A(40,68,62)            81.8181         calculate D2E/DX2 analytically  !
 ! A369  A(40,68,65)            91.7872         calculate D2E/DX2 analytically  !
 ! A370  A(40,68,66)            78.5876         calculate D2E/DX2 analytically  !
 ! A371  A(40,68,69)           139.1618         calculate D2E/DX2 analytically  !
 ! A372  A(40,68,70)           135.74           calculate D2E/DX2 analytically  !
 ! A373  A(40,68,71)           103.5387         calculate D2E/DX2 analytically  !
 ! A374  A(40,68,72)           129.2104         calculate D2E/DX2 analytically  !
 ! A375  A(62,68,65)            99.6144         calculate D2E/DX2 analytically  !
 ! A376  A(62,68,66)           139.2974         calculate D2E/DX2 analytically  !
 ! A377  A(62,68,69)            87.416          calculate D2E/DX2 analytically  !
 ! A378  A(62,68,70)            81.2235         calculate D2E/DX2 analytically  !
 ! A379  A(62,68,71)           139.5306         calculate D2E/DX2 analytically  !
 ! A380  A(62,68,72)           102.6484         calculate D2E/DX2 analytically  !
 ! A381  A(65,68,70)           131.2687         calculate D2E/DX2 analytically  !
 ! A382  A(65,68,71)           119.967          calculate D2E/DX2 analytically  !
 ! A383  A(65,68,72)           135.3913         calculate D2E/DX2 analytically  !
 ! A384  A(66,68,69)            84.6825         calculate D2E/DX2 analytically  !
 ! A385  A(66,68,70)           135.9386         calculate D2E/DX2 analytically  !
 ! A386  A(66,68,71)            80.1008         calculate D2E/DX2 analytically  !
 ! A387  A(66,68,72)           117.402          calculate D2E/DX2 analytically  !
 ! A388  A(69,68,70)            80.258          calculate D2E/DX2 analytically  !
 ! A389  A(69,68,71)           109.9227         calculate D2E/DX2 analytically  !
 ! A390  A(69,68,72)            91.5583         calculate D2E/DX2 analytically  !
 ! A391  A(70,68,71)            66.9425         calculate D2E/DX2 analytically  !
 ! A392  A(71,68,72)            43.1219         calculate D2E/DX2 analytically  !
 ! A393  L(51,54,57,53,-1)     174.8053         calculate D2E/DX2 analytically  !
 ! A394  L(51,54,57,53,-2)     179.9173         calculate D2E/DX2 analytically  !
 ! D1    D(3,1,2,12)           173.6165         calculate D2E/DX2 analytically  !
 ! D2    D(3,1,2,21)            90.03           calculate D2E/DX2 analytically  !
 ! D3    D(4,1,2,12)           -30.9995         calculate D2E/DX2 analytically  !
 ! D4    D(4,1,2,21)          -114.586          calculate D2E/DX2 analytically  !
 ! D5    D(5,1,2,12)            40.8948         calculate D2E/DX2 analytically  !
 ! D6    D(5,1,2,21)           -42.6917         calculate D2E/DX2 analytically  !
 ! D7    D(8,1,2,12)           -99.7722         calculate D2E/DX2 analytically  !
 ! D8    D(8,1,2,21)           176.6413         calculate D2E/DX2 analytically  !
 ! D9    D(46,1,2,12)          109.6685         calculate D2E/DX2 analytically  !
 ! D10   D(46,1,2,21)           26.082          calculate D2E/DX2 analytically  !
 ! D11   D(2,1,3,45)           174.2019         calculate D2E/DX2 analytically  !
 ! D12   D(2,1,3,48)           -99.2163         calculate D2E/DX2 analytically  !
 ! D13   D(4,1,3,45)            19.3099         calculate D2E/DX2 analytically  !
 ! D14   D(4,1,3,48)           105.8917         calculate D2E/DX2 analytically  !
 ! D15   D(5,1,3,45)          -114.5245         calculate D2E/DX2 analytically  !
 ! D16   D(5,1,3,48)           -27.9427         calculate D2E/DX2 analytically  !
 ! D17   D(8,1,3,45)            92.9124         calculate D2E/DX2 analytically  !
 ! D18   D(8,1,3,48)           179.4942         calculate D2E/DX2 analytically  !
 ! D19   D(46,1,3,45)          -43.9215         calculate D2E/DX2 analytically  !
 ! D20   D(46,1,3,48)           42.6603         calculate D2E/DX2 analytically  !
 ! D21   D(2,1,4,6)           -109.4956         calculate D2E/DX2 analytically  !
 ! D22   D(2,1,4,9)            -25.8372         calculate D2E/DX2 analytically  !
 ! D23   D(3,1,4,6)             33.8834         calculate D2E/DX2 analytically  !
 ! D24   D(3,1,4,9)            117.5418         calculate D2E/DX2 analytically  !
 ! D25   D(5,1,4,6)           -179.77           calculate D2E/DX2 analytically  !
 ! D26   D(5,1,4,9)            -96.1117         calculate D2E/DX2 analytically  !
 ! D27   D(8,1,4,6)            -41.1423         calculate D2E/DX2 analytically  !
 ! D28   D(8,1,4,9)             42.516          calculate D2E/DX2 analytically  !
 ! D29   D(46,1,4,6)            96.0632         calculate D2E/DX2 analytically  !
 ! D30   D(46,1,4,9)           179.7215         calculate D2E/DX2 analytically  !
 ! D31   D(2,1,5,12)           -40.9664         calculate D2E/DX2 analytically  !
 ! D32   D(2,1,5,21)            42.082          calculate D2E/DX2 analytically  !
 ! D33   D(3,1,5,12)          -113.5702         calculate D2E/DX2 analytically  !
 ! D34   D(3,1,5,21)           -30.5219         calculate D2E/DX2 analytically  !
 ! D35   D(4,1,5,12)            96.604          calculate D2E/DX2 analytically  !
 ! D36   D(4,1,5,21)           179.6523         calculate D2E/DX2 analytically  !
 ! D37   D(8,1,5,12)            24.5184         calculate D2E/DX2 analytically  !
 ! D38   D(8,1,5,21)           107.5667         calculate D2E/DX2 analytically  !
 ! D39   D(46,1,5,12)          178.1495         calculate D2E/DX2 analytically  !
 ! D40   D(46,1,5,21)          -98.8022         calculate D2E/DX2 analytically  !
 ! D41   D(2,1,8,6)            179.6216         calculate D2E/DX2 analytically  !
 ! D42   D(2,1,8,9)             95.9294         calculate D2E/DX2 analytically  !
 ! D43   D(3,1,8,6)            -96.4722         calculate D2E/DX2 analytically  !
 ! D44   D(3,1,8,9)            179.8356         calculate D2E/DX2 analytically  !
 ! D45   D(4,1,8,6)             41.312          calculate D2E/DX2 analytically  !
 ! D46   D(4,1,8,9)            -42.3802         calculate D2E/DX2 analytically  !
 ! D47   D(5,1,8,6)            114.3416         calculate D2E/DX2 analytically  !
 ! D48   D(5,1,8,9)             30.6494         calculate D2E/DX2 analytically  !
 ! D49   D(46,1,8,6)           -27.7664         calculate D2E/DX2 analytically  !
 ! D50   D(46,1,8,9)          -111.4586         calculate D2E/DX2 analytically  !
 ! D51   D(2,1,46,45)          110.0089         calculate D2E/DX2 analytically  !
 ! D52   D(2,1,46,48)           21.6206         calculate D2E/DX2 analytically  !
 ! D53   D(3,1,46,45)           44.2265         calculate D2E/DX2 analytically  !
 ! D54   D(3,1,46,48)          -44.1618         calculate D2E/DX2 analytically  !
 ! D55   D(4,1,46,45)          -96.9508         calculate D2E/DX2 analytically  !
 ! D56   D(4,1,46,48)          174.6609         calculate D2E/DX2 analytically  !
 ! D57   D(5,1,46,45)          177.6709         calculate D2E/DX2 analytically  !
 ! D58   D(5,1,46,48)           89.2826         calculate D2E/DX2 analytically  !
 ! D59   D(8,1,46,45)          -27.495          calculate D2E/DX2 analytically  !
 ! D60   D(8,1,46,48)         -115.8833         calculate D2E/DX2 analytically  !
 ! D61   D(1,2,12,5)           -41.0853         calculate D2E/DX2 analytically  !
 ! D62   D(1,2,12,11)           28.9918         calculate D2E/DX2 analytically  !
 ! D63   D(1,2,12,14)         -179.8146         calculate D2E/DX2 analytically  !
 ! D64   D(1,2,12,15)           97.5393         calculate D2E/DX2 analytically  !
 ! D65   D(1,2,12,52)         -108.4752         calculate D2E/DX2 analytically  !
 ! D66   D(21,2,12,5)           40.9675         calculate D2E/DX2 analytically  !
 ! D67   D(21,2,12,11)         111.0446         calculate D2E/DX2 analytically  !
 ! D68   D(21,2,12,14)         -97.7617         calculate D2E/DX2 analytically  !
 ! D69   D(21,2,12,15)         179.5921         calculate D2E/DX2 analytically  !
 ! D70   D(21,2,12,52)         -26.4224         calculate D2E/DX2 analytically  !
 ! D71   D(1,2,21,5)            43.1747         calculate D2E/DX2 analytically  !
 ! D72   D(1,2,21,22)          175.6867         calculate D2E/DX2 analytically  !
 ! D73   D(1,2,21,23)          -96.4129         calculate D2E/DX2 analytically  !
 ! D74   D(1,2,21,48)          -44.4543         calculate D2E/DX2 analytically  !
 ! D75   D(1,2,21,49)          -21.273          calculate D2E/DX2 analytically  !
 ! D76   D(1,2,21,63)          138.8958         calculate D2E/DX2 analytically  !
 ! D77   D(12,2,21,5)          -41.2291         calculate D2E/DX2 analytically  !
 ! D78   D(12,2,21,22)          91.2829         calculate D2E/DX2 analytically  !
 ! D79   D(12,2,21,23)         179.1833         calculate D2E/DX2 analytically  !
 ! D80   D(12,2,21,48)        -128.8582         calculate D2E/DX2 analytically  !
 ! D81   D(12,2,21,49)        -105.6769         calculate D2E/DX2 analytically  !
 ! D82   D(12,2,21,63)          54.492          calculate D2E/DX2 analytically  !
 ! D83   D(1,3,45,42)          -95.9912         calculate D2E/DX2 analytically  !
 ! D84   D(1,3,45,43)          -96.1811         calculate D2E/DX2 analytically  !
 ! D85   D(1,3,45,44)          -17.0972         calculate D2E/DX2 analytically  !
 ! D86   D(1,3,45,46)           45.1708         calculate D2E/DX2 analytically  !
 ! D87   D(1,3,45,47)          149.4311         calculate D2E/DX2 analytically  !
 ! D88   D(48,3,45,42)        -177.5125         calculate D2E/DX2 analytically  !
 ! D89   D(48,3,45,43)        -177.7024         calculate D2E/DX2 analytically  !
 ! D90   D(48,3,45,44)         -98.6185         calculate D2E/DX2 analytically  !
 ! D91   D(48,3,45,46)         -36.3505         calculate D2E/DX2 analytically  !
 ! D92   D(48,3,45,47)          67.9098         calculate D2E/DX2 analytically  !
 ! D93   D(1,3,48,21)           51.5243         calculate D2E/DX2 analytically  !
 ! D94   D(1,3,48,23)           97.9562         calculate D2E/DX2 analytically  !
 ! D95   D(1,3,48,46)          -45.0876         calculate D2E/DX2 analytically  !
 ! D96   D(1,3,48,49)           34.9829         calculate D2E/DX2 analytically  !
 ! D97   D(1,3,48,50)         -162.6657         calculate D2E/DX2 analytically  !
 ! D98   D(45,3,48,21)         133.9026         calculate D2E/DX2 analytically  !
 ! D99   D(45,3,48,23)        -179.6654         calculate D2E/DX2 analytically  !
 ! D100  D(45,3,48,46)          37.2908         calculate D2E/DX2 analytically  !
 ! D101  D(45,3,48,49)         117.3612         calculate D2E/DX2 analytically  !
 ! D102  D(45,3,48,50)         -80.2874         calculate D2E/DX2 analytically  !
 ! D103  D(1,4,6,7)            179.6295         calculate D2E/DX2 analytically  !
 ! D104  D(1,4,6,8)             41.0682         calculate D2E/DX2 analytically  !
 ! D105  D(1,4,6,16)           110.6318         calculate D2E/DX2 analytically  !
 ! D106  D(1,4,6,43)           -28.1232         calculate D2E/DX2 analytically  !
 ! D107  D(1,4,6,44)           -97.5858         calculate D2E/DX2 analytically  !
 ! D108  D(9,4,6,7)             97.2755         calculate D2E/DX2 analytically  !
 ! D109  D(9,4,6,8)            -41.2858         calculate D2E/DX2 analytically  !
 ! D110  D(9,4,6,16)            28.2778         calculate D2E/DX2 analytically  !
 ! D111  D(9,4,6,43)          -110.4772         calculate D2E/DX2 analytically  !
 ! D112  D(9,4,6,44)          -179.9398         calculate D2E/DX2 analytically  !
 ! D113  D(1,4,9,8)            -41.9787         calculate D2E/DX2 analytically  !
 ! D114  D(1,4,9,10)          -178.8604         calculate D2E/DX2 analytically  !
 ! D115  D(1,4,9,11)            96.1024         calculate D2E/DX2 analytically  !
 ! D116  D(1,4,9,15)            29.3682         calculate D2E/DX2 analytically  !
 ! D117  D(1,4,9,26)          -110.3526         calculate D2E/DX2 analytically  !
 ! D118  D(6,4,9,8)             40.8443         calculate D2E/DX2 analytically  !
 ! D119  D(6,4,9,10)           -96.0374         calculate D2E/DX2 analytically  !
 ! D120  D(6,4,9,11)           178.9253         calculate D2E/DX2 analytically  !
 ! D121  D(6,4,9,15)           112.1912         calculate D2E/DX2 analytically  !
 ! D122  D(6,4,9,26)           -27.5296         calculate D2E/DX2 analytically  !
 ! D123  D(1,5,12,2)            41.0652         calculate D2E/DX2 analytically  !
 ! D124  D(1,5,12,11)          -94.2927         calculate D2E/DX2 analytically  !
 ! D125  D(1,5,12,14)          111.4938         calculate D2E/DX2 analytically  !
 ! D126  D(1,5,12,15)          -25.8607         calculate D2E/DX2 analytically  !
 ! D127  D(1,5,12,52)          179.9021         calculate D2E/DX2 analytically  !
 ! D128  D(21,5,12,2)          -40.3708         calculate D2E/DX2 analytically  !
 ! D129  D(21,5,12,11)        -175.7288         calculate D2E/DX2 analytically  !
 ! D130  D(21,5,12,14)          30.0577         calculate D2E/DX2 analytically  !
 ! D131  D(21,5,12,15)        -107.2967         calculate D2E/DX2 analytically  !
 ! D132  D(21,5,12,52)          98.4661         calculate D2E/DX2 analytically  !
 ! D133  D(1,5,21,2)           -43.258          calculate D2E/DX2 analytically  !
 ! D134  D(1,5,21,22)         -133.9126         calculate D2E/DX2 analytically  !
 ! D135  D(1,5,21,23)           35.1446         calculate D2E/DX2 analytically  !
 ! D136  D(1,5,21,48)           54.2585         calculate D2E/DX2 analytically  !
 ! D137  D(1,5,21,49)          100.2794         calculate D2E/DX2 analytically  !
 ! D138  D(1,5,21,63)         -176.1639         calculate D2E/DX2 analytically  !
 ! D139  D(12,5,21,2)           41.3765         calculate D2E/DX2 analytically  !
 ! D140  D(12,5,21,22)         -49.2781         calculate D2E/DX2 analytically  !
 ! D141  D(12,5,21,23)         119.7791         calculate D2E/DX2 analytically  !
 ! D142  D(12,5,21,48)         138.893          calculate D2E/DX2 analytically  !
 ! D143  D(12,5,21,49)        -175.0861         calculate D2E/DX2 analytically  !
 ! D144  D(12,5,21,63)         -91.5294         calculate D2E/DX2 analytically  !
 ! D145  D(4,6,7,13)           -96.4097         calculate D2E/DX2 analytically  !
 ! D146  D(4,6,7,18)          -179.3417         calculate D2E/DX2 analytically  !
 ! D147  D(8,6,7,13)           -26.4244         calculate D2E/DX2 analytically  !
 ! D148  D(8,6,7,18)          -109.3565         calculate D2E/DX2 analytically  !
 ! D149  D(16,6,7,13)           42.8549         calculate D2E/DX2 analytically  !
 ! D150  D(16,6,7,18)          -40.0772         calculate D2E/DX2 analytically  !
 ! D151  D(43,6,7,13)          111.0979         calculate D2E/DX2 analytically  !
 ! D152  D(43,6,7,18)           28.1658         calculate D2E/DX2 analytically  !
 ! D153  D(44,6,7,13)         -179.6065         calculate D2E/DX2 analytically  !
 ! D154  D(44,6,7,18)           97.4614         calculate D2E/DX2 analytically  !
 ! D155  D(4,6,8,1)            -41.1347         calculate D2E/DX2 analytically  !
 ! D156  D(4,6,8,9)             41.1434         calculate D2E/DX2 analytically  !
 ! D157  D(7,6,8,1)           -111.5463         calculate D2E/DX2 analytically  !
 ! D158  D(7,6,8,9)            -29.2682         calculate D2E/DX2 analytically  !
 ! D159  D(16,6,8,1)           179.6336         calculate D2E/DX2 analytically  !
 ! D160  D(16,6,8,9)           -98.0882         calculate D2E/DX2 analytically  !
 ! D161  D(43,6,8,1)            97.3316         calculate D2E/DX2 analytically  !
 ! D162  D(43,6,8,9)           179.6097         calculate D2E/DX2 analytically  !
 ! D163  D(44,6,8,1)            28.6414         calculate D2E/DX2 analytically  !
 ! D164  D(44,6,8,9)           110.9195         calculate D2E/DX2 analytically  !
 ! D165  D(4,6,16,13)           26.9002         calculate D2E/DX2 analytically  !
 ! D166  D(4,6,16,18)          109.7061         calculate D2E/DX2 analytically  !
 ! D167  D(7,6,16,13)          -42.6947         calculate D2E/DX2 analytically  !
 ! D168  D(7,6,16,18)           40.1111         calculate D2E/DX2 analytically  !
 ! D169  D(8,6,16,13)           96.1877         calculate D2E/DX2 analytically  !
 ! D170  D(8,6,16,18)          178.9935         calculate D2E/DX2 analytically  !
 ! D171  D(43,6,16,13)         178.9843         calculate D2E/DX2 analytically  !
 ! D172  D(43,6,16,18)         -98.2098         calculate D2E/DX2 analytically  !
 ! D173  D(44,6,16,13)        -112.0918         calculate D2E/DX2 analytically  !
 ! D174  D(44,6,16,18)         -29.286          calculate D2E/DX2 analytically  !
 ! D175  D(4,6,43,42)         -108.2661         calculate D2E/DX2 analytically  !
 ! D176  D(4,6,43,45)          -29.8925         calculate D2E/DX2 analytically  !
 ! D177  D(7,6,43,42)           30.9965         calculate D2E/DX2 analytically  !
 ! D178  D(7,6,43,45)          109.3701         calculate D2E/DX2 analytically  !
 ! D179  D(8,6,43,42)         -177.3921         calculate D2E/DX2 analytically  !
 ! D180  D(8,6,43,45)          -99.0185         calculate D2E/DX2 analytically  !
 ! D181  D(16,6,43,42)          99.1584         calculate D2E/DX2 analytically  !
 ! D182  D(16,6,43,45)         177.5319         calculate D2E/DX2 analytically  !
 ! D183  D(44,6,43,42)         -38.482          calculate D2E/DX2 analytically  !
 ! D184  D(44,6,43,45)          39.8916         calculate D2E/DX2 analytically  !
 ! D185  D(4,6,44,42)          176.9259         calculate D2E/DX2 analytically  !
 ! D186  D(4,6,44,45)           98.2821         calculate D2E/DX2 analytically  !
 ! D187  D(7,6,44,42)          -99.3756         calculate D2E/DX2 analytically  !
 ! D188  D(7,6,44,45)         -178.0194         calculate D2E/DX2 analytically  !
 ! D189  D(8,6,44,42)          107.4083         calculate D2E/DX2 analytically  !
 ! D190  D(8,6,44,45)           28.7645         calculate D2E/DX2 analytically  !
 ! D191  D(16,6,44,42)         -30.2883         calculate D2E/DX2 analytically  !
 ! D192  D(16,6,44,45)        -108.9321         calculate D2E/DX2 analytically  !
 ! D193  D(43,6,44,42)          38.5935         calculate D2E/DX2 analytically  !
 ! D194  D(43,6,44,45)         -40.0503         calculate D2E/DX2 analytically  !
 ! D195  D(6,7,13,10)           96.9652         calculate D2E/DX2 analytically  !
 ! D196  D(6,7,13,16)          -42.521          calculate D2E/DX2 analytically  !
 ! D197  D(6,7,13,26)           27.4358         calculate D2E/DX2 analytically  !
 ! D198  D(6,7,13,37)          179.4067         calculate D2E/DX2 analytically  !
 ! D199  D(6,7,13,38)         -111.385          calculate D2E/DX2 analytically  !
 ! D200  D(18,7,13,10)        -179.426          calculate D2E/DX2 analytically  !
 ! D201  D(18,7,13,16)          41.0879         calculate D2E/DX2 analytically  !
 ! D202  D(18,7,13,26)         111.0447         calculate D2E/DX2 analytically  !
 ! D203  D(18,7,13,37)         -96.9845         calculate D2E/DX2 analytically  !
 ! D204  D(18,7,13,38)         -27.7761         calculate D2E/DX2 analytically  !
 ! D205  D(6,7,18,16)           40.4851         calculate D2E/DX2 analytically  !
 ! D206  D(6,7,18,19)          -95.1714         calculate D2E/DX2 analytically  !
 ! D207  D(6,7,18,20)          -36.7011         calculate D2E/DX2 analytically  !
 ! D208  D(6,7,18,40)          178.5749         calculate D2E/DX2 analytically  !
 ! D209  D(6,7,18,62)          109.9913         calculate D2E/DX2 analytically  !
 ! D210  D(13,7,18,16)         -41.833          calculate D2E/DX2 analytically  !
 ! D211  D(13,7,18,19)        -177.4895         calculate D2E/DX2 analytically  !
 ! D212  D(13,7,18,20)        -119.0192         calculate D2E/DX2 analytically  !
 ! D213  D(13,7,18,40)          96.2568         calculate D2E/DX2 analytically  !
 ! D214  D(13,7,18,62)          27.6732         calculate D2E/DX2 analytically  !
 ! D215  D(1,8,9,4)             42.0911         calculate D2E/DX2 analytically  !
 ! D216  D(1,8,9,10)           111.4283         calculate D2E/DX2 analytically  !
 ! D217  D(1,8,9,11)           -27.0444         calculate D2E/DX2 analytically  !
 ! D218  D(1,8,9,15)           -96.5976         calculate D2E/DX2 analytically  !
 ! D219  D(1,8,9,26)          -179.7781         calculate D2E/DX2 analytically  !
 ! D220  D(6,8,9,4)            -41.0422         calculate D2E/DX2 analytically  !
 ! D221  D(6,8,9,10)            28.295          calculate D2E/DX2 analytically  !
 ! D222  D(6,8,9,11)          -110.1777         calculate D2E/DX2 analytically  !
 ! D223  D(6,8,9,15)          -179.7309         calculate D2E/DX2 analytically  !
 ! D224  D(6,8,9,26)            97.0886         calculate D2E/DX2 analytically  !
 ! D225  D(4,9,10,13)           96.6282         calculate D2E/DX2 analytically  !
 ! D226  D(4,9,10,24)          179.9979         calculate D2E/DX2 analytically  !
 ! D227  D(8,9,10,13)           27.6573         calculate D2E/DX2 analytically  !
 ! D228  D(8,9,10,24)          111.027          calculate D2E/DX2 analytically  !
 ! D229  D(11,9,10,13)         179.4869         calculate D2E/DX2 analytically  !
 ! D230  D(11,9,10,24)         -97.1434         calculate D2E/DX2 analytically  !
 ! D231  D(15,9,10,13)        -110.9825         calculate D2E/DX2 analytically  !
 ! D232  D(15,9,10,24)         -27.6128         calculate D2E/DX2 analytically  !
 ! D233  D(26,9,10,13)         -41.3731         calculate D2E/DX2 analytically  !
 ! D234  D(26,9,10,24)          41.9966         calculate D2E/DX2 analytically  !
 ! D235  D(4,9,11,12)          -98.652          calculate D2E/DX2 analytically  !
 ! D236  D(4,9,11,27)          178.9512         calculate D2E/DX2 analytically  !
 ! D237  D(8,9,11,12)          -29.9899         calculate D2E/DX2 analytically  !
 ! D238  D(8,9,11,27)         -112.3867         calculate D2E/DX2 analytically  !
 ! D239  D(10,9,11,12)         178.8256         calculate D2E/DX2 analytically  !
 ! D240  D(10,9,11,27)          96.4288         calculate D2E/DX2 analytically  !
 ! D241  D(15,9,11,12)          41.0905         calculate D2E/DX2 analytically  !
 ! D242  D(15,9,11,27)         -41.3063         calculate D2E/DX2 analytically  !
 ! D243  D(26,9,11,12)         108.7581         calculate D2E/DX2 analytically  !
 ! D244  D(26,9,11,27)          26.3613         calculate D2E/DX2 analytically  !
 ! D245  D(4,9,15,12)           26.368          calculate D2E/DX2 analytically  !
 ! D246  D(4,9,15,27)          108.7969         calculate D2E/DX2 analytically  !
 ! D247  D(8,9,15,12)           96.5347         calculate D2E/DX2 analytically  !
 ! D248  D(8,9,15,27)          178.9636         calculate D2E/DX2 analytically  !
 ! D249  D(10,9,15,12)        -112.1778         calculate D2E/DX2 analytically  !
 ! D250  D(10,9,15,27)         -29.7489         calculate D2E/DX2 analytically  !
 ! D251  D(11,9,15,12)         -41.117          calculate D2E/DX2 analytically  !
 ! D252  D(11,9,15,27)          41.3118         calculate D2E/DX2 analytically  !
 ! D253  D(26,9,15,12)         178.774          calculate D2E/DX2 analytically  !
 ! D254  D(26,9,15,27)         -98.7971         calculate D2E/DX2 analytically  !
 ! D255  D(4,9,26,13)          -27.7453         calculate D2E/DX2 analytically  !
 ! D256  D(4,9,26,24)         -110.7221         calculate D2E/DX2 analytically  !
 ! D257  D(8,9,26,13)          -95.8634         calculate D2E/DX2 analytically  !
 ! D258  D(8,9,26,24)         -178.8403         calculate D2E/DX2 analytically  !
 ! D259  D(10,9,26,13)          41.0923         calculate D2E/DX2 analytically  !
 ! D260  D(10,9,26,24)         -41.8846         calculate D2E/DX2 analytically  !
 ! D261  D(11,9,26,13)         112.3066         calculate D2E/DX2 analytically  !
 ! D262  D(11,9,26,24)          29.3298         calculate D2E/DX2 analytically  !
 ! D263  D(15,9,26,13)         179.1236         calculate D2E/DX2 analytically  !
 ! D264  D(15,9,26,24)          96.1467         calculate D2E/DX2 analytically  !
 ! D265  D(9,10,13,7)          -97.8078         calculate D2E/DX2 analytically  !
 ! D266  D(9,10,13,16)         -29.6756         calculate D2E/DX2 analytically  !
 ! D267  D(9,10,13,26)          41.434          calculate D2E/DX2 analytically  !
 ! D268  D(9,10,13,37)         179.2079         calculate D2E/DX2 analytically  !
 ! D269  D(9,10,13,38)         110.8076         calculate D2E/DX2 analytically  !
 ! D270  D(24,10,13,7)         179.8759         calculate D2E/DX2 analytically  !
 ! D271  D(24,10,13,16)       -111.9919         calculate D2E/DX2 analytically  !
 ! D272  D(24,10,13,26)        -40.8823         calculate D2E/DX2 analytically  !
 ! D273  D(24,10,13,37)         96.8915         calculate D2E/DX2 analytically  !
 ! D274  D(24,10,13,38)         28.4913         calculate D2E/DX2 analytically  !
 ! D275  D(9,10,24,17)        -112.0051         calculate D2E/DX2 analytically  !
 ! D276  D(9,10,24,25)        -179.5142         calculate D2E/DX2 analytically  !
 ! D277  D(9,10,24,26)         -42.2578         calculate D2E/DX2 analytically  !
 ! D278  D(9,10,24,28)          95.9475         calculate D2E/DX2 analytically  !
 ! D279  D(9,10,24,29)          31.0707         calculate D2E/DX2 analytically  !
 ! D280  D(13,10,24,17)        -28.674          calculate D2E/DX2 analytically  !
 ! D281  D(13,10,24,25)        -96.1831         calculate D2E/DX2 analytically  !
 ! D282  D(13,10,24,26)         41.0732         calculate D2E/DX2 analytically  !
 ! D283  D(13,10,24,28)        179.2785         calculate D2E/DX2 analytically  !
 ! D284  D(13,10,24,29)        114.4017         calculate D2E/DX2 analytically  !
 ! D285  D(9,11,12,2)           27.1428         calculate D2E/DX2 analytically  !
 ! D286  D(9,11,12,5)           96.6938         calculate D2E/DX2 analytically  !
 ! D287  D(9,11,12,14)        -109.1835         calculate D2E/DX2 analytically  !
 ! D288  D(9,11,12,15)         -41.387          calculate D2E/DX2 analytically  !
 ! D289  D(9,11,12,52)         178.5596         calculate D2E/DX2 analytically  !
 ! D290  D(27,11,12,2)         111.1224         calculate D2E/DX2 analytically  !
 ! D291  D(27,11,12,5)        -179.3267         calculate D2E/DX2 analytically  !
 ! D292  D(27,11,12,14)        -25.204          calculate D2E/DX2 analytically  !
 ! D293  D(27,11,12,15)         42.5925         calculate D2E/DX2 analytically  !
 ! D294  D(27,11,12,52)        -97.4608         calculate D2E/DX2 analytically  !
 ! D295  D(9,11,27,15)          41.5869         calculate D2E/DX2 analytically  !
 ! D296  D(9,11,27,28)         -94.0026         calculate D2E/DX2 analytically  !
 ! D297  D(9,11,27,29)         -27.1103         calculate D2E/DX2 analytically  !
 ! D298  D(9,11,27,55)        -179.0614         calculate D2E/DX2 analytically  !
 ! D299  D(9,11,27,56)         113.1929         calculate D2E/DX2 analytically  !
 ! D300  D(12,11,27,15)        -42.5736         calculate D2E/DX2 analytically  !
 ! D301  D(12,11,27,28)       -178.1631         calculate D2E/DX2 analytically  !
 ! D302  D(12,11,27,29)       -111.2709         calculate D2E/DX2 analytically  !
 ! D303  D(12,11,27,55)         96.7781         calculate D2E/DX2 analytically  !
 ! D304  D(12,11,27,56)         29.0324         calculate D2E/DX2 analytically  !
 ! D305  D(2,12,14,51)         101.8699         calculate D2E/DX2 analytically  !
 ! D306  D(2,12,14,54)        -179.1386         calculate D2E/DX2 analytically  !
 ! D307  D(5,12,14,51)          32.502          calculate D2E/DX2 analytically  !
 ! D308  D(5,12,14,54)         111.4934         calculate D2E/DX2 analytically  !
 ! D309  D(11,12,14,51)       -109.0854         calculate D2E/DX2 analytically  !
 ! D310  D(11,12,14,54)        -30.094          calculate D2E/DX2 analytically  !
 ! D311  D(15,12,14,51)       -176.5426         calculate D2E/DX2 analytically  !
 ! D312  D(15,12,14,54)        -97.5512         calculate D2E/DX2 analytically  !
 ! D313  D(52,12,14,51)        -35.7077         calculate D2E/DX2 analytically  !
 ! D314  D(52,12,14,54)         43.2838         calculate D2E/DX2 analytically  !
 ! D315  D(2,12,15,9)          -94.3888         calculate D2E/DX2 analytically  !
 ! D316  D(2,12,15,27)        -178.3497         calculate D2E/DX2 analytically  !
 ! D317  D(5,12,15,9)          -27.5001         calculate D2E/DX2 analytically  !
 ! D318  D(5,12,15,27)        -111.461          calculate D2E/DX2 analytically  !
 ! D319  D(11,12,15,9)          41.3684         calculate D2E/DX2 analytically  !
 ! D320  D(11,12,15,27)        -42.5925         calculate D2E/DX2 analytically  !
 ! D321  D(14,12,15,9)        -179.0666         calculate D2E/DX2 analytically  !
 ! D322  D(14,12,15,27)         96.9725         calculate D2E/DX2 analytically  !
 ! D323  D(52,12,15,9)         112.9057         calculate D2E/DX2 analytically  !
 ! D324  D(52,12,15,27)         28.9448         calculate D2E/DX2 analytically  !
 ! D325  D(2,12,52,51)         -36.4748         calculate D2E/DX2 analytically  !
 ! D326  D(2,12,52,54)        -115.2587         calculate D2E/DX2 analytically  !
 ! D327  D(5,12,52,51)        -103.6585         calculate D2E/DX2 analytically  !
 ! D328  D(5,12,52,54)         177.5576         calculate D2E/DX2 analytically  !
 ! D329  D(11,12,52,51)        173.6878         calculate D2E/DX2 analytically  !
 ! D330  D(11,12,52,54)         94.9039         calculate D2E/DX2 analytically  !
 ! D331  D(14,12,52,51)         35.5372         calculate D2E/DX2 analytically  !
 ! D332  D(14,12,52,54)        -43.2467         calculate D2E/DX2 analytically  !
 ! D333  D(15,12,52,51)        103.5578         calculate D2E/DX2 analytically  !
 ! D334  D(15,12,52,54)         24.7739         calculate D2E/DX2 analytically  !
 ! D335  D(7,13,16,6)           42.7547         calculate D2E/DX2 analytically  !
 ! D336  D(7,13,16,18)         -41.1668         calculate D2E/DX2 analytically  !
 ! D337  D(10,13,16,6)         -25.9931         calculate D2E/DX2 analytically  !
 ! D338  D(10,13,16,18)       -109.9145         calculate D2E/DX2 analytically  !
 ! D339  D(26,13,16,6)         -96.5245         calculate D2E/DX2 analytically  !
 ! D340  D(26,13,16,18)        179.5541         calculate D2E/DX2 analytically  !
 ! D341  D(37,13,16,6)         111.6592         calculate D2E/DX2 analytically  !
 ! D342  D(37,13,16,18)         27.7378         calculate D2E/DX2 analytically  !
 ! D343  D(38,13,16,6)        -179.1412         calculate D2E/DX2 analytically  !
 ! D344  D(38,13,16,18)         96.9374         calculate D2E/DX2 analytically  !
[...]
 0.00101887,0.00014009,0.00066224,0.00024330,-0.00032046,-0.00022045,0.
 00050101,-0.00043727,0.00013399,-0.00002261,-0.00000637,0.00000964,0.0
 0000216,-0.00000614,-0.00000315,0.00000443,-0.00001239,-0.00001460,-0.
 00001522,-0.00003727,0.00000966,-0.00000853,0.00005282,-0.00000408,0.0
 0000922,-0.00000756,0.00000768,-0.00003509,0.00004340,-0.00005734,0.00
 000393,-0.00000282,0.00001335,0.00000769,-0.00001970,0.00001680,0.0000
 1165,-0.00001374,0.00002210,-0.00001384,-0.00000230,-0.00000888,-0.000
 07359,-0.00000345,-0.00003696,0.00020917,0.00007673,-0.00007888,-0.000
 01626,-0.00000973,-0.00001240,0.00006626,-0.00000730,0.00000659,-0.000
 17372,-0.00012382,0.00034056,-0.00000608,-0.00030919,-0.00030302,-0.00
 004887,0.00006550,-0.00023529,-0.00169345,0.00001999,0.00045822,-0.003
 17229,-0.00035495,0.00185372,0.00039776,-0.00041050,-0.00084829,-0.000
 10975,0.00008338,0.00001431,0.00000460,0.00002329,0.00000954,-0.000005
 46,-0.00004089,-0.00002044,0.00008303,-0.00010101,0.00014837,0.0000063
 1,-0.00001769,-0.00003222,0.00000440,0.00002755,-0.00004633,-0.0000714
 1,0.00003950,0.00001987,0.00003320,-0.00000763,-0.00001665,0.00001475,
 0.00001304,-0.00002776,0.00001981,-0.00001894,0.00003033,-0.00000419,-
 0.00000202,0.00000664,-0.00002454,-0.00000309,0.00001183,0.00004069,0.
 00002007,-0.00004696,-0.00000094,-0.00001424,0.00000361,0.00000100,0.0
 0000348,0.00001495,0.00003324,-0.00001632,0.00002466,-0.00004175,0.000
 00416,0.00000368,0.00000022,-0.00002755,0.00004472,-0.00002019,0.00000
 436,-0.00000491,0.00002638,0.00001273,-0.00001297,-0.00207330,0.002182
 50,-0.00043133,0.00000315,0.00000574,0.00000026,-0.00001260,0.00000854
 ,-0.00000467,-0.00034005,0.00164709,0.00129958,0.00094360,0.00101515,-
 0.00099266,0.00016594,-0.00029937,-0.00000045,0.00066557,-0.00290641,-
 0.01759556,0.00031837,0.00176385,-0.00500263,0.02906662,0.02798810,0.0
 5933757,-0.00001291,-0.00000237,-0.00002315,0.00001252,-0.00000877,0.0
 0002242,0.00000040,0.00003596,-0.00000936,0.00002370,-0.00001255,0.000
 06208,0.00000449,-0.00001173,0.00003226,-0.00021987,0.00025289,-0.0003
 7861,0.00000191,0.00018366,0.00048267,0.00000961,-0.00004806,0.0000352
 7,-0.00008493,0.00002839,-0.00001652,0.00002457,-0.00000657,-0.0000040
 4,0.00001767,-0.00001881,0.00001667,-0.00006138,0.00003341,-0.00003311
 ,-0.00003426,0.00007995,-0.00011125,-0.00000156,0.00000642,0.00001394,
 0.00002261,-0.00001311,0.00002344,0.00002801,-0.00016075,0.00011864,-0
 .00002984,-0.00000404,-0.00002889,0.00043768,-0.00029951,-0.00091829,0
 .00032430,-0.00040331,-0.00024307,0.00106957,0.00058118,-0.00026273,-0
 .00001625,0.00000423,0.00000991,-0.00000581,-0.00001461,-0.00000794,0.
 00000939,-0.00001199,-0.00002909,-0.00008855,0.00000661,0.00000411,-0.
 00002290,0.00000759,-0.00001669,0.00005212,0.00001574,0.00002921,-0.00
 008153,0.00002951,-0.00004381,0.00001851,-0.00000318,0.00000757,0.0000
 1508,-0.00001486,0.00000528,-0.00000308,-0.00002779,0.00000224,-0.0000
 1844,-0.00000946,-0.00001224,-0.00009497,-0.00000771,-0.00005677,0.000
 23493,0.00014368,-0.00013201,-0.00000983,-0.00000635,0.00001281,-0.000
 00213,-0.00006629,0.00018046,-0.00001312,0.00015683,-0.00004419,0.0002
 3626,0.00011280,-0.00026240,0.00000746,-0.00036489,-0.00043579,-0.0039
 9287,-0.00068304,0.00246646,-0.00044188,0.00044992,0.00153087,-0.00354
 239,-0.00058813,-0.00075250,-0.00023109,-0.00022688,0.00004106,0.00001
 324,0.00008738,0.00004792,-0.00008448,-0.00009465,0.00001546,0.0000594
 3,-0.00006715,0.00016594,-0.00000491,-0.00002139,-0.00005235,0.0000326
 2,0.00004787,-0.00009820,-0.00005664,-0.00002975,0.00009372,0.00000422
 ,0.00001446,-0.00000805,0.00004702,0.00003913,-0.00007791,0.00006417,-
 0.00002456,0.00003352,-0.00000370,-0.00001370,0.00000326,-0.00007577,0
 .00000701,0.00000105,0.00010490,0.00000707,-0.00003089,0.00000121,-0.0
 0002250,-0.00000676,0.00000461,0.00001559,0.00001449,0.00007352,-0.000
 02395,0.00002819,-0.00008946,0.00000995,0.00000513,0.00000713,-0.00007
 584,0.00012209,-0.00006480,0.00001556,-0.00002202,0.00011333,0.0000585
 4,-0.00021329,-0.00123469,-0.00069997,-0.00121425,-0.00000203,0.000015
 75,0.00000353,-0.00001484,0.00001802,-0.00000182,-0.00043822,-0.000956
 01,0.00306689,0.00131194,0.00598223,-0.00326832,0.00024538,-0.00022717
 ,-0.00110341,-0.04580732,-0.00655099,-0.05019894,0.00430254,-0.0002076
 0,-0.00397193,-0.00419728,-0.00532482,-0.01180233,0.05735753,0.0000481
 8,-0.00002295,0.00001774,0.00000651,0.00000067,0.00001319,-0.00000407,
 0.00003974,-0.00002425,0.00001137,-0.00001204,0.00002228,-0.00000462,-
 0.00001235,0.00001790,0.00027566,0.00002274,0.00018637,-0.00003171,0.0
 0023365,0.00017895,-0.00002016,-0.00005050,0.00001393,0.00000432,0.000
 01213,-0.00002800,0.00002235,-0.00003416,0.00003448,-0.00001379,-0.000
 00325,0.00002936,0.00002720,0.00002049,-0.00002568,0.00000310,0.000212
 84,-0.00012084,-0.00000622,-0.00001253,-0.00000503,-0.00000184,-0.0000
 2202,0.00002187,0.00018106,0.00015885,0.00023293,-0.00005919,-0.000004
 79,-0.00003883,-0.00145499,0.00074996,-0.00210304,0.00023313,0.0005390
 9,-0.00027304,0.00066226,-0.00103671,0.00076653,-0.00003697,-0.0000253
 5,-0.00000183,0.00000520,-0.00000078,0.00000349,-0.00000352,-0.0000211
 8,0.00000066,-0.00002754,-0.00000890,-0.00005420,-0.00002706,0.0000403
 3,0.00000269,0.00000634,-0.00003204,0.00004195,0.00002351,0.00003140,-
 0.00005341,-0.00000836,-0.00000046,0.00002105,-0.00000043,-0.00001981,
 0.00002185,0.00000117,0.00000538,0.00001194,-0.00001228,0.00000096,-0.
 00000595,-0.00003534,0.00001018,-0.00001006,0.00011189,-0.00000437,0.0
 0000025,-0.00001671,-0.00000869,-0.00002338,-0.00004524,0.00003835,-0.
 00007738,0.00025376,0.00002712,0.00010071,-0.00001486,0.00000252,0.000
 23150,0.00010002,-0.00037019,-0.00029181,-0.00065507,-0.00035927,0.001
 61955,0.00075965,-0.00127537,0.00203090,-0.00176626,0.00000899,-0.0012
 0079,-0.00030994,0.00023663,-0.00064309,0.00014726,-0.00001916,-0.0001
 5003,-0.00000839,-0.00004049,0.00002772,0.00014413,-0.00016344,0.00027
 146,0.00002470,-0.00002432,-0.00003179,-0.00001324,0.00002174,-0.00003
 590,-0.00011165,0.00013776,-0.00004660,0.00007983,-0.00002965,-0.00002
 913,-0.00002070,-0.00000915,0.00001733,-0.00001365,-0.00001886,0.00003
 196,-0.00000267,0.00001304,0.00000626,0.00003175,-0.00001280,0.0000210
 0,-0.00003784,0.00002835,-0.00004424,-0.00000732,-0.00000163,0.0000144
 3,-0.00000946,-0.00001372,0.00001474,0.00001297,-0.00000195,0.00000273
 ,-0.00000030,-0.00000035,0.00000121,-0.00001213,0.00000965,-0.00001833
 ,0.00001609,-0.00000424,0.00000813,-0.00014416,-0.00020617,0.00032744,
 0.00173598,0.00390498,-0.00131467,0.00000312,-0.00000259,0.00000040,-0
 .00001178,0.00000238,-0.00000651,-0.00342720,0.00212796,0.00386539,0.0
 0497531,-0.00329767,0.00493584,0.00072059,-0.00045245,-0.00092800,-0.0
 0578815,-0.03004565,-0.01396550,-0.00219630,0.00220944,-0.00314941,-0.
 02892015,0.00018787,-0.03563356,0.01148168,0.02404716,-0.00009531,0.00
 003313,-0.00004606,0.00000851,-0.00001027,-0.00000814,0.00002361,-0.00
 005756,0.00003769,0.00004447,-0.00001545,0.00000119,0.00002092,0.00001
 606,-0.00000740,-0.00062550,0.00035826,-0.00031007,-0.00028267,0.00035
 161,0.00018855,0.00003549,-0.00003142,-0.00000026,-0.00008304,0.000005
 50,0.00000986,0.00002810,0.00007326,-0.00006262,0.00004070,0.00000111,
 -0.00003999,-0.00011569,-0.00001316,0.00004392,-0.00060562,-0.00019380
 ,0.00049906,0.00001148,0.00002820,0.00000840,0.00003186,0.00002216,-0.
 00002122,0.00007222,0.00000786,0.00005548,0.00006746,0.00000864,0.0000
 1565,0.00151991,-0.00090227,-0.00005596,-0.00074569,-0.00028402,-0.000
 40350,0.00013677,0.00125693,0.00002106,0.00005664,0.00005200,0.0000011
 9,-0.00002313,-0.00001123,-0.00000994,0.00001157,0.00002890,-0.0000141
 5,-0.00002710,0.00002446,0.00006898,0.00001665,-0.00006070,-0.00001900
 ,0.00002795,0.00004056,-0.00009365,-0.00010295,-0.00002907,0.00004378,
 0.00003081,0.00000484,-0.00003873,0.00001869,0.00002479,-0.00004400,-0
 .00001883,-0.00003041,-0.00003551,0.00000238,-0.00001366,-0.00000037,-
 0.00000213,-0.00001527,-0.00001883,-0.00002411,0.00010508,-0.00010862,
 0.00002412,0.00001062,0.00006016,0.00015282,-0.00013537,0.00023259,-0.
 00058748,0.00026341,0.00012556,-0.00006289,-0.00033333,-0.00058613,0.0
 0031652,0.00089604,0.00003032,-0.00046112,0.00104749,-0.00188333,-0.00
 091578,0.00118675,0.00073504,0.00044259,-0.00225143,0.00243192,0.00006
 415,-0.00014664,0.00065782,-0.00006986,-0.00000372,0.00015185,-0.00011
 010,-0.00014185,0.00002871,-0.00034098,0.00026457,-0.00035357,-0.00003
 423,0.00003375,0.00003619,0.00008296,0.00000495,-0.00003315,0.00020871
 ,-0.00029554,0.00015902,-0.00015516,0.00007433,0.00005930,0.00006347,0
 .00004691,-0.00009065,0.00009173,0.00000764,-0.00002314,0.00000485,-0.
 00002609,-0.00001765,-0.00008943,0.00002649,-0.00003872,0.00010610,-0.
 00005329,0.00008872,0.00000718,-0.00000552,-0.00002285,0.00000767,0.00
 002463,-0.00001422,0.00007148,-0.00000133,-0.00001554,-0.00007840,0.00
 001039,-0.00000140,0.00003045,-0.00008211,0.00013674,-0.00009178,0.000
 02368,-0.00003832,0.00022625,0.00016657,-0.00042661,-0.00527965,-0.003
 32551,-0.00176780,-0.00001837,0.00001563,0.00000628,0.00000426,0.00001
 339,0.00000890,0.00262238,-0.00341616,0.00362042,0.00046320,0.01120499
 ,-0.00795039,-0.00038170,-0.00064820,-0.00094470,-0.05167857,-0.003094
 24,-0.07102232,0.00146105,-0.00088294,-0.00842624,-0.01039850,-0.00874
 782,-0.01184560,0.06328912,0.01160919,0.10023246,-0.00003467,-0.000000
 10,0.00001581,-0.00000511,0.00000121,-0.00001820,0.00000950,-0.0000346
 3,0.00001378,-0.00000752,0.00002740,-0.00001887,0.00000582,0.00001607,
 -0.00002218,-0.00024718,-0.00000622,-0.00010619,0.00002104,0.00016720,
 -0.00000854,0.00000113,0.00002338,-0.00003609,0.00001689,-0.00001236,0
 .00003463,-0.00001632,0.00003660,-0.00002279,0.00000252,0.00001464,-0.
 00002979,-0.00000055,-0.00003020,0.00004198,0.00029748,-0.00007571,-0.
 00012493,0.00000471,0.00000808,-0.00000413,-0.00000621,0.00002031,-0.0
 0003414,-0.00014011,-0.00004623,-0.00027254,0.00006297,0.00002442,0.00
 009312,-0.00194456,0.00016284,-0.00114811,-0.00011915,-0.00022611,-0.0
 0003822,-0.00033355,0.00040591,-0.00033431,0.00002993,0.00000835,-0.00
 001077,-0.00000419,0.00000533,0.00000172,-0.00000540,0.00001341,0.0000
 1336,0.00001829,0.00001009,0.00002210,0.00002362,-0.00008262,0.0000114
 4,-0.00000899,0.00001474,-0.00002474,0.00001918,-0.00005052,0.00007199
 ,0.00000029,0.00000356,-0.00002128,-0.00000322,0.00002880,-0.00002610,
 -0.00001844,0.00001328,-0.00003451,0.00001864,0.00000117,0.00001108,0.
 00009608,0.00000282,0.00005088,-0.00028476,-0.00008736,0.00007533,0.00
 002662,0.00001351,0.00002500,-0.00011092,0.00000475,0.00000934,0.00021
 219,0.00013616,-0.00041965,-0.00002455,0.00025959,0.00018212,-0.000106
 73,-0.00011105,0.00015928,0.00127138,-0.00006140,-0.00063238,0.0017987
 2,0.00118800,-0.00121773,-0.00141426,0.00009871,0.00164573,0.00021787,
 -0.00014127,0.00021336,-0.00006743,0.00001972,0.00009634,-0.00005608,-
 0.00000135,0.00000299,-0.00013145,0.00014524,-0.00022522,-0.00000799,0
 .00001715,0.00002896,0.00000308,-0.00002225,0.00004111,0.00007954,-0.0
 0005853,0.00000169,-0.00004362,0.00001339,0.00001898,-0.00000893,-0.00
 001116,0.00002245,-0.00001751,0.00002428,-0.00004124,0.00000430,-0.000
 00211,-0.00000848,0.00001371,0.00000751,-0.00001939,-0.00002547,-0.000
 02922,0.00005973,0.00000373,0.00001559,-0.00000995,0.00000175,0.000001
 70,-0.00002115,-0.00004114,0.00001969,-0.00002460,0.00004540,-0.000004
 79,-0.00000384,0.00000443,0.00002778,-0.00004593,0.00001763,-0.0000034
 7,0.00000332,0.00002610,0.00004662,-0.00011534,-0.00151178,-0.00067019
 ,-0.00153278,-0.00000451,-0.00000327,-0.00000001,0.00001707,-0.0000086
 6,0.00000697,0.00079859,-0.00293344,-0.00075096,-0.00095487,-0.0016050
 4,0.00162590,-0.00049467,0.00041766,0.00007815,-0.00013321,0.02665621,
 0.01364912,0.00293667,-0.00125738,-0.00108781,-0.01869169,-0.02101689,
 -0.01369800,-0.00520984,0.02317118,0.00155850,0.02412969,-0.00002797,0
 .00000201,0.00000370,-0.00000438,0.00000124,-0.00001052,0.00000861,-0.
 00002512,0.00001241,0.00000405,0.00000839,-0.00001155,0.00000344,0.000
 00782,-0.00001269,-0.00013961,0.00001458,-0.00005860,0.00001283,0.0001
 7137,0.00010098,-0.00001418,0.00001775,-0.00002130,0.00000838,-0.00000
 638,0.00001888,-0.00001784,0.00002379,-0.00001467,0.00000471,0.0000067
 2,-0.00001730,-0.00000120,-0.00001578,0.00001866,0.00012828,-0.0001028
 1,-0.00000007,0.00000298,0.00000600,0.00000067,-0.00000162,0.00001287,
 -0.00001692,-0.00001799,0.00034230,-0.00006763,0.00003416,0.00000486,0
 .00004205,-0.00017306,-0.00017083,-0.00144025,-0.00041997,0.00014040,0
 .00008949,-0.00022902,0.00056645,-0.00007048,0.00002066,0.00001058,-0.
 00000263,-0.00000238,0.00000241,-0.00000031,-0.00000008,0.00000999,0.0
 0000360,0.00001950,-0.00001516,0.00003707,0.00001219,-0.00002308,-0.00
 000203,-0.00001774,0.00001813,-0.00001768,-0.00000653,-0.00002309,0.00
 003646,0.00000318,0.00000278,-0.00001126,-0.00000279,0.00001606,-0.000
 01242,-0.00000463,0.00000258,-0.00001100,0.00000939,0.00000042,0.00000
 621,0.00003526,-0.00000071,0.00001688,-0.00010954,-0.00001960,0.000021
 56,0.00001344,0.00000475,0.00001186,-0.00002634,-0.00000397,0.00003216
 ,-0.00003738,0.00000087,-0.00015863,0.00002032,0.00014433,0.00004165,-
 0.00005051,0.00012613,0.00009165,0.00097381,-0.00048898,-0.00037102,0.
 00259832,0.00045298,-0.00039313,0.00001566,0.00049069,0.00076985,0.000
 14882,-0.00027183,0.00012630,-0.00002254,0.00002309,0.00003789,-0.0000
 6383,-0.00004814,0.00004160,-0.00011529,0.00012004,-0.00017539,-0.0000
 0566,0.00001312,0.00002388,0.00001316,-0.00001743,0.00002515,0.0000604
 8,-0.00006099,0.00001285,-0.00003759,0.00001330,0.00001579,0.00000274,
 -0.00000123,0.00000382,-0.00000272,0.00001411,-0.00002321,0.00000228,-
 0.00000452,-0.00000388,-0.00000655,0.00000601,-0.00001192,0.00000462,-
 0.00001756,0.00003130,0.00000436,0.00000410,-0.00000806,0.00000388,0.0
 0000554,-0.00001043,-0.00001862,0.00000557,-0.00000733,0.00001483,-0.0
 0000150,-0.00000127,0.00000277,0.00000446,-0.00000549,0.00000151,0.000
 00001,-0.00000097,0.00004377,0.00006213,-0.00012054,-0.00057275,-0.000
 41196,-0.00072130,-0.00000182,-0.00000006,-0.00000038,0.00000889,-0.00
 000379,0.00000407,0.00000108,-0.00223561,-0.00076256,-0.00038200,-0.00
 147296,0.00260617,-0.00031117,0.00009192,-0.00002756,0.01935258,-0.014
 23355,0.03374460,0.00162132,0.00226488,-0.00129655,0.00490375,-0.03429
 231,0.00605222,-0.00257418,0.00259966,-0.00411542,-0.02470054,0.046131
 77,-0.00004414,0.00000357,0.00000593,-0.00000585,-0.00000065,-0.000013
 71,0.00000170,-0.00002834,0.00001655,-0.00000447,0.00002277,-0.0000185
 2,0.00000347,0.00001314,-0.00001624,-0.00025134,-0.00001929,-0.0001036
 0,0.00007062,0.00016278,0.00010945,0.00000590,0.00003965,-0.00002877,0
 .00000420,-0.00001568,0.00004133,-0.00001505,0.00003335,-0.00002235,0.
 00000810,0.00000962,-0.00002777,-0.00001104,-0.00002135,0.00002595,0.0
 0026801,-0.00013407,-0.00010872,0.00000449,0.00000975,0.00000181,-0.00
 000202,0.00002113,-0.00002737,-0.00007774,-0.00007394,-0.00027744,0.00
 004642,0.00001807,0.00008667,-0.00203203,0.00051603,-0.00092166,-0.000
 51410,-0.00032874,-0.00006613,-0.00036317,0.00100307,-0.00037560,0.000
 03013,0.00001376,-0.00000109,-0.00000282,0.00000300,-0.00000080,-0.000
 00140,0.00001461,0.00000300,0.00000458,0.00002911,0.00001471,0.0000275
 1,-0.00006540,0.00000982,-0.00000694,0.00000750,-0.00002923,0.00000356
 ,-0.00005111,0.00007022,0.00000451,0.00000239,-0.00002107,-0.00000170,
 0.00002442,-0.00002416,-0.00001691,0.00000571,-0.00002478,0.00001613,0
 .00000084,0.00000884,0.00007126,-0.00000345,0.00003267,-0.00022165,-0.
 00004927,0.00004912,0.00002297,0.00001044,0.00002500,-0.00005756,-0.00
 002092,0.00005192,0.00022178,0.00001646,-0.00043580,0.00017189,0.00022
 551,0.00010473,-0.00001982,-0.00001101,0.00020062,0.00099633,-0.000682
 28,-0.00001344,0.00274486,0.00168656,-0.00083399,0.00101975,0.00025881
 ,0.00078526,0.00032833,-0.00028012,0.00029742,-0.00011442,0.00003441,0
 .00004729,-0.00005147,0.00002732,0.00001470,-0.00006287,0.00010455,-0.
 00018176,-0.00001654,0.00001529,0.00002535,0.00000009,-0.00002008,0.00
 003119,0.00007133,-0.00007633,0.00001550,-0.00004945,0.00001577,0.0000
 1829,0.00000584,-0.00000123,0.00000318,-0.00000630,0.00002141,-0.00003
 640,0.00000278,-0.00000775,-0.00000558,-0.00001151,0.00000969,-0.00001
 895,0.00000929,-0.00002581,0.00004515,0.00000643,0.00000828,-0.0000133
 8,0.00000631,0.00000881,-0.00001824,-0.00003247,0.00001102,-0.00001021
 ,0.00002532,-0.00000265,-0.00000213,0.00000582,0.00001089,-0.00001808,
 0.00000422,-0.00000050,-0.00000090,0.00009364,0.00015693,-0.00026018,-
 0.00092224,-0.00143955,-0.00158512,-0.00000163,-0.00000015,-0.00000057
 ,0.00001459,-0.00000562,0.00000674,0.00099343,-0.00340355,-0.00186241,
 -0.00172228,-0.00139949,0.00286141,-0.00051035,0.00058713,0.00020249,0
 .00035292,0.02883618,0.01277330,0.00367969,0.00246152,-0.00383937,-0.0
 1040682,-0.02778282,-0.02690617,0.00390525,0.03355698,-0.00295647,0.00
 230464,-0.03406707,0.02312253\\-0.00000112,-0.00000154,0.00000042,-0.0
 0000215,-0.00000010,-0.00000158,0.00000125,-0.00000180,0.00000032,-0.0
 0000062,0.00000073,0.00000054,-0.00000030,-0.00000413,0.00000263,-0.00
 000005,0.00000087,-0.00000068,0.00000016,0.00000034,0.00000021,-0.0000
 0028,0.,0.00000019,0.00000061,-0.00000015,-0.00000029,0.00000015,0.000
 00046,0.00000015,-0.00000051,-0.00000031,0.00000068,-0.00000061,-0.000
 00094,0.00000157,-0.00000054,0.00000005,0.00000035,-0.00000135,-0.0000
 0109,0.,-0.00000030,-0.00000013,0.00000058,0.00000016,0.00000025,0.000
 00014,-0.00000273,-0.00000238,-0.00000433,0.00000090,0.00000053,-0.000
 00381,-0.00000003,0.00000208,-0.00000245,0.00000347,-0.00000145,-0.000
 00049,0.00000069,0.00002063,0.00000527,-0.00000076,-0.00000763,0.00000
 182,0.00000114,0.00000021,0.00000057,0.00000100,-0.00000301,0.00000097
 ,0.00000276,0.00000234,-0.00000105,0.00000068,0.00000069,-0.00000045,0
 .00000142,-0.00000030,0.00000168,-0.00000024,-0.00000135,-0.00000016,-
 0.00000116,-0.00000111,-0.00000039,0.00000136,0.00000140,0.00000416,0.
 00000175,-0.00000443,-0.00000465,-0.00000055,-0.00000065,-0.00000008,0
 .00001111,0.00000207,0.00000365,0.00000053,-0.00000089,0.00000017,0.00
 000173,-0.00000091,-0.00000064,-0.00000562,-0.00000448,0.00000129,0.00
 000194,-0.00000033,-0.00000078,0.00000277,0.00000127,-0.00000112,0.000
 00107,0.00000248,0.00000063,0.00000137,-0.00000037,-0.00000296,0.00000
 191,0.00000051,-0.00000144,0.00000061,-0.00000097,-0.00000097,0.000000
 52,0.00000077,0.00000092,0.00000077,-0.00000048,0.00000082,-0.00000802
 ,0.00000501,-0.00000348,0.00000072,0.00000036,0.00000002,-0.00000098,0
 .00000128,-0.00000072,0.00000135,-0.00001209,-0.00000726,-0.00000773,0
 .00000453,0.00000537,-0.00000232,0.00000413,0.00000126,0.00000080,0.00
 000536,0.00000375,-0.00000007,-0.00000197,0.00000076,-0.00000032,-0.00
 000122,0.00000083,-0.00000286,-0.00000280,0.00000213,0.00000027,-0.000
 00165,0.00000031,-0.00000045,-0.00000123,-0.00000014,0.00000201,0.0000
 0300,0.00000406,0.00000025,-0.00000152,0.00000123,0.00000078,0.0000005
 0,0.00000144,-0.00000129,-0.00000076,0.00000147,-0.00000085,0.00000115
 ,-0.00000078,0.00000088,-0.00000036,-0.00000126,-0.00000227,-0.0000040
 1,-0.00000586,-0.00000178,-0.00000611,0.00000154,-0.00000548,0.0000245
 2,0.00000535,0.00000574,-0.00000460,-0.00000437,-0.00000020,-0.0000008
 7,-0.00000386,-0.00000393,-0.00002388,0.00000266,0.00000052,0.00000023
 ,0.00000165,0.00000022,0.00000577,-0.00000961,0.00001251,0.00001534,0.
 00000323,-0.00001040,-0.00000488,-0.00000110\\\@
 The archive entry for this job was punched.


 BREAD HAS TO MOLD IN ORDER TO GET PENICILLIN.
          -- JERRY BOATZ
 Job cpu time:      11 days 19 hours 11 minutes 30.9 seconds.
 Elapsed time:       0 days  5 hours 55 minutes 12.3 seconds.
 File lengths (MBytes):  RWF=  19445 Int=      0 D2E=      0 Chk=    169 Scr=      2
 Normal termination of Gaussian 16 at Tue Mar  7 02:29:26 2023.
