 Entering Gaussian System, Link 0=/apps/GAU16/avx2/g16/g16
 Initial command:
 /apps/GAU16/avx2//g16/l1.exe "/localscratch/chegho/Gau-144722.inp" -scrdir="/localscratch/chegho/"
 Entering Link 1 = /apps/GAU16/avx2//g16/l1.exe PID=    144723.
  
 Copyright (c) 1988-2019, Gaussian, Inc.  All Rights Reserved.
  
 This is part of the Gaussian(R) 16 program.  It is based on
 the Gaussian(R) 09 system (copyright 2009, Gaussian, Inc.),
 the Gaussian(R) 03 system (copyright 2003, Gaussian, Inc.),
 the Gaussian(R) 98 system (copyright 1998, Gaussian, Inc.),
 the Gaussian(R) 94 system (copyright 1995, Gaussian, Inc.),
 the Gaussian 92(TM) system (copyright 1992, Gaussian, Inc.),
 the Gaussian 90(TM) system (copyright 1990, Gaussian, Inc.),
 the Gaussian 88(TM) system (copyright 1988, Gaussian, Inc.),
 the Gaussian 86(TM) system (copyright 1986, Carnegie Mellon
 University), and the Gaussian 82(TM) system (copyright 1983,
 Carnegie Mellon University). Gaussian is a federally registered
 trademark of Gaussian, Inc.
  
 This software contains proprietary and confidential information,
 including trade secrets, belonging to Gaussian, Inc.
  
 This software is provided under written license and may be
 used, copied, transmitted, or stored only in accord with that
 written license.
  
 The following legend is applicable only to US Government
 contracts under FAR:
  
                    RESTRICTED RIGHTS LEGEND
  
 Use, reproduction and disclosure by the US Government is
 subject to restrictions as set forth in subparagraphs (a)
 and (c) of the Commercial Computer Software - Restricted
 Rights clause in FAR 52.227-19.
  
 Gaussian, Inc.
 340 Quinnipiac St., Bldg. 40, Wallingford CT 06492
  
  
 ---------------------------------------------------------------
 Warning -- This program may not be used in any manner that
 competes with the business of Gaussian, Inc. or will provide
 assistance to any competitor of Gaussian, Inc.  The licensee
 of this program is prohibited from giving any competitor of
 Gaussian, Inc. access to this program.  By using this program,
 the user acknowledges that Gaussian, Inc. is engaged in the
 business of creating and licensing software in the field of
 computational chemistry and represents and warrants to the
 licensee that it is not a competitor of Gaussian, Inc. and that
 it will not use this program in any manner prohibited above.
 ---------------------------------------------------------------
  

 Cite this work as:
 Gaussian 16, Revision C.01,
 M. J. Frisch, G. W. Trucks, H. B. Schlegel, G. E. Scuseria, 
 M. A. Robb, J. R. Cheeseman, G. Scalmani, V. Barone, 
 G. A. Petersson, H. Nakatsuji, X. Li, M. Caricato, A. V. Marenich, 
 J. Bloino, B. G. Janesko, R. Gomperts, B. Mennucci, H. P. Hratchian, 
 J. V. Ortiz, A. F. Izmaylov, J. L. Sonnenberg, D. Williams-Young, 
 F. Ding, F. Lipparini, F. Egidi, J. Goings, B. Peng, A. Petrone, 
 T. Henderson, D. Ranasinghe, V. G. Zakrzewski, J. Gao, N. Rega, 
 G. Zheng, W. Liang, M. Hada, M. Ehara, K. Toyota, R. Fukuda, 
 J. Hasegawa, M. Ishida, T. Nakajima, Y. Honda, O. Kitao, H. Nakai, 
 T. Vreven, K. Throssell, J. A. Montgomery, Jr., J. E. Peralta, 
 F. Ogliaro, M. J. Bearpark, J. J. Heyd, E. N. Brothers, K. N. Kudin, 
 V. N. Staroverov, T. A. Keith, R. Kobayashi, J. Normand, 
 K. Raghavachari, A. P. Rendell, J. C. Burant, S. S. Iyengar, 
 J. Tomasi, M. Cossi, J. M. Millam, M. Klene, C. Adamo, R. Cammi, 
 J. W. Ochterski, R. L. Martin, K. Morokuma, O. Farkas, 
 J. B. Foresman, and D. J. Fox, Gaussian, Inc., Wallingford CT, 2019.
 
 ******************************************
 Gaussian 16:  ES64L-G16RevC.01  3-Jul-2019
                 3-Mar-2023 
 ******************************************
 %nprocshared=48
 Will use up to   48 processors via shared memory.
 %chk=Mo21S49_Szz_MoCO_f.chk
 %mem=100GB
 ----------------------------------------------------------
 # opt freq b3lyp/gen nosymm pseudo=read scf=maxcycles=1000
 ----------------------------------------------------------
 1/18=20,19=15,26=3,38=1/1,3;
 2/9=110,12=2,15=1,17=6,18=5,40=1/2;
 3/5=7,11=2,16=1,17=8,25=1,30=1,71=1,74=-5/1,2,3;
 4//1;
 5/5=2,7=1000,38=5/2;
 6/7=2,8=2,9=2,10=2,28=1/1;
 7/30=1/1,2,3,16;
 1/18=20,19=15,26=3/3(2);
 2/9=110,15=1/2;
 99//99;
 2/9=110,15=1/2;
 3/5=7,6=1,11=2,16=1,17=8,25=1,30=1,71=1,74=-5,82=7/1,2,3;
 4/5=5,16=3,69=1/1;
 5/5=2,7=1000,38=5/2;
 7/30=1/1,2,3,16;
 1/18=20,19=15,26=3/3(-5);
 2/9=110,15=1/2;
 6/7=2,8=2,9=2,10=2,19=2,28=1/1;
 99/9=1/99;
 -------------------
 Title Card Required
 -------------------
 Symbolic Z-matrix:
 Charge =  0 Multiplicity = 1
 42                    0.34192   1.33248   12.63385 
 16                    2.29956   2.44326   13.58962 
 16                   -0.77449   1.96261   14.78925 
 16                   -0.39612   0.82963   10.39599 
 16                    2.05571  -0.35932   12.16812 
 42                   -2.01823   2.57414   10.90463 
 16                   -2.73295   2.08302   8.64196 
 16                   -0.06784   3.5919    11.90699 
 42                    1.0167    2.75753   9.87063 
 16                    0.26944   2.24763   7.60391 
 16                    2.68628   1.0425    9.37082 
 42                    3.44083   1.566     11.6173 
 42                   -1.31961   3.99324   8.11786 
 16                    5.4905    2.7558    12.63052 
 16                    2.99712   3.81665   10.82545 
 16                   -2.35501   4.85138   10.15179 
 16                    1.19565   6.54418   6.25622 
 42                   -4.29908   3.84821   9.15642 
 16                   -5.85145   1.98573   9.71778 
 16                   -5.492     4.68069   11.17513 
 42                    2.69921   0.25126   14.40551 
 16                    4.91989   0.79667   15.46078 
 16                    1.68039   0.86109   16.37084 
 42                    1.63335   4.17261   7.08556 
 16                    0.82984   3.66401   4.71972 
 16                    0.61974   5.03973   9.10068 
 42                    4.06993   2.95917   8.82493 
 16                    3.28296   2.44471   6.57149 
 16                    3.62088   5.22306   8.03392 
 42                    4.52641   4.40607   5.96608 
 16                    6.9155    5.06756   6.41558 
 16                    4.17339   6.63117   5.24073 
 42                    2.19353   5.5999    4.27774 
 16                    3.8264    3.86667   3.77539 
 16                   -1.75063   6.41483   3.68976 
 42                   -0.6999    5.43963   5.26692 
 16                   -2.13884   3.55787   5.79708 
 16                   -1.7752    6.29698   7.27196 
 42                   -3.79821   5.25946   6.40123 
 16                   -5.05098   3.31515   6.86123 
 16                   -5.41138   6.33665   5.26095 
 42                   -5.03173   2.41139   11.98427 
 16                   -3.13496   3.47965   13.03149 
 16                   -3.56228   0.59165   11.42223 
 42                   -2.83977   1.18556   13.61539 
 16                   -1.20014  -0.62766   13.15549 
 16                   -4.10973   0.49183   15.15328 
 42                   -0.19303  -0.41876   15.31791 
 16                    1.43025  -1.89466   14.86706 
 16                   -1.3255   -1.28203   16.88473 
 42                    5.95354   0.54324   13.22111 
 16                    5.19179  -0.24818   11.14431 
 16                    8.49561   1.49748   10.73617 
 42                    6.40043   1.80497   10.56593 
 16                    5.79461   1.16418   8.25742 
 16                    6.1359    4.12626   9.76993 
 42                    7.09755   3.08214   7.9059 
 16                    9.20668   2.826     7.92381 
 16                    1.92858   6.61211   2.43806 
 16                    7.97724   0.13495   13.6917 
 16                   -6.7306    1.98031   13.18454 
 16                   -4.63335   6.16568   8.41681 
 16                    4.76836  -1.14505   14.63493 
 16                    6.6838    3.20138   5.45319 
 42                   -7.4378    3.85789   9.8806 
 16                   -7.94899   3.11477   7.67648 
 16                   -9.5828    3.91083   10.50525 
 42                   -6.5675    5.15408   7.24623 
 16                   -7.4931    6.21732   9.28398 
 16                   -8.52168   5.65698   5.99127 
 42                   -9.31349   5.09075   8.1954 
 6                    -10.37526   6.84541   8.13761 
 8                    -10.94438   7.84039   8.05982 
 

 GradGradGradGradGradGradGradGradGradGradGradGradGradGradGradGradGradGrad
 Berny optimization.
 Initialization pass.
                           ----------------------------
                           !    Initial Parameters    !
                           ! (Angstroms and Degrees)  !
 --------------------------                            --------------------------
 ! Name  Definition              Value          Derivative Info.                !
 --------------------------------------------------------------------------------
 ! R1    R(1,2)                  2.4453         estimate D2E/DX2                !
 ! R2    R(1,3)                  2.5078         estimate D2E/DX2                !
 ! R3    R(1,4)                  2.4095         estimate D2E/DX2                !
 ! R4    R(1,5)                  2.4528         estimate D2E/DX2                !
 ! R5    R(1,8)                  2.4086         estimate D2E/DX2                !
 ! R6    R(1,46)                 2.548          estimate D2E/DX2                !
 ! R7    R(2,12)                 2.4417         estimate D2E/DX2                !
 ! R8    R(2,21)                 2.3728         estimate D2E/DX2                !
 ! R9    R(3,45)                 2.4994         estimate D2E/DX2                !
 ! R10   R(3,48)                 2.5077         estimate D2E/DX2                !
 ! R11   R(4,6)                  2.4358         estimate D2E/DX2                !
 ! R12   R(4,9)                  2.4472         estimate D2E/DX2                !
 ! R13   R(5,12)                 2.4349         estimate D2E/DX2                !
 ! R14   R(5,21)                 2.4068         estimate D2E/DX2                !
 ! R15   R(6,7)                  2.4232         estimate D2E/DX2                !
 ! R16   R(6,8)                  2.4176         estimate D2E/DX2                !
 ! R17   R(6,16)                 2.422          estimate D2E/DX2                !
 ! R18   R(6,43)                 2.5672         estimate D2E/DX2                !
 ! R19   R(6,44)                 2.5656         estimate D2E/DX2                !
 ! R20   R(7,13)                 2.4333         estimate D2E/DX2                !
 ! R21   R(7,18)                 2.4152         estimate D2E/DX2                !
 ! R22   R(8,9)                  2.4534         estimate D2E/DX2                !
 ! R23   R(9,10)                 2.4406         estimate D2E/DX2                !
 ! R24   R(9,11)                 2.4451         estimate D2E/DX2                !
 ! R25   R(9,15)                 2.4404         estimate D2E/DX2                !
 ! R26   R(9,26)                 2.4411         estimate D2E/DX2                !
 ! R27   R(10,13)                2.4159         estimate D2E/DX2                !
 ! R28   R(10,24)                2.4155         estimate D2E/DX2                !
 ! R29   R(11,12)                2.4269         estimate D2E/DX2                !
 ! R30   R(11,27)                2.4261         estimate D2E/DX2                !
 ! R31   R(12,14)                2.5775         estimate D2E/DX2                !
 ! R32   R(12,15)                2.4268         estimate D2E/DX2                !
 ! R33   R(12,52)                2.5653         estimate D2E/DX2                !
 ! R34   R(13,16)                2.4383         estimate D2E/DX2                !
 ! R35   R(13,26)                2.4129         estimate D2E/DX2                !
 ! R36   R(13,37)                2.4993         estimate D2E/DX2                !
 ! R37   R(13,38)                2.4961         estimate D2E/DX2                !
 ! R38   R(14,51)                2.3364         estimate D2E/DX2                !
 ! R39   R(14,54)                2.4484         estimate D2E/DX2                !
 ! R40   R(15,27)                2.4266         estimate D2E/DX2                !
 ! R41   R(16,18)                2.4034         estimate D2E/DX2                !
 ! R42   R(17,24)                2.5502         estimate D2E/DX2                !
 ! R43   R(17,33)                2.4087         estimate D2E/DX2                !
 ! R44   R(17,36)                2.4066         estimate D2E/DX2                !
 ! R45   R(18,19)                2.4887         estimate D2E/DX2                !
 ! R46   R(18,20)                2.4882         estimate D2E/DX2                !
 ! R47   R(18,40)                2.4733         estimate D2E/DX2                !
 ! R48   R(18,62)                2.4555         estimate D2E/DX2                !
 ! R49   R(19,42)                2.4475         estimate D2E/DX2                !
 ! R50   R(19,65)                2.4593         estimate D2E/DX2                !
 ! R51   R(20,42)                2.4528         estimate D2E/DX2                !
 ! R52   R(20,65)                2.4777         estimate D2E/DX2                !
 ! R53   R(21,22)                2.5184         estimate D2E/DX2                !
 ! R54   R(21,23)                2.2962         estimate D2E/DX2                !
 ! R55   R(21,48)                3.1059         estimate D2E/DX2                !
 ! R56   R(21,49)                2.5354         estimate D2E/DX2                !
 ! R57   R(21,63)                2.5067         estimate D2E/DX2                !
 ! R58   R(22,51)                2.4797         estimate D2E/DX2                !
 ! R59   R(22,63)                2.1155         estimate D2E/DX2                !
 ! R60   R(23,48)                2.5013         estimate D2E/DX2                !
 ! R61   R(24,25)                2.5498         estimate D2E/DX2                !
 ! R62   R(24,26)                2.4166         estimate D2E/DX2                !
 ! R63   R(24,28)                2.4436         estimate D2E/DX2                !
 ! R64   R(24,29)                2.4399         estimate D2E/DX2                !
 ! R65   R(24,30)                3.1109         estimate D2E/DX2                !
 ! R66   R(25,33)                2.4089         estimate D2E/DX2                !
 ! R67   R(25,36)                2.4067         estimate D2E/DX2                !
 ! R68   R(27,28)                2.4417         estimate D2E/DX2                !
 ! R69   R(27,29)                2.4398         estimate D2E/DX2                !
 ! R70   R(27,55)                2.5531         estimate D2E/DX2                !
 ! R71   R(27,56)                2.5541         estimate D2E/DX2                !
 ! R72   R(28,30)                2.3999         estimate D2E/DX2                !
 ! R73   R(29,30)                2.4007         estimate D2E/DX2                !
 ! R74   R(30,31)                2.5194         estimate D2E/DX2                !
 ! R75   R(30,32)                2.3668         estimate D2E/DX2                !
 ! R76   R(30,33)                3.1174         estimate D2E/DX2                !
 ! R77   R(30,34)                2.3622         estimate D2E/DX2                !
 ! R78   R(30,64)                2.5236         estimate D2E/DX2                !
 ! R79   R(31,57)                2.4892         estimate D2E/DX2                !
 ! R80   R(31,64)                2.1125         estimate D2E/DX2                !
 ! R81   R(32,33)                2.4312         estimate D2E/DX2                !
 ! R82   R(33,34)                2.4337         estimate D2E/DX2                !
 ! R83   R(33,36)                3.062          estimate D2E/DX2                !
 ! R84   R(33,59)                2.1164         estimate D2E/DX2                !
 ! R85   R(35,36)                2.1313         estimate D2E/DX2                !
 ! R86   R(36,37)                2.4275         estimate D2E/DX2                !
 ! R87   R(36,38)                2.4314         estimate D2E/DX2                !
 ! R88   R(37,39)                2.4523         estimate D2E/DX2                !
 ! R89   R(38,39)                2.4346         estimate D2E/DX2                !
 ! R90   R(39,40)                2.3583         estimate D2E/DX2                !
 ! R91   R(39,41)                2.2501         estimate D2E/DX2                !
 ! R92   R(39,62)                2.3625         estimate D2E/DX2                !
 ! R93   R(39,68)                2.8973         estimate D2E/DX2                !
 ! R94   R(40,68)                2.4145         estimate D2E/DX2                !
 ! R95   R(41,68)                2.5839         estimate D2E/DX2                !
 ! R96   R(42,43)                2.4157         estimate D2E/DX2                !
 ! R97   R(42,44)                2.4055         estimate D2E/DX2                !
 ! R98   R(42,45)                2.9946         estimate D2E/DX2                !
 ! R99   R(42,61)                2.1243         estimate D2E/DX2                !
 ! R100  R(43,45)                2.3856         estimate D2E/DX2                !
 ! R101  R(44,45)                2.3843         estimate D2E/DX2                !
 ! R102  R(45,46)                2.4875         estimate D2E/DX2                !
 ! R103  R(45,47)                2.1117         estimate D2E/DX2                !
 ! R104  R(46,48)                2.3946         estimate D2E/DX2                !
 ! R105  R(48,49)                2.2398         estimate D2E/DX2                !
 ! R106  R(48,50)                2.1172         estimate D2E/DX2                !
 ! R107  R(51,52)                2.3494         estimate D2E/DX2                !
 ! R108  R(51,54)                2.9735         estimate D2E/DX2                !
 ! R109  R(51,60)                2.1174         estimate D2E/DX2                !
 ! R110  R(51,63)                2.5008         estimate D2E/DX2                !
 ! R111  R(52,54)                2.4517         estimate D2E/DX2                !
 ! R112  R(53,54)                2.1245         estimate D2E/DX2                !
 ! R113  R(54,55)                2.4712         estimate D2E/DX2                !
 ! R114  R(54,56)                2.4682         estimate D2E/DX2                !
 ! R115  R(54,57)                3.032          estimate D2E/DX2                !
 ! R116  R(55,57)                2.3452         estimate D2E/DX2                !
 ! R117  R(56,57)                2.343          estimate D2E/DX2                !
 ! R118  R(57,58)                2.1247         estimate D2E/DX2                !
 ! R119  R(57,64)                2.4902         estimate D2E/DX2                !
 ! R120  R(62,68)                2.4768         estimate D2E/DX2                !
 ! R121  R(65,66)                2.3815         estimate D2E/DX2                !
 ! R122  R(65,67)                2.2347         estimate D2E/DX2                !
 ! R123  R(65,68)                3.0623         estimate D2E/DX2                !
 ! R124  R(65,69)                2.4343         estimate D2E/DX2                !
 ! R125  R(65,71)                2.8068         estimate D2E/DX2                !
 ! R126  R(66,68)                2.5005         estimate D2E/DX2                !
 ! R127  R(66,71)                2.4568         estimate D2E/DX2                !
 ! R128  R(67,71)                2.6077         estimate D2E/DX2                !
 ! R129  R(68,69)                2.4778         estimate D2E/DX2                !
 ! R130  R(68,70)                2.3763         estimate D2E/DX2                !
 ! R131  R(68,71)                2.9061         estimate D2E/DX2                !
 ! R132  R(69,71)                2.4017         estimate D2E/DX2                !
 ! R133  R(70,71)                2.4095         estimate D2E/DX2                !
 ! R134  R(71,72)                2.0517         estimate D2E/DX2                !
 ! R135  R(72,73)                1.1489         estimate D2E/DX2                !
 ! A1    A(2,1,3)               84.6248         estimate D2E/DX2                !
 ! A2    A(2,1,4)              134.6704         estimate D2E/DX2                !
 ! A3    A(2,1,5)               80.1055         estimate D2E/DX2                !
 ! A4    A(2,1,8)               80.0976         estimate D2E/DX2                !
 ! A5    A(2,1,46)             138.9323         estimate D2E/DX2                !
 ! A6    A(3,1,4)              135.5889         estimate D2E/DX2                !
 ! A7    A(3,1,5)              130.357          estimate D2E/DX2                !
 ! A8    A(3,1,8)               87.0156         estimate D2E/DX2                !
 ! A9    A(3,1,46)              75.3994         estimate D2E/DX2                !
 ! A10   A(4,1,5)               83.8989         estimate D2E/DX2                !
 ! A11   A(4,1,8)               82.1474         estimate D2E/DX2                !
 ! A12   A(4,1,46)              81.0379         estimate D2E/DX2                !
 ! A13   A(5,1,8)              135.1208         estimate D2E/DX2                !
 ! A14   A(5,1,46)              86.0507         estimate D2E/DX2                !
 ! A15   A(8,1,46)             132.881          estimate D2E/DX2                !
 ! A16   A(1,2,12)              83.9885         estimate D2E/DX2                !
 ! A17   A(1,2,21)              81.35           estimate D2E/DX2                !
 ! A18   A(12,2,21)             82.364          estimate D2E/DX2                !
 ! A19   A(1,3,45)              83.4584         estimate D2E/DX2                !
 ! A20   A(1,3,48)              80.7559         estimate D2E/DX2                !
 ! A21   A(45,3,48)             89.7349         estimate D2E/DX2                !
 ! A22   A(1,4,6)               81.9851         estimate D2E/DX2                !
 ! A23   A(1,4,9)               81.8447         estimate D2E/DX2                !
 ! A24   A(6,4,9)               82.2459         estimate D2E/DX2                !
 ! A25   A(1,5,12)              83.9745         estimate D2E/DX2                !
 ! A26   A(1,5,21)              80.5213         estimate D2E/DX2                !
 ! A27   A(12,5,21)             81.8135         estimate D2E/DX2                !
 ! A28   A(4,6,7)               81.7367         estimate D2E/DX2                !
 ! A29   A(4,6,8)               81.4212         estimate D2E/DX2                !
 ! A30   A(4,6,16)             134.5135         estimate D2E/DX2                !
 ! A31   A(4,6,43)             135.6673         estimate D2E/DX2                !
 ! A32   A(4,6,44)              83.6555         estimate D2E/DX2                !
 ! A33   A(7,6,8)              135.2705         estimate D2E/DX2                !
 ! A34   A(7,6,16)              81.9118         estimate D2E/DX2                !
 ! A35   A(7,6,43)             135.7898         estimate D2E/DX2                !
 ! A36   A(7,6,44)              81.6199         estimate D2E/DX2                !
 ! A37   A(8,6,16)              81.0967         estimate D2E/DX2                !
 ! A38   A(8,6,43)              81.8914         estimate D2E/DX2                !
 ! A39   A(8,6,44)             136.6513         estimate D2E/DX2                !
 ! A40   A(16,6,43)             82.2639         estimate D2E/DX2                !
 ! A41   A(16,6,44)            134.8754         estimate D2E/DX2                !
 ! A42   A(43,6,44)             81.0033         estimate D2E/DX2                !
 ! A43   A(6,7,13)              82.5709         estimate D2E/DX2                !
 ! A44   A(6,7,18)              81.0387         estimate D2E/DX2                !
 ! A45   A(13,7,18)             81.3019         estimate D2E/DX2                !
 ! A46   A(1,8,6)               82.3834         estimate D2E/DX2                !
 ! A47   A(1,8,9)               81.7354         estimate D2E/DX2                !
 ! A48   A(6,8,9)               82.4912         estimate D2E/DX2                !
 ! A49   A(4,9,8)               80.4753         estimate D2E/DX2                !
 ! A50   A(4,9,10)              81.8382         estimate D2E/DX2                !
 ! A51   A(4,9,11)              83.4263         estimate D2E/DX2                !
 ! A52   A(4,9,15)             136.5862         estimate D2E/DX2                !
 ! A53   A(4,9,26)             135.2636         estimate D2E/DX2                !
 ! A54   A(8,9,10)             134.9585         estimate D2E/DX2                !
 ! A55   A(8,9,11)             135.2386         estimate D2E/DX2                !
 ! A56   A(8,9,15)              83.4763         estimate D2E/DX2                !
 ! A57   A(8,9,26)              82.6436         estimate D2E/DX2                !
 ! A58   A(10,9,11)             82.6852         estimate D2E/DX2                !
 ! A59   A(10,9,15)            134.6306         estimate D2E/DX2                !
 ! A60   A(10,9,26)             81.5233         estimate D2E/DX2                !
 ! A61   A(11,9,15)             80.2276         estimate D2E/DX2                !
 ! A62   A(11,9,26)            134.6138         estimate D2E/DX2                !
 ! A63   A(15,9,26)             81.3513         estimate D2E/DX2                !
 ! A64   A(9,10,13)             81.5381         estimate D2E/DX2                !
 ! A65   A(9,10,24)             81.9476         estimate D2E/DX2                !
 ! A66   A(13,10,24)            80.8641         estimate D2E/DX2                !
 ! A67   A(9,11,12)             82.6336         estimate D2E/DX2                !
 ! A68   A(9,11,27)             83.1825         estimate D2E/DX2                !
 ! A69   A(12,11,27)            81.9841         estimate D2E/DX2                !
 ! A70   A(2,12,5)              80.5305         estimate D2E/DX2                !
 ! A71   A(2,12,11)            132.8332         estimate D2E/DX2                !
 ! A72   A(2,12,14)             83.5873         estimate D2E/DX2                !
 ! A73   A(2,12,15)             81.0779         estimate D2E/DX2                !
 ! A74   A(2,12,52)            136.2228         estimate D2E/DX2                !
 ! A75   A(5,12,11)             82.0663         estimate D2E/DX2                !
 ! A76   A(5,12,14)            136.7564         estimate D2E/DX2                !
 ! A77   A(5,12,15)            134.6784         estimate D2E/DX2                !
 ! A78   A(5,12,52)             82.5762         estimate D2E/DX2                !
 ! A79   A(11,12,14)           135.2906         estimate D2E/DX2                !
 ! A80   A(11,12,15)            80.861          estimate D2E/DX2                !
 ! A81   A(11,12,52)            83.6267         estimate D2E/DX2                !
 ! A82   A(14,12,15)            81.1155         estimate D2E/DX2                !
 ! A83   A(14,12,52)            81.7294         estimate D2E/DX2                !
 ! A84   A(15,12,52)           136.0957         estimate D2E/DX2                !
 ! A85   A(7,13,10)             81.9891         estimate D2E/DX2                !
 ! A86   A(7,13,16)             81.3715         estimate D2E/DX2                !
 ! A87   A(7,13,26)            136.0185         estimate D2E/DX2                !
 ! A88   A(7,13,37)             82.6963         estimate D2E/DX2                !
 ! A89   A(7,13,38)            133.75           estimate D2E/DX2                !
 ! A90   A(10,13,16)           135.3218         estimate D2E/DX2                !
 ! A91   A(10,13,26)            82.6094         estimate D2E/DX2                !
 ! A92   A(10,13,37)            83.8111         estimate D2E/DX2                !
 ! A93   A(10,13,38)           135.6308         estimate D2E/DX2                !
 ! A94   A(16,13,26)            81.3089         estimate D2E/DX2                !
 ! A95   A(16,13,37)           134.1613         estimate D2E/DX2                !
 ! A96   A(16,13,38)            83.1286         estimate D2E/DX2                !
 ! A97   A(26,13,37)           135.8249         estimate D2E/DX2                !
 ! A98   A(26,13,38)            83.3645         estimate D2E/DX2                !
 ! A99   A(37,13,38)            77.6588         estimate D2E/DX2                !
 ! A100  A(12,14,51)            79.6199         estimate D2E/DX2                !
 ! A101  A(12,14,54)            77.5722         estimate D2E/DX2                !
 ! A102  A(9,15,12)             82.7354         estimate D2E/DX2                !
 ! A103  A(9,15,27)             83.2728         estimate D2E/DX2                !
 ! A104  A(12,15,27)            81.9783         estimate D2E/DX2                !
 ! A105  A(6,16,13)             82.4918         estimate D2E/DX2                !
 ! A106  A(6,16,18)             81.3013         estimate D2E/DX2                !
 ! A107  A(13,16,18)            81.438          estimate D2E/DX2                !
 ! A108  A(24,17,33)            80.2964         estimate D2E/DX2                !
 ! A109  A(24,17,36)            80.9125         estimate D2E/DX2                !
 ! A110  A(7,18,16)             82.4588         estimate D2E/DX2                !
 ! A111  A(7,18,19)             84.5813         estimate D2E/DX2                !
 ! A112  A(7,18,20)            136.7368         estimate D2E/DX2                !
 ! A113  A(7,18,40)             80.9061         estimate D2E/DX2                !
 ! A114  A(7,18,62)            135.5523         estimate D2E/DX2                !
 ! A115  A(16,18,19)           136.3427         estimate D2E/DX2                !
 ! A116  A(16,18,20)            84.9601         estimate D2E/DX2                !
 ! A117  A(16,18,40)           136.0683         estimate D2E/DX2                !
 ! A118  A(16,18,62)            80.847          estimate D2E/DX2                !
 ! A119  A(19,18,20)            76.605          estimate D2E/DX2                !
 ! A120  A(19,18,40)            81.8598         estimate D2E/DX2                !
 ! A121  A(19,18,62)           133.577          estimate D2E/DX2                !
 ! A122  A(20,18,40)           132.7836         estimate D2E/DX2                !
 ! A123  A(20,18,62)            82.1456         estimate D2E/DX2                !
 ! A124  A(40,18,62)            83.2527         estimate D2E/DX2                !
 ! A125  A(18,19,42)            82.5198         estimate D2E/DX2                !
 ! A126  A(18,19,65)            81.2328         estimate D2E/DX2                !
 ! A127  A(42,19,65)            91.2798         estimate D2E/DX2                !
 ! A128  A(18,20,42)            82.4225         estimate D2E/DX2                !
 ! A129  A(18,20,65)            80.881          estimate D2E/DX2                !
 ! A130  A(42,20,65)            90.7153         estimate D2E/DX2                !
 ! A131  A(2,21,5)              82.5121         estimate D2E/DX2                !
 ! A132  A(2,21,22)             95.3092         estimate D2E/DX2                !
 ! A133  A(2,21,23)             88.5229         estimate D2E/DX2                !
 ! A134  A(2,21,48)             98.2478         estimate D2E/DX2                !
 ! A135  A(2,21,49)            139.4803         estimate D2E/DX2                !
 ! A136  A(2,21,63)            133.2416         estimate D2E/DX2                !
 ! A137  A(5,21,22)            132.8606         estimate D2E/DX2                !
 ! A138  A(5,21,23)            138.1081         estimate D2E/DX2                !
 ! A139  A(5,21,48)             88.2456         estimate D2E/DX2                !
 ! A140  A(5,21,49)             79.6707         estimate D2E/DX2                !
 ! A141  A(5,21,63)             99.4661         estimate D2E/DX2                !
 ! A142  A(22,21,23)            88.5721         estimate D2E/DX2                !
 ! A143  A(22,21,48)           138.1371         estimate D2E/DX2                !
 ! A144  A(22,21,49)           123.2534         estimate D2E/DX2                !
 ! A145  A(23,21,49)            81.1936         estimate D2E/DX2                !
 ! A146  A(23,21,63)           115.8394         estimate D2E/DX2                !
 ! A147  A(48,21,63)           128.4337         estimate D2E/DX2                !
 ! A148  A(49,21,63)            85.6994         estimate D2E/DX2                !
 ! A149  A(21,22,51)            88.1072         estimate D2E/DX2                !
 ! A150  A(10,24,17)           135.5597         estimate D2E/DX2                !
 ! A151  A(10,24,25)            82.0801         estimate D2E/DX2                !
 ! A152  A(10,24,26)            82.5406         estimate D2E/DX2                !
 ! A153  A(10,24,28)            82.1145         estimate D2E/DX2                !
 ! A154  A(10,24,29)           136.0266         estimate D2E/DX2                !
 ! A155  A(10,24,30)           131.4642         estimate D2E/DX2                !
 ! A156  A(17,24,25)            80.1929         estimate D2E/DX2                !
 ! A157  A(17,24,26)            82.2708         estimate D2E/DX2                !
 ! A158  A(17,24,28)           134.8314         estimate D2E/DX2                !
 ! A159  A(17,24,29)            82.2901         estimate D2E/DX2                !
 ! A160  A(17,24,30)            88.4412         estimate D2E/DX2                !
 ! A161  A(25,24,26)           135.4876         estimate D2E/DX2                !
 ! A162  A(25,24,28)            82.9053         estimate D2E/DX2                !
 ! A163  A(25,24,29)           134.686          estimate D2E/DX2                !
 ! A164  A(25,24,30)            88.5178         estimate D2E/DX2                !
 ! A165  A(26,24,28)           135.4223         estimate D2E/DX2                !
 ! A166  A(26,24,29)            82.13           estimate D2E/DX2                !
 ! A167  A(26,24,30)           131.5453         estimate D2E/DX2                !
 ! A168  A(28,24,29)            80.5777         estimate D2E/DX2                !
 ! A169  A(24,25,33)            80.3018         estimate D2E/DX2                !
 ! A170  A(24,25,36)            80.9193         estimate D2E/DX2                !
 ! A171  A(9,26,13)             81.5872         estimate D2E/DX2                !
 ! A172  A(9,26,24)             81.9139         estimate D2E/DX2                !
 ! A173  A(13,26,24)            80.9003         estimate D2E/DX2                !
 ! A174  A(11,27,15)            80.8815         estimate D2E/DX2                !
 ! A175  A(11,27,28)            81.801          estimate D2E/DX2                !
 ! A176  A(11,27,29)           134.5101         estimate D2E/DX2                !
 ! A177  A(11,27,55)            83.0991         estimate D2E/DX2                !
 ! A178  A(11,27,56)           137.6516         estimate D2E/DX2                !
 ! A179  A(15,27,28)           133.853          estimate D2E/DX2                !
 ! A180  A(15,27,29)            81.8378         estimate D2E/DX2                !
 ! A181  A(15,27,55)           136.9146         estimate D2E/DX2                !
 ! A182  A(15,27,56)            83.7489         estimate D2E/DX2                !
 ! A183  A(28,27,29)            80.6173         estimate D2E/DX2                !
 ! A184  A(28,27,55)            82.2094         estimate D2E/DX2                !
 ! A185  A(28,27,56)           134.3029         estimate D2E/DX2                !
 ! A186  A(29,27,55)           134.7997         estimate D2E/DX2                !
 ! A187  A(29,27,56)            81.0735         estimate D2E/DX2                !
 ! A188  A(55,27,56)            81.7838         estimate D2E/DX2                !
 ! A189  A(24,28,27)            82.7868         estimate D2E/DX2                !
 ! A190  A(27,28,30)            83.8936         estimate D2E/DX2                !
 ! A191  A(24,29,27)            82.9034         estimate D2E/DX2                !
 ! A192  A(27,29,30)            83.9185         estimate D2E/DX2                !
 ! A193  A(24,30,31)           146.8646         estimate D2E/DX2                !
 ! A194  A(24,30,32)            92.4143         estimate D2E/DX2                !
 ! A195  A(24,30,33)            61.8153         estimate D2E/DX2                !
 ! A196  A(24,30,34)            92.3501         estimate D2E/DX2                !
 ! A197  A(24,30,64)           146.3394         estimate D2E/DX2                !
 ! A198  A(28,30,29)            82.265          estimate D2E/DX2                !
 ! A199  A(28,30,31)           131.368          estimate D2E/DX2                !
 ! A200  A(28,30,32)           140.2065         estimate D2E/DX2                !
 ! A201  A(28,30,33)            93.5469         estimate D2E/DX2                !
 ! A202  A(28,30,34)            83.9031         estimate D2E/DX2                !
 ! A203  A(28,30,64)            95.9735         estimate D2E/DX2                !
 ! A204  A(29,30,31)            96.5836         estimate D2E/DX2                !
 ! A205  A(29,30,32)            83.5563         estimate D2E/DX2                !
 ! A206  A(29,30,33)            93.0895         estimate D2E/DX2                !
 ! A207  A(29,30,34)           139.883          estimate D2E/DX2                !
 ! A208  A(29,30,64)           131.2969         estimate D2E/DX2                !
 ! A209  A(31,30,32)            87.0926         estimate D2E/DX2                !
 ! A210  A(31,30,33)           134.8877         estimate D2E/DX2                !
 ! A211  A(31,30,34)           120.4259         estimate D2E/DX2                !
 ! A212  A(32,30,34)            83.4693         estimate D2E/DX2                !
 ! A213  A(32,30,64)           120.931          estimate D2E/DX2                !
 ! A214  A(33,30,64)           135.4378         estimate D2E/DX2                !
 ! A215  A(34,30,64)            87.4697         estimate D2E/DX2                !
 ! A216  A(30,31,57)            88.0949         estimate D2E/DX2                !
 ! A217  A(17,33,25)            85.9757         estimate D2E/DX2                !
 ! A218  A(17,33,30)            90.8769         estimate D2E/DX2                !
 ! A219  A(17,33,32)            81.1254         estimate D2E/DX2                !
 ! A220  A(17,33,34)           136.6118         estimate D2E/DX2                !
 ! A221  A(17,33,59)           118.3351         estimate D2E/DX2                !
 ! A222  A(25,33,30)            90.9462         estimate D2E/DX2                !
 ! A223  A(25,33,32)           136.8224         estimate D2E/DX2                !
 ! A224  A(25,33,34)            81.1038         estimate D2E/DX2                !
 ! A225  A(25,33,59)           118.2278         estimate D2E/DX2                !
 ! A226  A(30,33,36)           120.8063         estimate D2E/DX2                !
 ! A227  A(30,33,59)           138.3842         estimate D2E/DX2                !
 ! A228  A(32,33,34)            80.6462         estimate D2E/DX2                !
 ! A229  A(32,33,36)           131.5869         estimate D2E/DX2                !
 ! A230  A(32,33,59)           104.0861         estimate D2E/DX2                !
 ! A231  A(34,33,36)           131.5607         estimate D2E/DX2                !
 ! A232  A(34,33,59)           104.1928         estimate D2E/DX2                !
 ! A233  A(36,33,59)           100.8094         estimate D2E/DX2                !
 ! A234  A(17,36,25)            86.0689         estimate D2E/DX2                !
 ! A235  A(17,36,35)           118.8485         estimate D2E/DX2                !
 ! A236  A(17,36,37)           137.1296         estimate D2E/DX2                !
 ! A237  A(17,36,38)            81.2287         estimate D2E/DX2                !
 ! A238  A(25,36,35)           118.8605         estimate D2E/DX2                !
 ! A239  A(25,36,37)            81.6342         estimate D2E/DX2                !
 ! A240  A(25,36,38)           136.7822         estimate D2E/DX2                !
 ! A241  A(33,36,35)           101.7038         estimate D2E/DX2                !
 ! A242  A(33,36,37)           132.1639         estimate D2E/DX2                !
 ! A243  A(33,36,38)           131.748          estimate D2E/DX2                !
 ! A244  A(35,36,37)           102.9485         estimate D2E/DX2                !
 ! A245  A(35,36,38)           103.3481         estimate D2E/DX2                !
 ! A246  A(37,36,38)            80.2752         estimate D2E/DX2                !
 ! A247  A(13,37,36)            82.7306         estimate D2E/DX2                !
 ! A248  A(13,37,39)            82.6555         estimate D2E/DX2                !
 ! A249  A(36,37,39)            85.2402         estimate D2E/DX2                !
 ! A250  A(13,38,36)            82.7208         estimate D2E/DX2                !
 ! A251  A(13,38,39)            83.0816         estimate D2E/DX2                !
 ! A252  A(36,38,39)            85.5427         estimate D2E/DX2                !
 ! A253  A(37,39,38)            79.7204         estimate D2E/DX2                !
 ! A254  A(37,39,40)            80.5283         estimate D2E/DX2                !
 ! A255  A(37,39,41)           133.8239         estimate D2E/DX2                !
 ! A256  A(37,39,62)           135.6881         estimate D2E/DX2                !
 ! A257  A(37,39,68)           133.8982         estimate D2E/DX2                !
 ! A258  A(38,39,40)           136.3041         estimate D2E/DX2                !
 ! A259  A(38,39,41)           124.9573         estimate D2E/DX2                !
 ! A260  A(38,39,62)            79.9295         estimate D2E/DX2                !
 ! A261  A(38,39,68)           134.8649         estimate D2E/DX2                !
 ! A262  A(40,39,41)            96.4706         estimate D2E/DX2                !
 ! A263  A(40,39,62)            87.8251         estimate D2E/DX2                !
 ! A264  A(41,39,62)            89.7295         estimate D2E/DX2                !
 ! A265  A(18,40,39)            80.899          estimate D2E/DX2                !
 ! A266  A(18,40,68)            83.0402         estimate D2E/DX2                !
 ! A267  A(19,42,20)            78.028          estimate D2E/DX2                !
 ! A268  A(19,42,43)           137.8456         estimate D2E/DX2                !
 ! A269  A(19,42,44)            81.7589         estimate D2E/DX2                !
 ! A270  A(19,42,45)           132.7159         estimate D2E/DX2                !
 ! A271  A(19,42,61)           102.7147         estimate D2E/DX2                !
 ! A272  A(20,42,43)            83.178          estimate D2E/DX2                !
 ! A273  A(20,42,44)           137.5133         estimate D2E/DX2                !
 ! A274  A(20,42,45)           134.0869         estimate D2E/DX2                !
 ! A275  A(20,42,61)           102.9478         estimate D2E/DX2                !
 ! A276  A(43,42,44)            87.4882         estimate D2E/DX2                !
 ! A277  A(43,42,61)           118.212          estimate D2E/DX2                !
 ! A278  A(44,42,61)           117.8418         estimate D2E/DX2                !
 ! A279  A(45,42,61)           101.2185         estimate D2E/DX2                !
 ! A280  A(6,43,42)             80.0042         estimate D2E/DX2                !
 ! A281  A(6,43,45)             79.0331         estimate D2E/DX2                !
 ! A282  A(6,44,42)             80.2252         estimate D2E/DX2                !
 ! A283  A(6,44,45)             79.0895         estimate D2E/DX2                !
 ! A284  A(3,45,42)            137.1696         estimate D2E/DX2                !
 ! A285  A(3,45,43)             85.3097         estimate D2E/DX2                !
 ! A286  A(3,45,44)            139.4505         estimate D2E/DX2                !
 ! A287  A(3,45,46)             76.6318         estimate D2E/DX2                !
 ! A288  A(3,45,47)            104.8943         estimate D2E/DX2                !
 ! A289  A(42,45,46)           132.8552         estimate D2E/DX2                !
 ! A290  A(42,45,47)            95.2186         estimate D2E/DX2                !
 ! A291  A(43,45,44)            88.6764         estimate D2E/DX2                !
 ! A292  A(43,45,46)           137.5009         estimate D2E/DX2                !
 ! A293  A(43,45,47)           114.8197         estimate D2E/DX2                !
 ! A294  A(44,45,46)            81.2631         estimate D2E/DX2                !
 ! A295  A(44,45,47)           113.9433         estimate D2E/DX2                !
 ! A296  A(46,45,47)           106.9533         estimate D2E/DX2                !
 ! A297  A(1,46,45)             82.8778         estimate D2E/DX2                !
 ! A298  A(1,46,48)             82.1389         estimate D2E/DX2                !
 ! A299  A(45,46,48)            92.6754         estimate D2E/DX2                !
 ! A300  A(3,48,21)             87.0841         estimate D2E/DX2                !
 ! A301  A(3,48,23)             77.0856         estimate D2E/DX2                !
 ! A302  A(3,48,46)             78.1673         estimate D2E/DX2                !
 ! A303  A(3,48,49)            138.7092         estimate D2E/DX2                !
 ! A304  A(3,48,50)            114.783          estimate D2E/DX2                !
 ! A305  A(21,48,46)            98.348          estimate D2E/DX2                !
 ! A306  A(21,48,50)           143.4609         estimate D2E/DX2                !
 ! A307  A(23,48,46)           137.7137         estimate D2E/DX2                !
 ! A308  A(23,48,49)            83.0548         estimate D2E/DX2                !
 ! A309  A(23,48,50)           107.3213         estimate D2E/DX2                !
 ! A310  A(46,48,49)            93.7587         estimate D2E/DX2                !
 ! A311  A(46,48,50)           114.0639         estimate D2E/DX2                !
 ! A312  A(49,48,50)           105.5421         estimate D2E/DX2                !
 ! A313  A(14,51,22)            92.8037         estimate D2E/DX2                !
 ! A314  A(14,51,52)            91.7935         estimate D2E/DX2                !
 ! A315  A(14,51,60)           115.3535         estimate D2E/DX2                !
 ! A316  A(14,51,63)           133.4967         estimate D2E/DX2                !
 ! A317  A(22,51,52)           134.2411         estimate D2E/DX2                !
 ! A318  A(22,51,54)           145.6701         estimate D2E/DX2                !
 ! A319  A(22,51,60)           102.5547         estimate D2E/DX2                !
 ! A320  A(52,51,60)           116.1921         estimate D2E/DX2                !
 ! A321  A(52,51,63)            96.8156         estimate D2E/DX2                !
 ! A322  A(54,51,60)            97.8533         estimate D2E/DX2                !
 ! A323  A(54,51,63)           149.6012         estimate D2E/DX2                !
 ! A324  A(60,51,63)           101.3689         estimate D2E/DX2                !
 ! A325  A(12,52,51)            79.6357         estimate D2E/DX2                !
 ! A326  A(12,52,54)            77.7456         estimate D2E/DX2                !
 ! A327  A(14,54,52)            86.7367         estimate D2E/DX2                !
 ! A328  A(14,54,53)           110.8032         estimate D2E/DX2                !
 ! A329  A(14,54,55)           142.875          estimate D2E/DX2                !
 ! A330  A(14,54,56)            82.3502         estimate D2E/DX2                !
 ! A331  A(14,54,57)           131.4269         estimate D2E/DX2                !
 ! A332  A(51,54,53)            90.8734         estimate D2E/DX2                !
 ! A333  A(51,54,55)           133.4158         estimate D2E/DX2                !
 ! A334  A(51,54,56)           132.1399         estimate D2E/DX2                !
 ! A335  A(52,54,53)           110.2473         estimate D2E/DX2                !
 ! A336  A(52,54,55)            83.2447         estimate D2E/DX2                !
 ! A337  A(52,54,56)           144.1788         estimate D2E/DX2                !
 ! A338  A(52,54,57)           132.3051         estimate D2E/DX2                !
 ! A339  A(53,54,55)           106.2067         estimate D2E/DX2                !
 ! A340  A(53,54,56)           105.5256         estimate D2E/DX2                !
 ! A341  A(53,54,57)            84.521          estimate D2E/DX2                !
 ! A342  A(55,54,56)            85.2002         estimate D2E/DX2                !
 ! A343  A(27,55,54)            77.0356         estimate D2E/DX2                !
 ! A344  A(27,55,57)            80.4238         estimate D2E/DX2                !
 ! A345  A(27,56,54)            77.0716         estimate D2E/DX2                !
 ! A346  A(27,56,57)            80.445          estimate D2E/DX2                !
 ! A347  A(31,57,54)           147.6114         estimate D2E/DX2                !
 ! A348  A(31,57,55)           134.5415         estimate D2E/DX2                !
 ! A349  A(31,57,56)            95.2134         estimate D2E/DX2                !
 ! A350  A(31,57,58)           100.0092         estimate D2E/DX2                !
 ! A351  A(54,57,58)            99.7913         estimate D2E/DX2                !
 ! A352  A(54,57,64)           147.7875         estimate D2E/DX2                !
 ! A353  A(55,57,56)            90.9838         estimate D2E/DX2                !
 ! A354  A(55,57,58)           116.8501         estimate D2E/DX2                !
 ! A355  A(55,57,64)            95.4215         estimate D2E/DX2                !
 ! A356  A(56,57,58)           117.0294         estimate D2E/DX2                !
 ! A357  A(56,57,64)           133.9526         estimate D2E/DX2                !
 ! A358  A(58,57,64)           100.3121         estimate D2E/DX2                !
 ! A359  A(18,62,39)            81.1891         estimate D2E/DX2                !
 ! A360  A(18,62,68)            82.1366         estimate D2E/DX2                !
 ! A361  A(21,63,51)            87.9027         estimate D2E/DX2                !
 ! A362  A(30,64,57)            87.9785         estimate D2E/DX2                !
 ! A363  A(19,65,20)            77.3391         estimate D2E/DX2                !
 ! A364  A(19,65,66)            80.7724         estimate D2E/DX2                !
 ! A365  A(19,65,67)           130.9718         estimate D2E/DX2                !
 ! A366  A(19,65,68)            94.7007         estimate D2E/DX2                !
 ! A367  A(19,65,69)           137.4151         estimate D2E/DX2                !
 ! A368  A(19,65,71)           136.527          estimate D2E/DX2                !
 ! A369  A(20,65,66)           139.0905         estimate D2E/DX2                !
 ! A370  A(20,65,67)           126.8618         estimate D2E/DX2                !
 ! A371  A(20,65,68)            94.9172         estimate D2E/DX2                !
 ! A372  A(20,65,69)            79.8647         estimate D2E/DX2                !
 ! A373  A(20,65,71)           133.8395         estimate D2E/DX2                !
 ! A374  A(66,65,67)            93.4431         estimate D2E/DX2                !
 ! A375  A(66,65,69)            94.0559         estimate D2E/DX2                !
 ! A376  A(67,65,68)           120.2136         estimate D2E/DX2                !
 ! A377  A(67,65,69)            91.3605         estimate D2E/DX2                !
 ! A378  A(39,68,65)           122.5437         estimate D2E/DX2                !
 ! A379  A(39,68,66)           127.4403         estimate D2E/DX2                !
 ! A380  A(39,68,69)           125.542          estimate D2E/DX2                !
 ! A381  A(39,68,70)           128.6328         estimate D2E/DX2                !
 ! A382  A(40,68,41)            86.8489         estimate D2E/DX2                !
 ! A383  A(40,68,62)            84.0275         estimate D2E/DX2                !
 ! A384  A(40,68,65)            89.6159         estimate D2E/DX2                !
 ! A385  A(40,68,66)            75.7174         estimate D2E/DX2                !
 ! A386  A(40,68,69)           133.834          estimate D2E/DX2                !
 ! A387  A(40,68,70)           126.4061         estimate D2E/DX2                !
 ! A388  A(40,68,71)           128.9744         estimate D2E/DX2                !
 ! A389  A(41,68,62)            80.0257         estimate D2E/DX2                !
 ! A390  A(41,68,66)           138.8225         estimate D2E/DX2                !
 ! A391  A(41,68,69)           127.0583         estimate D2E/DX2                !
 ! A392  A(41,68,70)            82.2604         estimate D2E/DX2                !
 ! A393  A(41,68,71)           133.1341         estimate D2E/DX2                !
 ! A394  A(62,68,65)            89.3259         estimate D2E/DX2                !
 ! A395  A(62,68,66)           133.0959         estimate D2E/DX2                !
 ! A396  A(62,68,69)            74.2032         estimate D2E/DX2                !
 ! A397  A(62,68,70)           143.6449         estimate D2E/DX2                !
 ! A398  A(62,68,71)           126.329          estimate D2E/DX2                !
 ! A399  A(65,68,70)           108.0706         estimate D2E/DX2                !
 ! A400  A(66,68,69)            90.1184         estimate D2E/DX2                !
 ! A401  A(66,68,70)            78.996          estimate D2E/DX2                !
 ! A402  A(69,68,70)            92.081          estimate D2E/DX2                !
 ! A403  A(65,71,70)           115.6476         estimate D2E/DX2                !
 ! A404  A(65,71,72)           137.5947         estimate D2E/DX2                !
 ! A405  A(66,71,67)            83.138          estimate D2E/DX2                !
 ! A406  A(66,71,69)            92.9826         estimate D2E/DX2                !
 ! A407  A(66,71,70)            79.2383         estimate D2E/DX2                !
 ! A408  A(67,71,68)           113.3751         estimate D2E/DX2                !
 ! A409  A(67,71,69)            83.629          estimate D2E/DX2                !
 ! A410  A(67,71,70)           161.9045         estimate D2E/DX2                !
 ! A411  A(67,71,72)           111.0064         estimate D2E/DX2                !
 ! A412  A(68,71,72)           117.4618         estimate D2E/DX2                !
 ! A413  A(69,71,70)            93.1706         estimate D2E/DX2                !
 ! A414  A(69,71,72)            90.2212         estimate D2E/DX2                !
 ! A415  A(70,71,72)            86.7509         estimate D2E/DX2                !
 ! A416  L(51,54,57,53,-1)     175.3944         estimate D2E/DX2                !
 ! A417  L(39,68,71,3,-1)      178.3167         estimate D2E/DX2                !
 ! A418  L(41,68,65,40,-1)     176.4648         estimate D2E/DX2                !
 ! A419  L(66,71,72,67,-1)     194.1444         estimate D2E/DX2                !
 ! A420  L(71,72,73,59,-1)     177.6513         estimate D2E/DX2                !
 ! A421  L(51,54,57,53,-2)     180.6737         estimate D2E/DX2                !
 ! A422  L(39,68,71,3,-2)      178.4169         estimate D2E/DX2                !
 ! A423  L(41,68,65,40,-2)     169.6527         estimate D2E/DX2                !
 ! A424  L(66,71,72,67,-2)     181.5754         estimate D2E/DX2                !
 ! A425  L(71,72,73,59,-2)     178.5749         estimate D2E/DX2                !
 ! D1    D(3,1,2,12)           173.0114         estimate D2E/DX2                !
 ! D2    D(3,1,2,21)            89.8534         estimate D2E/DX2                !
 ! D3    D(4,1,2,12)           -30.6568         estimate D2E/DX2                !
 ! D4    D(4,1,2,21)          -113.8148         estimate D2E/DX2                !
 ! D5    D(5,1,2,12)            40.4297         estimate D2E/DX2                !
 ! D6    D(5,1,2,21)           -42.7284         estimate D2E/DX2                !
 ! D7    D(8,1,2,12)           -99.0895         estimate D2E/DX2                !
 ! D8    D(8,1,2,21)           177.7525         estimate D2E/DX2                !
 ! D9    D(46,1,2,12)          112.5751         estimate D2E/DX2                !
 ! D10   D(46,1,2,21)           29.417          estimate D2E/DX2                !
 ! D11   D(2,1,3,45)           170.5215         estimate D2E/DX2                !
 ! D12   D(2,1,3,48)           -98.6794         estimate D2E/DX2                !
 ! D13   D(4,1,3,45)            14.5981         estimate D2E/DX2                !
 ! D14   D(4,1,3,48)           105.3971         estimate D2E/DX2                !
 ! D15   D(5,1,3,45)          -117.3239         estimate D2E/DX2                !
 ! D16   D(5,1,3,48)           -26.5249         estimate D2E/DX2                !
 ! D17   D(8,1,3,45)            90.1965         estimate D2E/DX2                !
 ! D18   D(8,1,3,48)          -179.0045         estimate D2E/DX2                !
 ! D19   D(46,1,3,45)          -45.6702         estimate D2E/DX2                !
 ! D20   D(46,1,3,48)           45.1288         estimate D2E/DX2                !
 ! D21   D(2,1,4,6)           -108.5648         estimate D2E/DX2                !
 ! D22   D(2,1,4,9)            -25.3107         estimate D2E/DX2                !
 ! D23   D(3,1,4,6)             36.6064         estimate D2E/DX2                !
 ! D24   D(3,1,4,9)            119.8606         estimate D2E/DX2                !
 ! D25   D(5,1,4,6)           -178.159          estimate D2E/DX2                !
 ! D26   D(5,1,4,9)            -94.9048         estimate D2E/DX2                !
 ! D27   D(8,1,4,6)            -40.9261         estimate D2E/DX2                !
 ! D28   D(8,1,4,9)             42.3281         estimate D2E/DX2                !
 ! D29   D(46,1,4,6)            94.8944         estimate D2E/DX2                !
 ! D30   D(46,1,4,9)           178.1485         estimate D2E/DX2                !
 ! D31   D(2,1,5,12)           -40.568          estimate D2E/DX2                !
 ! D32   D(2,1,5,21)            42.1043         estimate D2E/DX2                !
 ! D33   D(3,1,5,12)          -114.7242         estimate D2E/DX2                !
 ! D34   D(3,1,5,21)           -32.052          estimate D2E/DX2                !
 ! D35   D(4,1,5,12)            96.8536         estimate D2E/DX2                !
 ! D36   D(4,1,5,21)           179.5259         estimate D2E/DX2                !
 ! D37   D(8,1,5,12)            24.4356         estimate D2E/DX2                !
 ! D38   D(8,1,5,21)           107.1078         estimate D2E/DX2                !
 ! D39   D(46,1,5,12)          178.2463         estimate D2E/DX2                !
 ! D40   D(46,1,5,21)          -99.0814         estimate D2E/DX2                !
 ! D41   D(2,1,8,6)            179.37           estimate D2E/DX2                !
 ! D42   D(2,1,8,9)             95.9045         estimate D2E/DX2                !
 ! D43   D(3,1,8,6)            -95.5705         estimate D2E/DX2                !
 ! D44   D(3,1,8,9)           -179.0361         estimate D2E/DX2                !
 ! D45   D(4,1,8,6)             41.2546         estimate D2E/DX2                !
 ! D46   D(4,1,8,9)            -42.2109         estimate D2E/DX2                !
 ! D47   D(5,1,8,6)            114.3636         estimate D2E/DX2                !
 ! D48   D(5,1,8,9)             30.898          estimate D2E/DX2                !
 ! D49   D(46,1,8,6)           -28.7051         estimate D2E/DX2                !
 ! D50   D(46,1,8,9)          -112.1707         estimate D2E/DX2                !
 ! D51   D(2,1,46,45)          109.5177         estimate D2E/DX2                !
 ! D52   D(2,1,46,48)           15.8059         estimate D2E/DX2                !
 ! D53   D(3,1,46,45)           46.0244         estimate D2E/DX2                !
 ! D54   D(3,1,46,48)          -47.6874         estimate D2E/DX2                !
 ! D55   D(4,1,46,45)          -96.01           estimate D2E/DX2                !
 ! D56   D(4,1,46,48)          170.2782         estimate D2E/DX2                !
 ! D57   D(5,1,46,45)          179.5544         estimate D2E/DX2                !
 ! D58   D(5,1,46,48)           85.8426         estimate D2E/DX2                !
 ! D59   D(8,1,46,45)          -25.5951         estimate D2E/DX2                !
 ! D60   D(8,1,46,48)         -119.307          estimate D2E/DX2                !
 ! D61   D(1,2,12,5)           -40.7266         estimate D2E/DX2                !
 ! D62   D(1,2,12,11)           29.064          estimate D2E/DX2                !
 ! D63   D(1,2,12,14)          179.6408         estimate D2E/DX2                !
 ! D64   D(1,2,12,15)           97.6698         estimate D2E/DX2                !
 ! D65   D(1,2,12,52)         -109.4171         estimate D2E/DX2                !
 ! D66   D(21,2,12,5)           41.3144         estimate D2E/DX2                !
 ! D67   D(21,2,12,11)         111.105          estimate D2E/DX2                !
 ! D68   D(21,2,12,14)         -98.3182         estimate D2E/DX2                !
 ! D69   D(21,2,12,15)         179.7108         estimate D2E/DX2                !
 ! D70   D(21,2,12,52)         -27.3761         estimate D2E/DX2                !
 ! D71   D(1,2,21,5)            43.3976         estimate D2E/DX2                !
 ! D72   D(1,2,21,22)          175.9924         estimate D2E/DX2                !
 ! D73   D(1,2,21,23)          -95.5795         estimate D2E/DX2                !
 ! D74   D(1,2,21,48)          -43.7219         estimate D2E/DX2                !
 ! D75   D(1,2,21,49)          -20.9991         estimate D2E/DX2                !
 ! D76   D(1,2,21,63)          139.3729         estimate D2E/DX2                !
 ! D77   D(12,2,21,5)          -41.6409         estimate D2E/DX2                !
 ! D78   D(12,2,21,22)          90.9538         estimate D2E/DX2                !
 ! D79   D(12,2,21,23)         179.382          estimate D2E/DX2                !
 ! D80   D(12,2,21,48)        -128.7604         estimate D2E/DX2                !
 ! D81   D(12,2,21,49)        -106.0377         estimate D2E/DX2                !
 ! D82   D(12,2,21,63)          54.3344         estimate D2E/DX2                !
 ! D83   D(1,3,45,42)          -93.7444         estimate D2E/DX2                !
 ! D84   D(1,3,45,43)          -94.4619         estimate D2E/DX2                !
 ! D85   D(1,3,45,44)          -12.0209         estimate D2E/DX2                !
 ! D86   D(1,3,45,46)           46.7864         estimate D2E/DX2                !
 ! D87   D(1,3,45,47)          151.082          estimate D2E/DX2                !
 ! D88   D(48,3,45,42)        -174.4699         estimate D2E/DX2                !
 ! D89   D(48,3,45,43)        -175.1874         estimate D2E/DX2                !
 ! D90   D(48,3,45,44)         -92.7464         estimate D2E/DX2                !
 ! D91   D(48,3,45,46)         -33.9391         estimate D2E/DX2                !
 ! D92   D(48,3,45,47)          70.3565         estimate D2E/DX2                !
 ! D93   D(1,3,48,21)           50.951          estimate D2E/DX2                !
 ! D94   D(1,3,48,23)           97.2279         estimate D2E/DX2                !
 ! D95   D(1,3,48,46)          -48.2096         estimate D2E/DX2                !
 ! D96   D(1,3,48,49)           33.913          estimate D2E/DX2                !
 ! D97   D(1,3,48,50)         -159.4412         estimate D2E/DX2                !
 ! D98   D(45,3,48,21)         134.3663         estimate D2E/DX2                !
 ! D99   D(45,3,48,23)        -179.3568         estimate D2E/DX2                !
 ! D100  D(45,3,48,46)          35.2057         estimate D2E/DX2                !
 ! D101  D(45,3,48,49)         117.3284         estimate D2E/DX2                !
 ! D102  D(45,3,48,50)         -76.0259         estimate D2E/DX2                !
 ! D103  D(1,4,6,7)            179.2427         estimate D2E/DX2                !
 ! D104  D(1,4,6,8)             40.832          estimate D2E/DX2                !
 ! D105  D(1,4,6,16)           109.2513         estimate D2E/DX2                !
 ! D106  D(1,4,6,43)           -28.1577         estimate D2E/DX2                !
 ! D107  D(1,4,6,44)           -98.3442         estimate D2E/DX2                !
 ! D108  D(9,4,6,7)             96.4469         estimate D2E/DX2                !
 ! D109  D(9,4,6,8)            -41.9638         estimate D2E/DX2                !
 ! D110  D(9,4,6,16)            26.4555         estimate D2E/DX2                !
 ! D111  D(9,4,6,43)          -110.9535         estimate D2E/DX2                !
 ! D112  D(9,4,6,44)           178.86           estimate D2E/DX2                !
 ! D113  D(1,4,9,8)            -41.6076         estimate D2E/DX2                !
 ! D114  D(1,4,9,10)           179.9865         estimate D2E/DX2                !
 ! D115  D(1,4,9,11)            96.4717         estimate D2E/DX2                !
 ! D116  D(1,4,9,15)            28.2125         estimate D2E/DX2                !
 ! D117  D(1,4,9,26)          -110.888          estimate D2E/DX2                !
 ! D118  D(6,4,9,8)             41.3479         estimate D2E/DX2                !
 ! D119  D(6,4,9,10)           -97.058          estimate D2E/DX2                !
 ! D120  D(6,4,9,11)           179.4272         estimate D2E/DX2                !
 ! D121  D(6,4,9,15)           111.168          estimate D2E/DX2                !
 ! D122  D(6,4,9,26)           -27.9325         estimate D2E/DX2                !
 ! D123  D(1,5,12,2)            40.5781         estimate D2E/DX2                !
 ! D124  D(1,5,12,11)          -95.4074         estimate D2E/DX2                !
 ! D125  D(1,5,12,14)          110.5412         estimate D2E/DX2                !
 ! D126  D(1,5,12,15)          -26.7125         estimate D2E/DX2                !
 ! D127  D(1,5,12,52)         -179.9637         estimate D2E/DX2                !
 ! D128  D(21,5,12,2)          -40.6723         estimate D2E/DX2                !
 ! D129  D(21,5,12,11)        -176.6579         estimate D2E/DX2                !
 ! D130  D(21,5,12,14)          29.2907         estimate D2E/DX2                !
 ! D131  D(21,5,12,15)        -107.9629         estimate D2E/DX2                !
 ! D132  D(21,5,12,52)          98.7859         estimate D2E/DX2                !
 ! D133  D(1,5,21,2)           -43.3578         estimate D2E/DX2                !
 ! D134  D(1,5,21,22)         -133.6642         estimate D2E/DX2                !
 ! D135  D(1,5,21,23)           35.9538         estimate D2E/DX2                !
 ! D136  D(1,5,21,48)           55.1986         estimate D2E/DX2                !
 ! D137  D(1,5,21,49)          100.0893         estimate D2E/DX2                !
 ! D138  D(1,5,21,63)         -176.0915         estimate D2E/DX2                !
 ! D139  D(12,5,21,2)           41.8524         estimate D2E/DX2                !
 ! D140  D(12,5,21,22)         -48.454          estimate D2E/DX2                !
 ! D141  D(12,5,21,23)         121.164          estimate D2E/DX2                !
 ! D142  D(12,5,21,48)         140.4088         estimate D2E/DX2                !
 ! D143  D(12,5,21,49)        -174.7005         estimate D2E/DX2                !
 ! D144  D(12,5,21,63)         -90.8813         estimate D2E/DX2                !
 ! D145  D(4,6,7,13)           -96.5459         estimate D2E/DX2                !
 ! D146  D(4,6,7,18)          -178.8549         estimate D2E/DX2                !
 ! D147  D(8,6,7,13)           -27.6947         estimate D2E/DX2                !
 ! D148  D(8,6,7,18)          -110.0037         estimate D2E/DX2                !
 ! D149  D(16,6,7,13)           40.8618         estimate D2E/DX2                !
 ! D150  D(16,6,7,18)          -41.4471         estimate D2E/DX2                !
 ! D151  D(43,6,7,13)          110.9197         estimate D2E/DX2                !
 ! D152  D(43,6,7,18)           28.6107         estimate D2E/DX2                !
 ! D153  D(44,6,7,13)          178.7027         estimate D2E/DX2                !
 ! D154  D(44,6,7,18)           96.3937         estimate D2E/DX2                !
 ! D155  D(4,6,8,1)            -40.8036         estimate D2E/DX2                !
 ! D156  D(4,6,8,9)             41.8046         estimate D2E/DX2                !
 ! D157  D(7,6,8,1)           -109.7758         estimate D2E/DX2                !
 ! D158  D(7,6,8,9)            -27.1676         estimate D2E/DX2                !
 ! D159  D(16,6,8,1)          -178.6449         estimate D2E/DX2                !
 ! D160  D(16,6,8,9)           -96.0367         estimate D2E/DX2                !
 ! D161  D(43,6,8,1)            97.9766         estimate D2E/DX2                !
 ! D162  D(43,6,8,9)          -179.4152         estimate D2E/DX2                !
 ! D163  D(44,6,8,1)            30.375          estimate D2E/DX2                !
 ! D164  D(44,6,8,9)           112.9832         estimate D2E/DX2                !
 ! D165  D(4,6,16,13)           29.1526         estimate D2E/DX2                !
 ! D166  D(4,6,16,18)          111.582          estimate D2E/DX2                !
 ! D167  D(7,6,16,13)          -40.7698         estimate D2E/DX2                !
 ! D168  D(7,6,16,18)           41.6595         estimate D2E/DX2                !
 ! D169  D(8,6,16,13)           97.6985         estimate D2E/DX2                !
 ! D170  D(8,6,16,18)         -179.8722         estimate D2E/DX2                !
 ! D171  D(43,6,16,13)        -179.3553         estimate D2E/DX2                !
 ! D172  D(43,6,16,18)         -96.926          estimate D2E/DX2                !
 ! D173  D(44,6,16,13)        -110.3301         estimate D2E/DX2                !
 ! D174  D(44,6,16,18)         -27.9008         estimate D2E/DX2                !
 ! D175  D(4,6,43,42)         -110.3924         estimate D2E/DX2                !
 ! D176  D(4,6,43,45)          -31.6639         estimate D2E/DX2                !
 ! D177  D(7,6,43,42)           28.8291         estimate D2E/DX2                !
 ! D178  D(7,6,43,45)          107.5576         estimate D2E/DX2                !
 ! D179  D(8,6,43,42)         -179.2033         estimate D2E/DX2                !
 ! D180  D(8,6,43,45)         -100.4748         estimate D2E/DX2                !
 ! D181  D(16,6,43,42)          98.7526         estimate D2E/DX2                !
 ! D182  D(16,6,43,45)         177.4811         estimate D2E/DX2                !
 ! D183  D(44,6,43,42)         -39.1859         estimate D2E/DX2                !
 ! D184  D(44,6,43,45)          39.5426         estimate D2E/DX2                !
 ! D185  D(4,6,44,42)          177.6202         estimate D2E/DX2                !
 ! D186  D(4,6,44,45)           98.7087         estimate D2E/DX2                !
 ! D187  D(7,6,44,42)          -99.8372         estimate D2E/DX2                !
 ! D188  D(7,6,44,45)         -178.7487         estimate D2E/DX2                !
 ! D189  D(8,6,44,42)          107.2802         estimate D2E/DX2                !
 ! D190  D(8,6,44,45)           28.3687         estimate D2E/DX2                !
 ! D191  D(16,6,44,42)         -30.1632         estimate D2E/DX2                !
 ! D192  D(16,6,44,45)        -109.0747         estimate D2E/DX2                !
 ! D193  D(43,6,44,42)          39.3519         estimate D2E/DX2                !
 ! D194  D(43,6,44,45)         -39.5596         estimate D2E/DX2                !
 ! D195  D(6,7,13,10)           97.7886         estimate D2E/DX2                !
 ! D196  D(6,7,13,16)          -40.5987         estimate D2E/DX2                !
 ! D197  D(6,7,13,26)           27.233          estimate D2E/DX2                !
 ! D198  D(6,7,13,37)         -177.4741         estimate D2E/DX2                !
 ! D199  D(6,7,13,38)         -112.3715         estimate D2E/DX2                !
 ! D200  D(18,7,13,10)         179.8007         estimate D2E/DX2                !
 ! D201  D(18,7,13,16)          41.4134         estimate D2E/DX2                !
 ! D202  D(18,7,13,26)         109.2451         estimate D2E/DX2                !
 ! D203  D(18,7,13,37)         -95.462          estimate D2E/DX2                !
 ! D204  D(18,7,13,38)         -30.3594         estimate D2E/DX2                !
 ! D205  D(6,7,18,16)           41.7715         estimate D2E/DX2                !
 ! D206  D(6,7,18,19)          -96.4415         estimate D2E/DX2                !
 ! D207  D(6,7,18,20)          -32.5664         estimate D2E/DX2                !
 ! D208  D(6,7,18,40)         -179.0379         estimate D2E/DX2                !
 ! D209  D(6,7,18,62)          110.419          estimate D2E/DX2                !
 ! D210  D(13,7,18,16)         -42.0114         estimate D2E/DX2                !
 ! D211  D(13,7,18,19)         179.7756         estimate D2E/DX2                !
 ! D212  D(13,7,18,20)        -116.3493         estimate D2E/DX2                !
 ! D213  D(13,7,18,40)          97.1792         estimate D2E/DX2                !
 ! D214  D(13,7,18,62)          26.6361         estimate D2E/DX2                !
 ! D215  D(1,8,9,4)             41.6409         estimate D2E/DX2                !
 ! D216  D(1,8,9,10)           109.8651         estimate D2E/DX2                !
 ! D217  D(1,8,9,11)           -28.8449         estimate D2E/DX2                !
 ! D218  D(1,8,9,15)           -97.8718         estimate D2E/DX2                !
 ! D219  D(1,8,9,26)          -179.9484         estimate D2E/DX2                !
 ! D220  D(6,8,9,4)            -41.7008         estimate D2E/DX2                !
 ! D221  D(6,8,9,10)            26.5234         estimate D2E/DX2                !
 ! D222  D(6,8,9,11)          -112.1866         estimate D2E/DX2                !
 ! D223  D(6,8,9,15)           178.7865         estimate D2E/DX2                !
 ! D224  D(6,8,9,26)            96.7099         estimate D2E/DX2                !
 ! D225  D(4,9,10,13)           97.2129         estimate D2E/DX2                !
 ! D226  D(4,9,10,24)          179.1029         estimate D2E/DX2                !
 ! D227  D(8,9,10,13)           29.5126         estimate D2E/DX2                !
 ! D228  D(8,9,10,24)          111.4025         estimate D2E/DX2                !
 ! D229  D(11,9,10,13)        -178.4221         estimate D2E/DX2                !
 ! D230  D(11,9,10,24)         -96.5321         estimate D2E/DX2                !
 ! D231  D(15,9,10,13)        -109.9642         estimate D2E/DX2                !
 ! D232  D(15,9,10,24)         -28.0743         estimate D2E/DX2                !
 ! D233  D(26,9,10,13)         -41.1115         estimate D2E/DX2                !
 ! D234  D(26,9,10,24)          40.7784         estimate D2E/DX2                !
 ! D235  D(4,9,11,12)          -97.9362         estimate D2E/DX2                !
 ! D236  D(4,9,11,27)          179.3113         estimate D2E/DX2                !
 ! D237  D(8,9,11,12)          -28.5919         estimate D2E/DX2                !
 ! D238  D(8,9,11,27)         -111.3444         estimate D2E/DX2                !
 ! D239  D(10,9,11,12)         179.4923         estimate D2E/DX2                !
 ! D240  D(10,9,11,27)          96.7397         estimate D2E/DX2                !
 ! D241  D(15,9,11,12)          41.6897         estimate D2E/DX2                !
 ! D242  D(15,9,11,27)         -41.0629         estimate D2E/DX2                !
 ! D243  D(26,9,11,12)         109.0904         estimate D2E/DX2                !
 ! D244  D(26,9,11,27)          26.3379         estimate D2E/DX2                !
 ! D245  D(4,9,15,12)           27.7658         estimate D2E/DX2                !
 ! D246  D(4,9,15,27)          110.4917         estimate D2E/DX2                !
 ! D247  D(8,9,15,12)           96.4684         estimate D2E/DX2                !
 ! D248  D(8,9,15,27)          179.1943         estimate D2E/DX2                !
 ! D249  D(10,9,15,12)        -111.0979         estimate D2E/DX2                !
 ! D250  D(10,9,15,27)         -28.3721         estimate D2E/DX2                !
 ! D251  D(11,9,15,12)         -41.6813         estimate D2E/DX2                !
 ! D252  D(11,9,15,27)          41.0445         estimate D2E/DX2                !
 ! D253  D(26,9,15,12)         179.9823         estimate D2E/DX2                !
 ! D254  D(26,9,15,27)         -97.2918         estimate D2E/DX2                !
 ! D255  D(4,9,26,13)          -28.0806         estimate D2E/DX2                !
 ! D256  D(4,9,26,24)         -110.0057         estimate D2E/DX2                !
 ! D257  D(8,9,26,13)          -96.5286         estimate D2E/DX2                !
 ! D258  D(8,9,26,24)         -178.4538         estimate D2E/DX2                !
 ! D259  D(10,9,26,13)          41.166          estimate D2E/DX2                !
 ! D260  D(10,9,26,24)         -40.7591         estimate D2E/DX2                !
 ! D261  D(11,9,26,13)         112.0263         estimate D2E/DX2                !
 ! D262  D(11,9,26,24)          30.1012         estimate D2E/DX2                !
 ! D263  D(15,9,26,13)         178.9939         estimate D2E/DX2                !
 ! D264  D(15,9,26,24)          97.0688         estimate D2E/DX2                !
 ! D265  D(9,10,13,7)          -97.1137         estimate D2E/DX2                !
 ! D266  D(9,10,13,16)         -28.0789         estimate D2E/DX2                !
 ! D267  D(9,10,13,26)          41.5631         estimate D2E/DX2                !
 ! D268  D(9,10,13,37)         179.4248         estimate D2E/DX2                !
 ! D269  D(9,10,13,38)         114.1518         estimate D2E/DX2                !
 ! D270  D(24,10,13,7)         179.7504         estimate D2E/DX2                !
 ! D271  D(24,10,13,16)       -111.2148         estimate D2E/DX2                !
 ! D272  D(24,10,13,26)        -41.5728         estimate D2E/DX2                !
 ! D273  D(24,10,13,37)         96.2889         estimate D2E/DX2                !
 ! D274  D(24,10,13,38)         31.0159         estimate D2E/DX2                !
 ! D275  D(9,10,24,17)        -112.0545         estimate D2E/DX2                !
 ! D276  D(9,10,24,25)        -179.257          estimate D2E/DX2                !
 ! D277  D(9,10,24,26)         -41.1559         estimate D2E/DX2                !
 ! D278  D(9,10,24,28)          96.8635         estimate D2E/DX2                !
 ! D279  D(9,10,24,29)          29.296          estimate D2E/DX2                !
 ! D280  D(9,10,24,30)          99.8206         estimate D2E/DX2                !
 ! D281  D(13,10,24,17)        -29.3955         estimate D2E/DX2                !
 ! D282  D(13,10,24,25)        -96.5981         estimate D2E/DX2                !
 ! D283  D(13,10,24,26)         41.5031         estimate D2E/DX2                !
 ! D284  D(13,10,24,28)        179.5225         estimate D2E/DX2                !
 ! D285  D(13,10,24,29)        111.9549         estimate D2E/DX2                !
 ! D286  D(13,10,24,30)       -177.5204         estimate D2E/DX2                !
 ! D287  D(9,11,12,2)           26.8126         estimate D2E/DX2                !
 ! D288  D(9,11,12,5)           95.9753         estimate D2E/DX2                !
 ! D289  D(9,11,12,14)        -109.2458         estimate D2E/DX2                !
 ! D290  D(9,11,12,15)         -41.8814         estimate D2E/DX2                !
 ! D291  D(9,11,12,52)         179.3312         estimate D2E/DX2                !
 ! D292  D(27,11,12,2)         110.9197         estimate D2E/DX2                !
 ! D293  D(27,11,12,5)        -179.9176         estimate D2E/DX2                !
 ! D294  D(27,11,12,14)        -25.1388         estimate D2E/DX2                !
 ! D295  D(27,11,12,15)         42.2257         estimate D2E/DX2                !
 ! D296  D(27,11,12,52)        -96.5617         estimate D2E/DX2                !
 ! D297  D(9,11,27,15)          41.2519         estimate D2E/DX2                !
 ! D298  D(9,11,27,28)         -95.8066         estimate D2E/DX2                !
 ! D299  D(9,11,27,29)         -27.6834         estimate D2E/DX2                !
 ! D300  D(9,11,27,55)        -178.8849         estimate D2E/DX2                !
 ! D301  D(9,11,27,56)         111.3872         estimate D2E/DX2                !
 ! D302  D(12,11,27,15)        -42.2272         estimate D2E/DX2                !
 ! D303  D(12,11,27,28)       -179.2858         estimate D2E/DX2                !
 ! D304  D(12,11,27,29)       -111.1626         estimate D2E/DX2                !
 ! D305  D(12,11,27,55)         97.636          estimate D2E/DX2                !
 ! D306  D(12,11,27,56)         27.908          estimate D2E/DX2                !
[...]
 005303,-0.00005337,0.00009229,-0.00000061,-0.00001468,-0.00000979,0.00
 001704,0.00000567,-0.00000386,-0.00009017,0.00002399,-0.00004253,0.000
 01819,-0.00000495,0.00000144,0.00002177,-0.00000640,0.00001004,0.00012
 066,0.00006523,-0.00003295,0.00004077,-0.00003233,0.00002056,-0.000186
 73,-0.00002651,-0.00047542,0.00013598,-0.00047361,0.00002931,0.0002257
 6,0.00005721,-0.00001201,-0.00065625,0.00022321,0.00056518,0.00543808,
 -0.00393534,-0.00437792,-0.00057004,0.00416524,0.00089385,-0.00109107,
 0.00300358,0.00190827,-0.00097501,0.00070013,-0.00004387,-0.00018105,-
 0.00001982,0.00018739,-0.00009059,-0.00009728,0.00010568,0.00017707,0.
 00008641,-0.00016322,-0.00004474,0.00001206,0.00003181,-0.00002636,-0.
 00003514,0.00006079,0.00009028,-0.00000832,0.00000504,-0.00002167,-0.0
 0000448,-0.00000645,-0.00003106,-0.00002039,0.00003780,-0.00003101,0.0
 0002112,-0.00002742,-0.00000257,0.00001789,-0.00001715,0.00005829,-0.0
 0000389,-0.00000494,-0.00008768,-0.00001890,0.00005681,-0.00000302,0.0
 0002508,0.00000211,-0.00000972,-0.00001519,-0.00001660,-0.00005195,0.0
 0002809,-0.00004384,0.00008271,-0.00000661,-0.00000747,-0.00006891,0.0
 0005674,-0.00009479,0.00004662,-0.00000963,0.00000981,0.00050207,-0.00
 000225,0.00002313,0.00019144,0.00008664,0.00109319,-0.00001106,-0.0000
 0977,0.00000142,0.00002062,-0.00000389,0.00000331,-0.06563881,0.025173
 95,-0.03985993,0.02784525,-0.04137281,-0.01814526,0.02658250,0.0162922
 3,-0.03323859,0.02010429,-0.00278594,0.01108869,-0.03912859,-0.0233578
 4,-0.02478061,0.00032292,0.01233309,-0.06494901,0.03190758,-0.00423553
 ,0.18790047,-0.00003898,-0.00002465,0.00007557,-0.00004308,0.00002047,
 -0.00007769,0.00004886,-0.00002647,-0.00000166,-0.00007908,0.00005781,
 -0.00009225,-0.00002284,0.00003430,-0.00006806,0.00029488,-0.00029330,
 0.00031510,-0.00012534,0.00015043,-0.00022561,-0.00010007,0.00005855,-
 0.00011309,0.00028494,-0.00008906,0.00009922,-0.00012887,0.00002673,-0
 .00002595,-0.00006703,0.00005435,-0.00005896,0.00023508,-0.00008104,0.
 00011425,-0.00025560,0.00021362,0.00038564,-0.00001160,-0.00002439,-0.
 00005418,-0.00007601,0.00003177,-0.00008221,-0.00018118,0.00005154,-0.
 00006602,-0.00031340,-0.00028036,0.00010677,0.00008013,0.00018094,-0.0
 0042686,-0.00075569,-0.00019509,-0.00122625,-0.00008809,-0.00033215,0.
 00054350,0.00001586,-0.00009828,-0.00001350,0.00002738,0.00004256,0.00
 002413,-0.00003249,0.00000137,0.00009289,0.00040699,0.00013799,-0.0002
 1354,-0.00022789,-0.00000385,0.00020534,-0.00014065,0.00000852,-0.0000
 7302,0.00024396,-0.00014400,0.00024226,-0.00003077,-0.00002701,-0.0000
 0248,-0.00001018,0.00002196,0.00000976,-0.00021316,0.00003558,-0.00007
 392,0.00006980,0.00001010,0.00002623,0.00008942,0.00002017,0.00002627,
 0.00014083,0.00002426,0.00005480,0.00009605,-0.00007207,0.00001995,-0.
 00036158,0.00008184,-0.00048606,0.00141806,-0.00028244,0.00018809,0.00
 018044,-0.00007288,-0.00003926,-0.00009819,-0.00003348,0.00008086,0.00
 308290,-0.00160552,-0.00303007,-0.00086732,0.00149118,0.00029829,-0.00
 020014,0.00077926,0.00199486,0.00084403,0.00064432,0.00009424,-0.00016
 259,-0.00005755,-0.00006652,0.00005772,0.00020987,-0.00017192,0.000242
 47,0.00000727,-0.00007779,0.00009888,-0.00003923,0.00004336,-0.0002699
 9,-0.00011267,0.00027527,-0.00011713,0.00042023,-0.00041236,0.00016116
 ,-0.00008749,-0.00006256,-0.00020829,-0.00017117,0.00032104,-0.0002647
 8,0.00007771,-0.00009552,-0.00000123,0.00005570,-0.00001592,0.00026602
 ,-0.00003251,0.00000627,-0.00036168,-0.00001016,0.00010438,-0.00001807
 ,0.00008027,0.00002142,-0.00003731,-0.00006175,-0.00004722,-0.00026360
 ,0.00007979,-0.00009517,0.00035324,-0.00002925,-0.00003048,-0.00017525
 ,0.00020035,-0.00034438,0.00029116,-0.00006519,0.00007465,-0.00065234,
 -0.00002187,0.00042329,0.00009462,0.00149896,0.00147904,0.00001138,-0.
 00005200,-0.00001245,0.00006630,-0.00004560,-0.00000316,0.00505138,0.0
 0422995,0.00175782,-0.00404252,0.00783336,-0.00122539,-0.00499155,0.00
 095736,-0.00333844,-0.00736192,-0.00160931,0.00845845,-0.00331450,0.00
 501840,-0.00495652,-0.00951145,0.00259446,0.00586755,-0.03311868,-0.00
 359112,-0.00379966,0.57287689,0.00001402,0.00001867,-0.00008208,0.0000
 5539,-0.00001839,0.00004826,-0.00014006,-0.00001820,-0.00000744,0.0001
 0488,-0.00004411,0.00006810,0.00004540,0.00000343,0.00004149,-0.000735
 80,0.00040414,-0.00074212,0.00004764,-0.00007878,-0.00000249,0.0001148
 0,-0.00002233,0.00007185,-0.00032977,0.00007741,-0.00007436,0.00013661
 ,-0.00002071,-0.00005518,0.00009201,-0.00003493,0.00001093,-0.00030062
 ,0.00003404,-0.00003927,0.00022427,0.00011101,-0.00017887,0.00001974,0
 .00004501,0.00004151,0.00009183,-0.00000802,0.00004190,0.00007831,0.00
 034260,-0.00007083,0.00022864,0.00024761,-0.00011854,0.00109328,-0.001
 78753,0.00116754,0.00025438,-0.00013483,-0.00020398,-0.00065069,0.0012
 1019,-0.00206893,0.00001782,0.00009760,-0.00001747,-0.00005167,-0.0000
 4400,-0.00001870,-0.00000480,0.00002645,-0.00007010,-0.00036192,-0.000
 14074,0.00021766,0.00021243,-0.00007634,-0.00016218,0.00013528,0.00004
 038,0.00002268,-0.00027438,0.00010229,-0.00015846,0.00004050,0.0000258
 2,-0.00002136,0.00003013,0.00000072,-0.00003349,0.00017309,-0.00002383
 ,0.00002665,-0.00005978,-0.00001908,-0.00002694,-0.00008290,-0.0000571
 3,-0.00002654,-0.00017395,0.00004948,-0.00008210,-0.00007002,0.0000552
 0,0.00001864,0.00033661,-0.00020874,0.00069995,-0.00109025,0.00057284,
 -0.00031537,-0.00050700,-0.00028316,-0.00004859,0.00022019,0.00008256,
 -0.00013132,-0.00336212,0.00140792,0.00259876,-0.00001579,-0.00174446,
 0.00034598,0.00004132,-0.00154046,-0.00042670,-0.00111098,-0.00034869,
 -0.00005742,0.00003494,0.00008320,0.00044931,-0.00018505,-0.00024074,0
 .00026975,-0.00025004,0.00025651,-0.00037991,-0.00018085,0.00008529,-0
 .00002345,0.00026613,0.00007143,-0.00020881,0.00032975,-0.00059629,0.0
 0056528,-0.00027339,0.00012340,0.00007932,0.00022169,0.00018963,-0.000
 35690,0.00032446,-0.00006573,0.00006541,0.00000523,-0.00005770,-0.0000
 0844,-0.00028575,0.00004987,-0.00003674,0.00036545,-0.00004199,-0.0000
 0450,0.00001810,-0.00006626,-0.00003118,0.00003407,0.00006442,0.000030
 37,0.00030103,-0.00005949,0.00004801,-0.00036332,0.00003119,0.00002792
 ,0.00016128,-0.00022121,0.00037619,-0.00033743,0.00007800,-0.00009305,
 0.00027468,0.00036384,-0.00068821,-0.00105989,0.00099641,-0.00068182,-
 0.00003796,0.00005784,0.00001979,-0.00005280,0.00004934,0.00001027,0.0
 0132009,-0.00523606,0.00166338,0.00925777,-0.00266582,-0.00467655,0.00
 226280,-0.00056126,0.00181308,0.00781117,0.00203393,-0.00921489,-0.003
 42723,0.00680203,0.00127273,0.00588965,0.00113579,-0.00140238,0.001751
 67,-0.06066919,0.01657166,-0.54463955,0.66709332,0.00003039,-0.0000072
 8,0.00001186,-0.00001678,-0.00000085,0.00002627,0.00009611,0.00005409,
 0.00000332,-0.00002720,0.00001464,0.00003716,-0.00002232,-0.00003160,0
 .00002281,0.00027374,-0.00021631,0.00023109,0.00002642,0.00002746,0.00
 016871,-0.00003145,-0.00002114,0.00000821,0.00005067,0.00001848,-0.000
 04397,-0.00001656,-0.00001268,0.00004797,-0.00002271,-0.00001752,0.000
 04138,0.00007189,0.00003414,-0.00006826,0.00027433,-0.00002788,-0.0001
 4941,-0.00000613,-0.00002004,0.00001025,-0.00002016,-0.00002011,0.0000
 3740,-0.00005750,-0.00013540,0.00002735,0.00002315,0.00001761,-0.00002
 702,-0.00145054,0.00062319,-0.00045344,0.00102082,-0.00014830,0.001837
 70,0.00037027,0.00010464,0.00024110,-0.00002817,0.00000074,0.00003268,
 0.00002421,0.00000363,-0.00000417,0.00003502,-0.00002728,-0.00002362,-
 0.00003418,-0.00000161,0.00001348,0.00001450,0.00002499,-0.00002770,-0
 .00001298,-0.00002880,0.00004449,0.00003069,0.00003965,-0.00007964,-0.
 00001440,-0.00000197,0.00002678,-0.00001790,-0.00001955,0.00002061,0.0
 0004082,-0.00002738,0.00005285,-0.00000742,0.00001132,0.00000280,-0.00
 001226,0.00002518,-0.00001591,-0.00000953,-0.00004463,0.00007260,-0.00
 001924,0.00000496,-0.00003315,-0.00003879,0.00006586,-0.00008369,-0.00
 012377,-0.00006602,0.00009255,0.00002253,0.00013497,0.00009006,-0.0000
 9117,-0.00005332,0.00001193,0.00006923,-0.00009020,-0.00008264,-0.0001
 4180,-0.00024854,0.00003358,-0.00010616,0.00035084,-0.00023386,0.00092
 632,-0.00058691,0.00019217,0.00014165,0.00007594,-0.00019970,0.0001678
 1,0.00018468,-0.00005284,-0.00016258,-0.00017271,0.00028809,0.00008904
 ,-0.00004611,-0.00001857,-0.00000529,0.00003021,-0.00004740,-0.0002207
 6,0.00017888,-0.00015419,0.00011162,-0.00003906,-0.00001916,-0.0000141
 8,-0.00002432,0.00004625,-0.00006643,-0.00000820,0.00002671,-0.0000036
 2,0.00000228,0.00002350,0.00002569,-0.00001651,0.00002789,-0.00001198,
 0.00004811,-0.00009161,0.00000013,-0.00001037,0.00001039,0.00000219,-0
 .00000311,0.00001451,-0.00004420,-0.00001763,0.00004454,0.00002002,-0.
 00000289,0.00000147,0.00000544,0.00003075,-0.00005749,0.00005285,-0.00
 001401,0.00002014,-0.00009024,-0.00009287,0.00014974,-0.00000330,-0.00
 036474,0.00011785,0.00002602,-0.00000725,-0.00000797,-0.00001069,-0.00
 000679,-0.00000701,0.00232318,-0.00371836,0.00068790,-0.00470484,0.009
 11007,0.00619971,-0.00345743,0.00232801,-0.00125939,-0.00138799,0.0004
 0994,-0.00080307,-0.00061951,0.00192200,-0.00088368,0.00732573,-0.0030
 0539,-0.00643235,0.00193271,-0.00197078,-0.02986965,0.05515285,-0.0739
 3622,0.06554502,0.00001689,0.00001213,-0.00005197,0.00003355,-0.000012
 72,0.00004396,-0.00005461,0.00000157,-0.00000003,0.00006448,-0.0000385
 7,0.00005535,0.00002136,-0.00001341,0.00003816,-0.00026737,0.00017653,
 -0.00024514,0.00010379,-0.00010500,0.00009704,0.00007468,-0.00003231,0
 .00006741,-0.00020114,0.00005206,-0.00005866,0.00008820,-0.00002185,0.
 00000372,0.00005136,-0.00002958,0.00002651,-0.00017485,0.00004149,-0.0
 0005216,0.00009953,-0.00005222,-0.00021116,0.00000866,0.00002139,0.000
 03123,0.00005531,-0.00001445,0.00004223,0.00013475,-0.00002337,0.00004
 750,0.00018307,0.00014866,-0.00006594,0.00001409,-0.00011782,0.0002209
 8,0.00010343,0.00004626,0.00021287,-0.00010836,-0.00000143,-0.00043302
 ,-0.00000459,0.00006423,0.00000078,-0.00002512,-0.00002887,-0.00001450
 ,0.00001203,0.00000650,-0.00005410,-0.00024784,-0.00007167,0.00013612,
 0.00014311,-0.00000949,-0.00012831,0.00009497,0.00000205,0.00003249,-0
 .00016749,0.00008215,-0.00013423,0.00002383,0.00001629,-0.00000630,0.0
 0001478,-0.00000884,-0.00001306,0.00011894,-0.00001405,0.00002961,-0.0
 0004343,-0.00001112,-0.00001899,-0.00005595,-0.00002095,-0.00001454,-0
 .00006290,0.00001488,-0.00006444,-0.00005495,0.00003922,-0.00000306,0.
 00022091,-0.00007142,0.00025902,-0.00092327,0.00016345,-0.00008696,-0.
 00007746,0.00002705,0.00001679,0.00005543,0.00004066,-0.00003361,-0.00
 111226,0.00067180,0.00114844,0.00046248,-0.00058341,-0.00019165,0.0002
 0981,-0.00030875,-0.00066191,-0.00067438,-0.00017025,-0.00002016,0.000
 07336,0.00001569,0.00012106,0.00000886,-0.00013367,0.00011103,-0.00015
 878,0.00003120,-0.00001721,-0.00008844,0.00003613,-0.00002259,0.000184
 48,0.00006803,-0.00016975,0.00013412,-0.00032017,0.00030583,-0.0001332
 9,0.00006651,0.00004622,0.00013894,0.00011756,-0.00022079,0.00019222,-
 0.00004844,0.00005514,0.00000086,-0.00003587,0.00000301,-0.00017895,0.
 00002529,-0.00001106,0.00023681,-0.00000704,-0.00004216,0.00001162,-0.
 00004900,-0.00001656,0.00002337,0.00004080,0.00002683,0.00018329,-0.00
 004579,0.00004768,-0.00023415,0.00001971,0.00001934,0.00010785,-0.0001
 3848,0.00023860,-0.00020412,0.00004638,-0.00005417,0.00038443,0.000061
 05,-0.00023183,0.00007294,-0.00051390,-0.00058121,-0.00001528,0.000035
 98,0.00001079,-0.00003951,0.00003320,0.00000462,-0.00094891,-0.0008016
 8,0.00065893,-0.00062705,-0.00006629,0.00063004,0.00178298,-0.00054379
 ,0.00054286,0.00238655,0.00127656,-0.00298326,0.00069874,-0.00245372,0
 .00117711,0.00373975,-0.00232474,-0.00138259,-0.02102793,0.03985278,-0
 .00244237,-0.51778870,0.52597727,-0.05764588,0.53293048,-0.00001373,-0
 .00001018,0.00005789,-0.00003695,0.00001320,-0.00004169,0.00007771,0.0
 0000545,0.00000488,-0.00006869,0.00003765,-0.00005400,-0.00002651,0.00
 000695,-0.00003628,0.00040946,-0.00025061,0.00043659,-0.00006501,0.000
 11015,-0.00002116,-0.00007626,0.00002495,-0.00006249,0.00022598,-0.000
 05778,0.00006185,-0.00009223,0.00002705,0.00001612,-0.00005946,0.00002
 906,-0.00002081,0.00019834,-0.00003523,0.00004506,-0.00016473,-0.00002
 706,0.00019364,-0.00001143,-0.00002669,-0.00003218,-0.00006172,0.00001
 162,-0.00003992,-0.00007786,-0.00014304,-0.00002171,-0.00018643,-0.000
 16079,0.00008489,-0.00036292,0.00069678,-0.00054624,-0.00000790,0.0000
 8463,0.00025118,0.00019627,-0.00044686,0.00074747,-0.00000291,-0.00007
 079,0.00000435,0.00003103,0.00003117,0.00001473,-0.00000599,-0.0000119
 9,0.00005532,0.00026060,0.00008790,-0.00015523,-0.00015837,0.00002866,
 0.00013415,-0.00009531,-0.00001808,-0.00003087,0.00018826,-0.00008610,
 0.00013730,-0.00002546,-0.00001779,0.00000973,-0.00001764,0.00000552,0
 .00001811,-0.00013001,0.00001838,-0.00003307,0.00004582,0.00001222,0.0
 0001983,0.00006289,0.00003091,0.00002129,0.00007956,-0.00002466,0.0000
 6325,0.00005708,-0.00004218,-0.00000146,-0.00021890,0.00010255,-0.0003
 5382,0.00104668,-0.00027337,0.00007499,0.00021635,0.00009759,0.0000068
 7,-0.00007638,-0.00005110,0.00003611,0.00093765,-0.00078354,-0.0010930
 1,-0.00029110,0.00078502,0.00012714,-0.00023536,0.00083723,0.00033442,
 0.00078145,0.00013292,-0.00006912,-0.00002311,-0.00003926,-0.00024655,
 0.00004961,0.00017038,-0.00014019,0.00017324,-0.00010634,0.00015098,0.
 00010925,-0.00004923,0.00002256,-0.00019256,-0.00006317,0.00016551,-0.
 00018178,0.00038041,-0.00036251,0.00016584,-0.00007824,-0.00005239,-0.
 00015393,-0.00013018,0.00024503,-0.00021753,0.00005058,-0.00005501,-0.
 00000201,0.00003988,0.00000032,0.00019792,-0.00003048,0.00001720,-0.00
 025903,0.00001568,0.00003045,-0.00001320,0.00005110,0.00001946,-0.0000
 2541,-0.00004497,-0.00002648,-0.00020507,0.00004756,-0.00004562,0.0002
 5705,-0.00002182,-0.00002060,-0.00011783,0.00015354,-0.00026218,0.0002
 2924,-0.00005248,0.00006173,-0.00032838,-0.00019820,0.00039872,0.00023
 301,-0.00028406,0.00044875,0.00002075,-0.00003999,-0.00001249,0.000041
 22,-0.00003535,-0.00000585,-0.00013784,0.00080557,-0.00152873,-0.00117
 044,-0.00157430,0.00143475,-0.00189471,0.00087854,-0.00019874,-0.00154
 605,-0.00101484,0.00343412,0.00112655,-0.00093863,-0.00043701,-0.00371
 489,0.00062753,0.00044860,0.03855343,-0.01946922,-0.00307034,0.5268691
 6,-0.60738456,0.06943535,-0.56008839,0.62765483,-0.00000598,0.00000287
 ,-0.00001162,0.00000813,-0.00000105,-0.00000258,-0.00003112,-0.0000147
 3,-0.00000091,0.00001406,-0.00000880,-0.00000479,0.00000823,0.00000718
 ,-0.00000230,-0.00010493,0.00007732,-0.00008734,0.00000081,-0.00001649
 ,-0.00003790,0.00001588,0.00000182,0.00000498,-0.00003708,0.00000054,0
 .00000274,0.00001430,0.00000012,-0.00001403,0.00001144,0.00000180,-0.0
 0000866,-0.00003812,-0.00000471,0.00001425,-0.00005207,0.00000676,0.00
 002080,0.00000263,0.00000765,0.00000038,0.00001126,0.00000401,-0.00000
 584,0.00002739,0.00003732,0.00000276,0.00001234,0.00000865,-0.00000399
 ,0.00036728,-0.00019667,0.00014764,-0.00033413,0.00004577,-0.00054646,
 -0.00007550,-0.00008599,-0.00005268,0.00000739,0.00000587,-0.00000911,
 -0.00000916,-0.00000399,-0.00000037,-0.00000837,0.00000812,0.00000123,
 -0.00001460,-0.00000823,0.00001537,0.00001160,-0.00001055,-0.00000512,
 0.00001256,0.00000846,-0.00000926,-0.00002573,-0.00000105,0.00000670,0
 .00000603,0.00000219,-0.00000799,0.00000661,0.00000476,-0.00000725,0.0
 0000067,0.00000535,-0.00001174,-0.00000247,-0.00000438,-0.00000275,-0.
 00000263,-0.00000875,0.00000192,-0.00000339,0.00001597,-0.00002690,-0.
 00000036,0.00000218,0.00000917,0.00002906,-0.00002632,0.00005144,-0.00
 007439,0.00004884,-0.00002199,-0.00002476,-0.00003877,-0.00002347,0.00
 004649,0.00001087,-0.00001853,0.00002505,0.00010807,0.00012369,0.00010
 950,0.00008530,-0.00007141,0.00003863,-0.00020379,0.00003795,-0.000306
 71,0.00018991,-0.00002362,-0.00004055,-0.00002388,0.00007457,-0.000040
 15,-0.00006214,0.00001985,0.00002386,0.00004826,-0.00007737,-0.0000327
 7,0.00001554,0.00000242,0.00001957,-0.00000151,-0.00000376,0.00007336,
 -0.00008059,0.00007241,-0.00004350,0.00001748,0.00000992,0.00001772,0.
 00001824,-0.00003460,0.00003788,-0.00000271,-0.00000184,0.00000102,-0.
 00000436,-0.00000609,-0.00002547,0.00000714,-0.00000882,0.00002775,-0.
 00001389,0.00002087,0.00000118,-0.00000216,-0.00000461,0.00000186,0.00
 000508,-0.00000122,0.00003099,-0.00000008,-0.00000744,-0.00002963,0.00
 000281,0.00000156,0.00001010,-0.00002381,0.00004168,-0.00003532,0.0000
 0857,-0.00001106,0.00007870,0.00003469,-0.00005803,-0.00008806,0.00004
 088,-0.00008268,-0.00000869,0.00000559,0.00000327,-0.00000110,0.000005
 27,0.00000245,-0.00103232,0.00119589,0.00031029,0.00080252,-0.00171107
 ,-0.00207796,0.00142261,-0.00073214,0.00056954,0.00006689,-0.00031548,
 0.00008972,-0.00004245,-0.00013734,0.00027403,-0.00116975,0.00055309,0
 .00136753,-0.00376080,0.00298270,0.01194289,-0.05777733,0.06829954,-0.
 03541231,0.06187602,-0.07019298,0.02356240\\-0.00000274,0.00000199,-0.
 00000170,-0.00000329,-0.00000166,0.00000067,0.00000025,0.00000113,-0.0
 0000285,0.00000046,-0.00000053,-0.00000103,-0.00000027,0.00000104,0.00
 000056,0.00000130,0.00000171,0.00000063,0.00000088,0.00000399,-0.00000
 282,-0.00000094,-0.00000215,0.00000281,0.00000157,-0.00000042,-0.00000
 011,-0.00000075,0.00000019,0.00000171,-0.00000046,-0.00000077,0.000001
 13,0.00000181,0.00000031,-0.00000135,0.00000079,-0.00000061,0.00000162
 ,-0.00000085,-0.00000114,0.00000311,-0.00000123,-0.00000119,-0.0000001
 3,-0.00000146,-0.00000944,-0.00000017,-0.00000109,0.00000503,-0.000002
 03,-0.00002059,0.00000071,-0.00000623,0.00001494,0.00001465,0.00001403
 ,-0.00000124,-0.00000035,-0.00000483,-0.00000002,-0.00000496,0.0000036
 8,-0.00000074,-0.00000028,0.00000211,-0.00000383,0.00000114,0.00000269
 ,-0.00000220,-0.00000181,0.00000135,-0.00000179,-0.00000046,-0.0000008
 7,-0.00000295,-0.00000114,-0.00000285,-0.00000182,0.00000055,-0.000000
 59,0.00000003,0.00000046,0.00000219,-0.00000179,-0.00000075,-0.0000003
 9,0.00000559,0.00000025,-0.00000605,0.00000009,-0.00000051,0.00000045,
 0.00000103,0.00000099,-0.00000045,-0.00000992,-0.00000116,0.00000325,0
 .00000020,0.00000010,-0.00000032,0.00001734,0.00000118,-0.00000251,-0.
 00000283,-0.00000648,0.00000532,0.00000365,-0.00000153,0.00000172,0.00
 000059,0.00000787,-0.00000219,-0.00002936,0.00001093,0.00000490,-0.000
 00161,-0.00000755,-0.00001953,0.00002369,-0.00000084,-0.00000315,-0.00
 000137,-0.00000251,0.00000986,0.00000639,-0.00000088,-0.00001447,0.000
 00717,0.00000636,-0.00000016,-0.00000613,-0.00000291,0.00000545,0.0000
 0165,0.00000161,-0.00000175,0.00000093,-0.00000119,0.00000113,-0.00000
 540,0.00000241,-0.00000311,-0.00000007,0.00000033,-0.00000186,0.000003
 44,0.00000104,0.00000467,0.00000332,0.00000019,-0.00000408,-0.00000093
 ,-0.00000105,0.00000317,-0.00000285,-0.00000572,0.00001188,0.00000179,
 0.00000532,-0.00001621,0.00000138,-0.00000239,0.00000302,0.00000164,-0
 .00000116,0.00000270,-0.00000392,0.00000245,-0.00000525,-0.00000130,-0
 .00000337,0.00000577,0.00001166,-0.00000100,-0.00000213,-0.00000127,-0
 .00000284,0.00000649,-0.00000581,0.00000391,-0.00000320,0.00000990,-0.
 00001541,-0.00001127,-0.00000010,-0.00000023,0.00000079,0.00000006,-0.
 00000156,0.00000161,0.00000343,-0.00000833,-0.00000471,0.00000030,-0.0
 0000042,0.00000461,-0.00003098,-0.00000162,0.00000397,0.00004405,0.000
 02892,0.00003059,-0.00001557,-0.00000065,-0.00002307,-0.00002112,0.000
 00134,-0.00000766,0.00000864,-0.00002037,0.00002337,0.00000678,0.00001
 109,-0.00000750,0.00000382,0.00000021,-0.00000444\\\@
 The archive entry for this job was punched.


 Any fool can criticize, condemn, and complain -- and most do.
 -- Dale Carnegie
 Job cpu time:       9 days 15 hours 52 minutes 55.3 seconds.
 Elapsed time:       0 days  4 hours 50 minutes 37.5 seconds.
 File lengths (MBytes):  RWF=  20864 Int=      0 D2E=      0 Chk=    179 Scr=      2
 Normal termination of Gaussian 16 at Fri Mar  3 23:30:35 2023.
