 Entering Gaussian System, Link 0=/apps/GAU16/avx2/g16/g16
 Initial command:
 /apps/GAU16/avx2//g16/l1.exe "/localscratch/chemadh/Gau-107718.inp" -scrdir="/localscratch/chemadh/"
 Entering Link 1 = /apps/GAU16/avx2//g16/l1.exe PID=    107719.
  
 Copyright (c) 1988-2019, Gaussian, Inc.  All Rights Reserved.
  
 This is part of the Gaussian(R) 16 program.  It is based on
 the Gaussian(R) 09 system (copyright 2009, Gaussian, Inc.),
 the Gaussian(R) 03 system (copyright 2003, Gaussian, Inc.),
 the Gaussian(R) 98 system (copyright 1998, Gaussian, Inc.),
 the Gaussian(R) 94 system (copyright 1995, Gaussian, Inc.),
 the Gaussian 92(TM) system (copyright 1992, Gaussian, Inc.),
 the Gaussian 90(TM) system (copyright 1990, Gaussian, Inc.),
 the Gaussian 88(TM) system (copyright 1988, Gaussian, Inc.),
 the Gaussian 86(TM) system (copyright 1986, Carnegie Mellon
 University), and the Gaussian 82(TM) system (copyright 1983,
 Carnegie Mellon University). Gaussian is a federally registered
 trademark of Gaussian, Inc.
  
 This software contains proprietary and confidential information,
 including trade secrets, belonging to Gaussian, Inc.
  
 This software is provided under written license and may be
 used, copied, transmitted, or stored only in accord with that
 written license.
  
 The following legend is applicable only to US Government
 contracts under FAR:
  
                    RESTRICTED RIGHTS LEGEND
  
 Use, reproduction and disclosure by the US Government is
 subject to restrictions as set forth in subparagraphs (a)
 and (c) of the Commercial Computer Software - Restricted
 Rights clause in FAR 52.227-19.
  
 Gaussian, Inc.
 340 Quinnipiac St., Bldg. 40, Wallingford CT 06492
  
  
 ---------------------------------------------------------------
 Warning -- This program may not be used in any manner that
 competes with the business of Gaussian, Inc. or will provide
 assistance to any competitor of Gaussian, Inc.  The licensee
 of this program is prohibited from giving any competitor of
 Gaussian, Inc. access to this program.  By using this program,
 the user acknowledges that Gaussian, Inc. is engaged in the
 business of creating and licensing software in the field of
 computational chemistry and represents and warrants to the
 licensee that it is not a competitor of Gaussian, Inc. and that
 it will not use this program in any manner prohibited above.
 ---------------------------------------------------------------
  

 Cite this work as:
 Gaussian 16, Revision C.01,
 M. J. Frisch, G. W. Trucks, H. B. Schlegel, G. E. Scuseria, 
 M. A. Robb, J. R. Cheeseman, G. Scalmani, V. Barone, 
 G. A. Petersson, H. Nakatsuji, X. Li, M. Caricato, A. V. Marenich, 
 J. Bloino, B. G. Janesko, R. Gomperts, B. Mennucci, H. P. Hratchian, 
 J. V. Ortiz, A. F. Izmaylov, J. L. Sonnenberg, D. Williams-Young, 
 F. Ding, F. Lipparini, F. Egidi, J. Goings, B. Peng, A. Petrone, 
 T. Henderson, D. Ranasinghe, V. G. Zakrzewski, J. Gao, N. Rega, 
 G. Zheng, W. Liang, M. Hada, M. Ehara, K. Toyota, R. Fukuda, 
 J. Hasegawa, M. Ishida, T. Nakajima, Y. Honda, O. Kitao, H. Nakai, 
 T. Vreven, K. Throssell, J. A. Montgomery, Jr., J. E. Peralta, 
 F. Ogliaro, M. J. Bearpark, J. J. Heyd, E. N. Brothers, K. N. Kudin, 
 V. N. Staroverov, T. A. Keith, R. Kobayashi, J. Normand, 
 K. Raghavachari, A. P. Rendell, J. C. Burant, S. S. Iyengar, 
 J. Tomasi, M. Cossi, J. M. Millam, M. Klene, C. Adamo, R. Cammi, 
 J. W. Ochterski, R. L. Martin, K. Morokuma, O. Farkas, 
 J. B. Foresman, and D. J. Fox, Gaussian, Inc., Wallingford CT, 2019.
 
 ******************************************
 Gaussian 16:  ES64L-G16RevC.01  3-Jul-2019
                 7-Mar-2023 
 ******************************************
 %nprocshared=48
 Will use up to   48 processors via shared memory.
 %chk=Mo19S45_Szz_Mo_H2S.chk
 %mem=100GB
 ----------------------------------------------------------
 # opt freq b3lyp/gen nosymm pseudo=read scf=maxcycles=1000
 ----------------------------------------------------------
 1/18=20,19=15,26=3,38=1/1,3;
 2/9=110,12=2,15=1,17=6,18=5,40=1/2;
 3/5=7,11=2,16=1,17=8,25=1,30=1,71=1,74=-5/1,2,3;
 4//1;
 5/5=2,7=1000,38=5/2;
 6/7=2,8=2,9=2,10=2,28=1/1;
 7/30=1/1,2,3,16;
 1/18=20,19=15,26=3/3(2);
 2/9=110,15=1/2;
 99//99;
 2/9=110,15=1/2;
 3/5=7,6=1,11=2,16=1,17=8,25=1,30=1,71=1,74=-5,82=7/1,2,3;
 4/5=5,16=3,69=1/1;
 5/5=2,7=1000,38=5/2;
 7/30=1/1,2,3,16;
 1/18=20,19=15,26=3/3(-5);
 2/9=110,15=1/2;
 6/7=2,8=2,9=2,10=2,19=2,28=1/1;
 99/9=1/99;
 -------------------
 Title Card Required
 -------------------
 Symbolic Z-matrix:
 Charge =  0 Multiplicity = 1
 42                    0.32776   1.33762   12.58623 
 16                    2.24802   2.47002   13.58742 
 16                   -0.84928   1.94743   14.71782 
 16                   -0.34724   0.82899   10.32264 
 16                    2.05521  -0.34656   12.17526 
 42                   -2.00626   2.5429    10.80474 
 16                   -2.67588   2.04125   8.52192 
 16                   -0.08882   3.59422   11.83982 
 42                    1.03085   2.78355   9.81596 
 16                    0.31967   2.30555   7.51985 
 16                    2.71854   1.07127   9.37124 
 42                    3.4252    1.58338   11.64576 
 42                   -1.32696   4.00459   8.02503 
 16                    5.44888   2.76835   12.65968 
 16                    3.00636   3.83055   10.80537 
 16                   -2.39817   4.82221   10.04886 
 16                    1.14947   6.59806   6.22703 
 42                   -4.27772   3.74811   9.02653 
 16                   -5.76262   1.84308   9.56832 
 16                   -5.47677   4.55139   11.03955 
 42                    2.62618   0.2797    14.43336 
 16                    4.80165   0.88054   15.54012 
 16                    1.56099   0.89679   16.37583 
 42                    1.68003   4.24005   7.03816 
 16                    1.01763   3.96563   4.63183 
 16                    0.61284   5.06439   9.04272 
 42                    4.10412   2.99056   8.79904 
 16                    3.29207   2.46561   6.56158 
 16                    3.69109   5.24472   8.00473 
 42                    4.62325   4.34553   5.97004 
 16                    7.03165   4.89838   6.29748 
 16                    4.37943   6.79195   5.32706 
 42                    2.53809   5.95045   4.37513 
 16                    4.00472   4.03573   3.77723 
 16                   -1.34434   6.52927   3.49099 
 42                   -0.84692   5.48995   5.26299 
 16                   -2.07438   3.48637   5.62901 
 16                   -1.83074   6.3887    7.23381 
 42                   -3.66214   5.22203   6.19468 
 16                   -5.06318   3.30881   6.71609 
 16                   -4.80371   6.17407   4.6606 
 42                   -5.03261   2.30075   11.83919 
 16                   -3.17327   3.41122   12.91734 
 16                   -3.50042   0.52359   11.30007 
 42                   -2.8663    1.12797   13.51099 
 16                   -1.18847  -0.6481    13.09508 
 16                   -4.16837   0.41147   15.01396 
 42                   -0.24193  -0.42475   15.29297 
 16                    1.38474  -1.89697   14.85579 
 16                   -1.39252  -1.30397   16.84098 
 42                    5.9086    0.56685   13.34238 
 16                    5.1727   -0.21886   11.23755 
 16                    8.48465   1.43067   10.92373 
 42                    6.40327   1.80769   10.61475 
 16                    5.79351   1.13126   8.33712 
 16                    6.17487   4.09886   9.77459 
 42                    7.15663   3.00113   7.92487 
 16                    9.24505   2.66388   7.97758 
 16                    2.24709   7.09183   2.6128 
 16                    7.91018   0.16117   13.8964 
 16                   -6.81274   1.88411   12.94346 
 16                   -4.79444   6.01712   8.19224 
 16                    4.68469  -1.08485   14.76967 
 16                    6.67609   2.97629   5.49147 
 42                   -7.43828   3.62069   9.86489 
 16                   -7.97585   2.8008    7.6425 
 16                   -9.68227   3.54566   10.40878 
 42                   -6.82601   4.91724   7.33923 
 16                   -7.65832   5.98472   9.3573 
 16                   -8.65503   5.72099   6.18013 
 42                   -9.35345   4.66888   8.26838 
 16                   -11.34535   3.36931   7.11396 
 1                    -12.35506   3.38845   8.01059 
 1                    -11.93186   4.26727   6.29331 
 

 GradGradGradGradGradGradGradGradGradGradGradGradGradGradGradGradGradGrad
 Berny optimization.
 Initialization pass.
                           ----------------------------
                           !    Initial Parameters    !
                           ! (Angstroms and Degrees)  !
 --------------------------                            --------------------------
 ! Name  Definition              Value          Derivative Info.                !
 --------------------------------------------------------------------------------
 ! R1    R(1,2)                  2.4438         estimate D2E/DX2                !
 ! R2    R(1,3)                  2.5102         estimate D2E/DX2                !
 ! R3    R(1,4)                  2.4162         estimate D2E/DX2                !
 ! R4    R(1,5)                  2.4473         estimate D2E/DX2                !
 ! R5    R(1,8)                  2.4131         estimate D2E/DX2                !
 ! R6    R(1,46)                 2.5497         estimate D2E/DX2                !
 ! R7    R(2,12)                 2.4376         estimate D2E/DX2                !
 ! R8    R(2,21)                 2.3783         estimate D2E/DX2                !
 ! R9    R(3,45)                 2.4892         estimate D2E/DX2                !
 ! R10   R(3,48)                 2.5153         estimate D2E/DX2                !
 ! R11   R(4,6)                  2.4336         estimate D2E/DX2                !
 ! R12   R(4,9)                  2.4446         estimate D2E/DX2                !
 ! R13   R(5,12)                 2.4253         estimate D2E/DX2                !
 ! R14   R(5,21)                 2.4119         estimate D2E/DX2                !
 ! R15   R(6,7)                  2.4313         estimate D2E/DX2                !
 ! R16   R(6,8)                  2.4193         estimate D2E/DX2                !
 ! R17   R(6,16)                 2.4331         estimate D2E/DX2                !
 ! R18   R(6,43)                 2.565          estimate D2E/DX2                !
 ! R19   R(6,44)                 2.5604         estimate D2E/DX2                !
 ! R20   R(7,13)                 2.4334         estimate D2E/DX2                !
 ! R21   R(7,18)                 2.3946         estimate D2E/DX2                !
 ! R22   R(8,9)                  2.4509         estimate D2E/DX2                !
 ! R23   R(9,10)                 2.4508         estimate D2E/DX2                !
 ! R24   R(9,11)                 2.445          estimate D2E/DX2                !
 ! R25   R(9,15)                 2.445          estimate D2E/DX2                !
 ! R26   R(9,26)                 2.4444         estimate D2E/DX2                !
 ! R27   R(10,13)                2.4194         estimate D2E/DX2                !
 ! R28   R(10,24)                2.4135         estimate D2E/DX2                !
 ! R29   R(11,12)                2.4362         estimate D2E/DX2                !
 ! R30   R(11,27)                2.4354         estimate D2E/DX2                !
 ! R31   R(12,14)                2.5549         estimate D2E/DX2                !
 ! R32   R(12,15)                2.4355         estimate D2E/DX2                !
 ! R33   R(12,52)                2.5433         estimate D2E/DX2                !
 ! R34   R(13,16)                2.4314         estimate D2E/DX2                !
 ! R35   R(13,26)                2.4335         estimate D2E/DX2                !
 ! R36   R(13,37)                2.5628         estimate D2E/DX2                !
 ! R37   R(13,38)                2.562          estimate D2E/DX2                !
 ! R38   R(14,51)                2.3503         estimate D2E/DX2                !
 ! R39   R(14,54)                2.4526         estimate D2E/DX2                !
 ! R40   R(15,27)                2.4364         estimate D2E/DX2                !
 ! R41   R(16,18)                2.3941         estimate D2E/DX2                !
 ! R42   R(17,24)                2.5494         estimate D2E/DX2                !
 ! R43   R(17,33)                2.4036         estimate D2E/DX2                !
 ! R44   R(17,36)                2.4785         estimate D2E/DX2                !
 ! R45   R(18,19)                2.4754         estimate D2E/DX2                !
 ! R46   R(18,20)                2.4769         estimate D2E/DX2                !
 ! R47   R(18,40)                2.4795         estimate D2E/DX2                !
 ! R48   R(18,62)                2.4721         estimate D2E/DX2                !
 ! R49   R(19,42)                2.4288         estimate D2E/DX2                !
 ! R50   R(19,65)                2.4608         estimate D2E/DX2                !
 ! R51   R(20,42)                2.4294         estimate D2E/DX2                !
 ! R52   R(20,65)                2.4685         estimate D2E/DX2                !
 ! R53   R(21,22)                2.5137         estimate D2E/DX2                !
 ! R54   R(21,23)                2.2997         estimate D2E/DX2                !
 ! R55   R(21,48)                3.0759         estimate D2E/DX2                !
 ! R56   R(21,49)                2.5412         estimate D2E/DX2                !
 ! R57   R(21,63)                2.4925         estimate D2E/DX2                !
 ! R58   R(22,51)                2.4807         estimate D2E/DX2                !
 ! R59   R(22,63)                2.1142         estimate D2E/DX2                !
 ! R60   R(23,48)                2.4839         estimate D2E/DX2                !
 ! R61   R(24,25)                2.5109         estimate D2E/DX2                !
 ! R62   R(24,26)                2.4159         estimate D2E/DX2                !
 ! R63   R(24,28)                2.4443         estimate D2E/DX2                !
 ! R64   R(24,29)                2.447          estimate D2E/DX2                !
 ! R65   R(25,33)                2.5134         estimate D2E/DX2                !
 ! R66   R(25,36)                2.4897         estimate D2E/DX2                !
 ! R67   R(27,28)                2.4375         estimate D2E/DX2                !
 ! R68   R(27,29)                2.4254         estimate D2E/DX2                !
 ! R69   R(27,55)                2.5543         estimate D2E/DX2                !
 ! R70   R(27,56)                2.5432         estimate D2E/DX2                !
 ! R71   R(28,30)                2.3782         estimate D2E/DX2                !
 ! R72   R(29,30)                2.4119         estimate D2E/DX2                !
 ! R73   R(30,31)                2.4926         estimate D2E/DX2                !
 ! R74   R(30,32)                2.5412         estimate D2E/DX2                !
 ! R75   R(30,33)                3.0769         estimate D2E/DX2                !
 ! R76   R(30,34)                2.2993         estimate D2E/DX2                !
 ! R77   R(30,64)                2.5136         estimate D2E/DX2                !
 ! R78   R(31,57)                2.5027         estimate D2E/DX2                !
 ! R79   R(31,64)                2.1144         estimate D2E/DX2                !
 ! R80   R(32,33)                2.2372         estimate D2E/DX2                !
 ! R81   R(33,34)                2.4849         estimate D2E/DX2                !
 ! R82   R(33,59)                2.1197         estimate D2E/DX2                !
 ! R83   R(35,36)                2.1137         estimate D2E/DX2                !
 ! R84   R(36,37)                2.378          estimate D2E/DX2                !
 ! R85   R(36,38)                2.379          estimate D2E/DX2                !
 ! R86   R(36,39)                2.9775         estimate D2E/DX2                !
 ! R87   R(37,39)                2.4194         estimate D2E/DX2                !
 ! R88   R(38,39)                2.4073         estimate D2E/DX2                !
 ! R89   R(39,40)                2.428          estimate D2E/DX2                !
 ! R90   R(39,41)                2.1361         estimate D2E/DX2                !
 ! R91   R(39,62)                2.4299         estimate D2E/DX2                !
 ! R92   R(40,68)                2.4664         estimate D2E/DX2                !
 ! R93   R(42,43)                2.4192         estimate D2E/DX2                !
 ! R94   R(42,44)                2.4076         estimate D2E/DX2                !
 ! R95   R(42,45)                2.9771         estimate D2E/DX2                !
 ! R96   R(42,61)                2.1359         estimate D2E/DX2                !
 ! R97   R(43,45)                2.3791         estimate D2E/DX2                !
 ! R98   R(44,45)                2.3781         estimate D2E/DX2                !
 ! R99   R(45,46)                2.4784         estimate D2E/DX2                !
 ! R100  R(45,47)                2.1137         estimate D2E/DX2                !
 ! R101  R(46,48)                2.4034         estimate D2E/DX2                !
 ! R102  R(48,49)                2.2371         estimate D2E/DX2                !
 ! R103  R(48,50)                2.1197         estimate D2E/DX2                !
 ! R104  R(51,52)                2.3641         estimate D2E/DX2                !
 ! R105  R(51,54)                3.0372         estimate D2E/DX2                !
 ! R106  R(51,60)                2.1161         estimate D2E/DX2                !
 ! R107  R(51,63)                2.5026         estimate D2E/DX2                !
 ! R108  R(52,54)                2.4513         estimate D2E/DX2                !
 ! R109  R(53,54)                2.1377         estimate D2E/DX2                !
 ! R110  R(54,55)                2.4529         estimate D2E/DX2                !
 ! R111  R(54,56)                2.451          estimate D2E/DX2                !
 ! R112  R(54,57)                3.0376         estimate D2E/DX2                !
 ! R113  R(55,57)                2.3504         estimate D2E/DX2                !
 ! R114  R(56,57)                2.3644         estimate D2E/DX2                !
 ! R115  R(57,58)                2.1161         estimate D2E/DX2                !
 ! R116  R(57,64)                2.4805         estimate D2E/DX2                !
 ! R117  R(62,68)                2.4626         estimate D2E/DX2                !
 ! R118  R(65,66)                2.429          estimate D2E/DX2                !
 ! R119  R(65,67)                2.3102         estimate D2E/DX2                !
 ! R120  R(65,68)                2.9043         estimate D2E/DX2                !
 ! R121  R(65,69)                2.4279         estimate D2E/DX2                !
 ! R122  R(65,71)                2.7047         estimate D2E/DX2                !
 ! R123  R(66,68)                2.4276         estimate D2E/DX2                !
 ! R124  R(66,71)                2.404          estimate D2E/DX2                !
 ! R125  R(67,71)                2.4395         estimate D2E/DX2                !
 ! R126  R(68,69)                2.43           estimate D2E/DX2                !
 ! R127  R(68,70)                2.3097         estimate D2E/DX2                !
 ! R128  R(68,71)                2.7043         estimate D2E/DX2                !
 ! R129  R(69,71)                2.4064         estimate D2E/DX2                !
 ! R130  R(70,71)                2.4404         estimate D2E/DX2                !
 ! R131  R(71,72)                2.6437         estimate D2E/DX2                !
 ! R132  R(72,73)                1.3505         estimate D2E/DX2                !
 ! R133  R(72,74)                1.3505         estimate D2E/DX2                !
 ! A1    A(2,1,3)               84.7204         estimate D2E/DX2                !
 ! A2    A(2,1,4)              134.4963         estimate D2E/DX2                !
 ! A3    A(2,1,5)               80.3891         estimate D2E/DX2                !
 ! A4    A(2,1,8)               80.1565         estimate D2E/DX2                !
 ! A5    A(2,1,46)             138.2791         estimate D2E/DX2                !
 ! A6    A(3,1,4)              135.699          estimate D2E/DX2                !
 ! A7    A(3,1,5)              129.8484         estimate D2E/DX2                !
 ! A8    A(3,1,8)               87.3942         estimate D2E/DX2                !
 ! A9    A(3,1,46)              74.9822         estimate D2E/DX2                !
 ! A10   A(4,1,5)               83.9733         estimate D2E/DX2                !
 ! A11   A(4,1,8)               81.8854         estimate D2E/DX2                !
 ! A12   A(4,1,46)              81.7725         estimate D2E/DX2                !
 ! A13   A(5,1,8)              135.5169         estimate D2E/DX2                !
 ! A14   A(5,1,46)              85.257          estimate D2E/DX2                !
 ! A15   A(8,1,46)             133.4227         estimate D2E/DX2                !
 ! A16   A(1,2,12)              83.3724         estimate D2E/DX2                !
 ! A17   A(1,2,21)              81.0199         estimate D2E/DX2                !
 ! A18   A(12,2,21)             82.6198         estimate D2E/DX2                !
 ! A19   A(1,3,45)              83.5855         estimate D2E/DX2                !
 ! A20   A(1,3,48)              81.4796         estimate D2E/DX2                !
 ! A21   A(45,3,48)             89.7734         estimate D2E/DX2                !
 ! A22   A(1,4,6)               81.7555         estimate D2E/DX2                !
 ! A23   A(1,4,9)               82.437          estimate D2E/DX2                !
 ! A24   A(6,4,9)               82.0834         estimate D2E/DX2                !
 ! A25   A(1,5,12)              83.5557         estimate D2E/DX2                !
 ! A26   A(1,5,21)              80.2815         estimate D2E/DX2                !
 ! A27   A(12,5,21)             82.1868         estimate D2E/DX2                !
 ! A28   A(4,6,7)               81.746          estimate D2E/DX2                !
 ! A29   A(4,6,8)               81.4022         estimate D2E/DX2                !
 ! A30   A(4,6,16)             135.0736         estimate D2E/DX2                !
 ! A31   A(4,6,43)             135.3783         estimate D2E/DX2                !
 ! A32   A(4,6,44)              83.1488         estimate D2E/DX2                !
 ! A33   A(7,6,8)              135.2058         estimate D2E/DX2                !
 ! A34   A(7,6,16)              81.7922         estimate D2E/DX2                !
 ! A35   A(7,6,43)             135.8793         estimate D2E/DX2                !
 ! A36   A(7,6,44)              81.8474         estimate D2E/DX2                !
 ! A37   A(8,6,16)              81.5757         estimate D2E/DX2                !
 ! A38   A(8,6,43)              82.0161         estimate D2E/DX2                !
 ! A39   A(8,6,44)             136.2576         estimate D2E/DX2                !
 ! A40   A(16,6,43)             82.268          estimate D2E/DX2                !
 ! A41   A(16,6,44)            134.8229         estimate D2E/DX2                !
 ! A42   A(43,6,44)             80.917          estimate D2E/DX2                !
 ! A43   A(6,7,13)              82.6793         estimate D2E/DX2                !
 ! A44   A(6,7,18)              80.7529         estimate D2E/DX2                !
 ! A45   A(13,7,18)             80.7198         estimate D2E/DX2                !
 ! A46   A(1,8,6)               82.1136         estimate D2E/DX2                !
 ! A47   A(1,8,9)               82.3709         estimate D2E/DX2                !
 ! A48   A(6,8,9)               82.2439         estimate D2E/DX2                !
 ! A49   A(4,9,8)               80.5478         estimate D2E/DX2                !
 ! A50   A(4,9,10)              82.7995         estimate D2E/DX2                !
 ! A51   A(4,9,11)              82.3505         estimate D2E/DX2                !
 ! A52   A(4,9,15)             135.5612         estimate D2E/DX2                !
 ! A53   A(4,9,26)             135.6607         estimate D2E/DX2                !
 ! A54   A(8,9,10)             134.8772         estimate D2E/DX2                !
 ! A55   A(8,9,11)             134.2015         estimate D2E/DX2                !
 ! A56   A(8,9,15)              83.8758         estimate D2E/DX2                !
 ! A57   A(8,9,26)              82.7877         estimate D2E/DX2                !
 ! A58   A(10,9,11)             83.8753         estimate D2E/DX2                !
 ! A59   A(10,9,15)            134.1967         estimate D2E/DX2                !
 ! A60   A(10,9,26)             80.5607         estimate D2E/DX2                !
 ! A61   A(11,9,15)             79.384          estimate D2E/DX2                !
 ! A62   A(11,9,26)            135.5595         estimate D2E/DX2                !
 ! A63   A(15,9,26)             82.3341         estimate D2E/DX2                !
 ! A64   A(9,10,13)             82.2357         estimate D2E/DX2                !
 ! A65   A(9,10,24)             82.3623         estimate D2E/DX2                !
 ! A66   A(13,10,24)            82.091          estimate D2E/DX2                !
 ! A67   A(9,11,12)             83.2921         estimate D2E/DX2                !
 ! A68   A(9,11,27)             83.3121         estimate D2E/DX2                !
 ! A69   A(12,11,27)            83.608          estimate D2E/DX2                !
 ! A70   A(2,12,5)              80.9525         estimate D2E/DX2                !
 ! A71   A(2,12,11)            132.8484         estimate D2E/DX2                !
 ! A72   A(2,12,14)             84.1284         estimate D2E/DX2                !
 ! A73   A(2,12,15)             81.7317         estimate D2E/DX2                !
 ! A74   A(2,12,52)            135.8411         estimate D2E/DX2                !
 ! A75   A(5,12,11)             82.6871         estimate D2E/DX2                !
 ! A76   A(5,12,14)            136.8753         estimate D2E/DX2                !
 ! A77   A(5,12,15)            135.4337         estimate D2E/DX2                !
 ! A78   A(5,12,52)             81.9104         estimate D2E/DX2                !
 ! A79   A(11,12,14)           134.2481         estimate D2E/DX2                !
 ! A80   A(11,12,15)            79.7414         estimate D2E/DX2                !
 ! A81   A(11,12,52)            84.2896         estimate D2E/DX2                !
 ! A82   A(14,12,15)            81.0951         estimate D2E/DX2                !
 ! A83   A(14,12,52)            81.2641         estimate D2E/DX2                !
 ! A84   A(15,12,52)           135.7754         estimate D2E/DX2                !
 ! A85   A(7,13,10)             81.5646         estimate D2E/DX2                !
 ! A86   A(7,13,16)             81.7855         estimate D2E/DX2                !
 ! A87   A(7,13,26)            135.0631         estimate D2E/DX2                !
 ! A88   A(7,13,37)             82.3044         estimate D2E/DX2                !
 ! A89   A(7,13,38)            134.8201         estimate D2E/DX2                !
 ! A90   A(10,13,16)           135.2192         estimate D2E/DX2                !
 ! A91   A(10,13,26)            81.4102         estimate D2E/DX2                !
 ! A92   A(10,13,37)            82.0256         estimate D2E/DX2                !
 ! A93   A(10,13,38)           136.2907         estimate D2E/DX2                !
 ! A94   A(16,13,26)            81.758          estimate D2E/DX2                !
 ! A95   A(16,13,37)           135.8641         estimate D2E/DX2                !
 ! A96   A(16,13,38)            81.8077         estimate D2E/DX2                !
 ! A97   A(26,13,37)           135.3595         estimate D2E/DX2                !
 ! A98   A(26,13,38)            83.1442         estimate D2E/DX2                !
 ! A99   A(37,13,38)            80.9145         estimate D2E/DX2                !
 ! A100  A(12,14,51)            80.5472         estimate D2E/DX2                !
 ! A101  A(12,14,54)            78.2096         estimate D2E/DX2                !
 ! A102  A(9,15,12)             83.308          estimate D2E/DX2                !
 ! A103  A(9,15,27)             83.2909         estimate D2E/DX2                !
 ! A104  A(12,15,27)            83.6015         estimate D2E/DX2                !
 ! A105  A(6,16,13)             82.6811         estimate D2E/DX2                !
 ! A106  A(6,16,18)             80.7252         estimate D2E/DX2                !
 ! A107  A(13,16,18)            80.7686         estimate D2E/DX2                !
 ! A108  A(24,17,33)            82.8598         estimate D2E/DX2                !
 ! A109  A(24,17,36)            82.9843         estimate D2E/DX2                !
 ! A110  A(33,17,36)            92.5911         estimate D2E/DX2                !
 ! A111  A(7,18,16)             83.3736         estimate D2E/DX2                !
 ! A112  A(7,18,19)             84.1939         estimate D2E/DX2                !
 ! A113  A(7,18,20)            136.5737         estimate D2E/DX2                !
 ! A114  A(7,18,40)             83.6421         estimate D2E/DX2                !
 ! A115  A(7,18,62)            136.2982         estimate D2E/DX2                !
 ! A116  A(16,18,19)           136.2827         estimate D2E/DX2                !
 ! A117  A(16,18,20)            83.5408         estimate D2E/DX2                !
 ! A118  A(16,18,40)           136.5595         estimate D2E/DX2                !
 ! A119  A(16,18,62)            84.0548         estimate D2E/DX2                !
 ! A120  A(19,18,20)            77.3683         estimate D2E/DX2                !
 ! A121  A(19,18,40)            82.9679         estimate D2E/DX2                !
 ! A122  A(19,18,62)           130.9068         estimate D2E/DX2                !
 ! A123  A(20,18,40)           131.4061         estimate D2E/DX2                !
 ! A124  A(20,18,62)            82.8441         estimate D2E/DX2                !
 ! A125  A(40,18,62)            77.4045         estimate D2E/DX2                !
 ! A126  A(18,19,42)            83.0688         estimate D2E/DX2                !
 ! A127  A(18,19,65)            83.0457         estimate D2E/DX2                !
 ! A128  A(42,19,65)            87.4707         estimate D2E/DX2                !
 ! A129  A(18,20,42)            83.0245         estimate D2E/DX2                !
 ! A130  A(18,20,65)            82.8572         estimate D2E/DX2                !
 ! A131  A(42,20,65)            87.2845         estimate D2E/DX2                !
 ! A132  A(2,21,5)              82.4424         estimate D2E/DX2                !
 ! A133  A(2,21,22)             94.2488         estimate D2E/DX2                !
 ! A134  A(2,21,23)             88.8349         estimate D2E/DX2                !
 ! A135  A(2,21,48)             99.3265         estimate D2E/DX2                !
 ! A136  A(2,21,49)            140.3828         estimate D2E/DX2                !
 ! A137  A(2,21,63)            133.119          estimate D2E/DX2                !
 ! A138  A(5,21,22)            132.7782         estimate D2E/DX2                !
 ! A139  A(5,21,23)            138.6621         estimate D2E/DX2                !
 ! A140  A(5,21,48)             88.9365         estimate D2E/DX2                !
 ! A141  A(5,21,49)             79.4887         estimate D2E/DX2                !
 ! A142  A(5,21,63)            100.3513         estimate D2E/DX2                !
 ! A143  A(22,21,23)            87.9844         estimate D2E/DX2                !
 ! A144  A(22,21,48)           137.6192         estimate D2E/DX2                !
 ! A145  A(22,21,49)           123.6662         estimate D2E/DX2                !
 ! A146  A(23,21,49)            82.1344         estimate D2E/DX2                !
 ! A147  A(23,21,63)           114.549          estimate D2E/DX2                !
 ! A148  A(48,21,63)           127.3728         estimate D2E/DX2                !
 ! A149  A(49,21,63)            84.9574         estimate D2E/DX2                !
 ! A150  A(21,22,51)            88.0454         estimate D2E/DX2                !
 ! A151  A(10,24,17)           133.4366         estimate D2E/DX2                !
 ! A152  A(10,24,25)            87.4191         estimate D2E/DX2                !
 ! A153  A(10,24,26)            81.8894         estimate D2E/DX2                !
 ! A154  A(10,24,28)            80.1407         estimate D2E/DX2                !
 ! A155  A(10,24,29)           135.5188         estimate D2E/DX2                !
 ! A156  A(17,24,25)            75.0053         estimate D2E/DX2                !
 ! A157  A(17,24,26)            81.7478         estimate D2E/DX2                !
 ! A158  A(17,24,28)           138.3022         estimate D2E/DX2                !
 ! A159  A(17,24,29)            85.237          estimate D2E/DX2                !
 ! A160  A(25,24,26)           135.7201         estimate D2E/DX2                !
 ! A161  A(25,24,28)            84.7089         estimate D2E/DX2                !
 ! A162  A(25,24,29)           129.8091         estimate D2E/DX2                !
 ! A163  A(26,24,28)           134.4927         estimate D2E/DX2                !
 ! A164  A(26,24,29)            83.9843         estimate D2E/DX2                !
 ! A165  A(28,24,29)            80.3898         estimate D2E/DX2                !
 ! A166  A(24,25,33)            81.4878         estimate D2E/DX2                !
 ! A167  A(24,25,36)            83.5521         estimate D2E/DX2                !
 ! A168  A(33,25,36)            89.7388         estimate D2E/DX2                !
 ! A169  A(9,26,13)             82.0813         estimate D2E/DX2                !
 ! A170  A(9,26,24)             82.4462         estimate D2E/DX2                !
 ! A171  A(13,26,24)            81.7506         estimate D2E/DX2                !
 ! A172  A(11,27,15)            79.7396         estimate D2E/DX2                !
 ! A173  A(11,27,28)            81.7438         estimate D2E/DX2                !
 ! A174  A(11,27,29)           135.4389         estimate D2E/DX2                !
 ! A175  A(11,27,55)            81.0903         estimate D2E/DX2                !
 ! A176  A(11,27,56)           135.7712         estimate D2E/DX2                !
 ! A177  A(15,27,28)           132.8482         estimate D2E/DX2                !
 ! A178  A(15,27,29)            82.6769         estimate D2E/DX2                !
 ! A179  A(15,27,55)           134.257          estimate D2E/DX2                !
 ! A180  A(15,27,56)            84.3032         estimate D2E/DX2                !
 ! A181  A(28,27,29)            80.9561         estimate D2E/DX2                !
 ! A182  A(28,27,55)            84.1212         estimate D2E/DX2                !
 ! A183  A(28,27,56)           135.826          estimate D2E/DX2                !
 ! A184  A(29,27,55)           136.8793         estimate D2E/DX2                !
 ! A185  A(29,27,56)            81.9096         estimate D2E/DX2                !
 ! A186  A(55,27,56)            81.2607         estimate D2E/DX2                !
 ! A187  A(24,28,27)            83.3612         estimate D2E/DX2                !
 ! A188  A(24,28,30)            81.0139         estimate D2E/DX2                !
 ! A189  A(27,28,30)            82.623          estimate D2E/DX2                !
 ! A190  A(24,29,27)            83.5541         estimate D2E/DX2                !
 ! A191  A(24,29,30)            80.2901         estimate D2E/DX2                !
 ! A192  A(27,29,30)            82.1819         estimate D2E/DX2                !
 ! A193  A(28,30,29)            82.4463         estimate D2E/DX2                !
 ! A194  A(28,30,31)           133.1146         estimate D2E/DX2                !
 ! A195  A(28,30,32)           140.3724         estimate D2E/DX2                !
 ! A196  A(28,30,33)            99.3183         estimate D2E/DX2                !
 ! A197  A(28,30,34)            88.8616         estimate D2E/DX2                !
 ! A198  A(28,30,64)            94.2377         estimate D2E/DX2                !
 ! A199  A(29,30,31)           100.3647         estimate D2E/DX2                !
 ! A200  A(29,30,32)            79.4825         estimate D2E/DX2                !
 ! A201  A(29,30,33)            88.9062         estimate D2E/DX2                !
 ! A202  A(29,30,34)           138.6578         estimate D2E/DX2                !
 ! A203  A(29,30,64)           132.7919         estimate D2E/DX2                !
 ! A204  A(31,30,32)            84.9756         estimate D2E/DX2                !
 ! A205  A(31,30,33)           127.3859         estimate D2E/DX2                !
 ! A206  A(31,30,34)           114.5237         estimate D2E/DX2                !
 ! A207  A(32,30,34)            82.1028         estimate D2E/DX2                !
 ! A208  A(32,30,64)           123.6832         estimate D2E/DX2                !
 ! A209  A(33,30,64)           137.6386         estimate D2E/DX2                !
 ! A210  A(34,30,64)            87.9784         estimate D2E/DX2                !
 ! A211  A(30,31,57)            88.0249         estimate D2E/DX2                !
 ! A212  A(17,33,25)            77.5604         estimate D2E/DX2                !
 ! A213  A(17,33,30)            97.6244         estimate D2E/DX2                !
 ! A214  A(17,33,32)            92.655          estimate D2E/DX2                !
 ! A215  A(17,33,34)           137.2218         estimate D2E/DX2                !
 ! A216  A(17,33,59)           114.5937         estimate D2E/DX2                !
 ! A217  A(25,33,30)            86.8533         estimate D2E/DX2                !
 ! A218  A(25,33,32)           138.7197         estimate D2E/DX2                !
 ! A219  A(25,33,34)            76.8868         estimate D2E/DX2                !
 ! A220  A(25,33,59)           115.2824         estimate D2E/DX2                !
 ! A221  A(30,33,59)           143.5952         estimate D2E/DX2                !
 ! A222  A(32,33,34)            84.6307         estimate D2E/DX2                !
 ! A223  A(32,33,59)           105.321          estimate D2E/DX2                !
 ! A224  A(34,33,59)           107.2106         estimate D2E/DX2                !
 ! A225  A(17,36,25)            76.6501         estimate D2E/DX2                !
 ! A226  A(17,36,35)           107.2058         estimate D2E/DX2                !
 ! A227  A(17,36,37)           137.1046         estimate D2E/DX2                !
 ! A228  A(17,36,38)            80.9077         estimate D2E/DX2                !
 ! A229  A(17,36,39)           132.8529         estimate D2E/DX2                !
 ! A230  A(25,36,35)           105.3533         estimate D2E/DX2                !
 ! A231  A(25,36,37)            84.821          estimate D2E/DX2                !
 ! A232  A(25,36,38)           138.6787         estimate D2E/DX2                !
 ! A233  A(25,36,39)           137.0829         estimate D2E/DX2                !
 ! A234  A(35,36,37)           114.9518         estimate D2E/DX2                !
 ! A235  A(35,36,38)           114.294          estimate D2E/DX2                !
 ! A236  A(35,36,39)            94.8222         estimate D2E/DX2                !
 ! A237  A(37,36,38)            88.7013         estimate D2E/DX2                !
 ! A238  A(13,37,36)            79.8047         estimate D2E/DX2                !
 ! A239  A(13,37,39)            80.081          estimate D2E/DX2                !
 ! A240  A(13,38,36)            79.8031         estimate D2E/DX2                !
 ! A241  A(13,38,39)            80.3233         estimate D2E/DX2                !
 ! A242  A(36,39,40)           133.1329         estimate D2E/DX2                !
 ! A243  A(36,39,41)           103.914          estimate D2E/DX2                !
 ! A244  A(36,39,62)           131.9424         estimate D2E/DX2                !
 ! A245  A(37,39,38)            87.0959         estimate D2E/DX2                !
 ! A246  A(37,39,40)            82.1606         estimate D2E/DX2                !
 ! A247  A(37,39,41)           120.1683         estimate D2E/DX2                !
 ! A248  A(37,39,62)           137.1173         estimate D2E/DX2                !
 ! A249  A(38,39,40)           136.7347         estimate D2E/DX2                !
 ! A250  A(38,39,41)           120.0379         estimate D2E/DX2                !
 ! A251  A(38,39,62)            80.8554         estimate D2E/DX2                !
 ! A252  A(40,39,41)           101.3644         estimate D2E/DX2                !
 ! A253  A(40,39,62)            79.1877         estimate D2E/DX2                !
 ! A254  A(41,39,62)           101.2751         estimate D2E/DX2                !
 ! A255  A(18,40,39)            82.9757         estimate D2E/DX2                !
 ! A256  A(18,40,68)            82.8452         estimate D2E/DX2                !
 ! A257  A(39,40,68)            87.2954         estimate D2E/DX2                !
 ! A258  A(19,42,20)            79.1565         estimate D2E/DX2                !
 ! A259  A(19,42,43)           137.2373         estimate D2E/DX2                !
 ! A260  A(19,42,44)            80.9571         estimate D2E/DX2                !
 ! A261  A(19,42,45)           132.029          estimate D2E/DX2                !
 ! A262  A(19,42,61)           101.3107         estimate D2E/DX2                !
 ! A263  A(20,42,43)            82.0659         estimate D2E/DX2                !
 ! A264  A(20,42,44)           136.5915         estimate D2E/DX2                !
 ! A265  A(20,42,45)           133.0637         estimate D2E/DX2                !
 ! A266  A(20,42,61)           101.4497         estimate D2E/DX2                !
 ! A267  A(43,42,44)            87.1057         estimate D2E/DX2                !
 ! A268  A(43,42,61)           119.9792         estimate D2E/DX2                !
 ! A269  A(44,42,61)           120.145          estimate D2E/DX2                !
 ! A270  A(45,42,61)           103.8446         estimate D2E/DX2                !
 ! A271  A(6,43,42)             80.051          estimate D2E/DX2                !
 ! A272  A(6,43,45)             79.7421         estimate D2E/DX2                !
 ! A273  A(6,44,42)             80.3599         estimate D2E/DX2                !
 ! A274  A(6,44,45)             79.8523         estimate D2E/DX2                !
 ! A275  A(3,45,42)            137.0695         estimate D2E/DX2                !
 ! A276  A(3,45,43)             84.8126         estimate D2E/DX2                !
 ! A277  A(3,45,44)            138.6296         estimate D2E/DX2                !
 ! A278  A(3,45,46)             76.6276         estimate D2E/DX2                !
 ! A279  A(3,45,47)            105.4271         estimate D2E/DX2                !
 ! A280  A(42,45,46)           132.8956         estimate D2E/DX2                !
 ! A281  A(42,45,47)            94.8522         estimate D2E/DX2                !
 ! A282  A(43,45,44)            88.7115         estimate D2E/DX2                !
 ! A283  A(43,45,46)           137.1583         estimate D2E/DX2                !
 ! A284  A(43,45,47)           115.0417         estimate D2E/DX2                !
 ! A285  A(44,45,46)            80.931          estimate D2E/DX2                !
 ! A286  A(44,45,47)           114.2462         estimate D2E/DX2                !
 ! A287  A(46,45,47)           107.064          estimate D2E/DX2                !
 ! A288  A(1,46,45)             82.9905         estimate D2E/DX2                !
 ! A289  A(1,46,48)             82.8731         estimate D2E/DX2                !
 ! A290  A(45,46,48)            92.6683         estimate D2E/DX2                !
 ! A291  A(3,48,21)             86.862          estimate D2E/DX2                !
 ! A292  A(3,48,23)             76.8902         estimate D2E/DX2                !
 ! A293  A(3,48,46)             77.4933         estimate D2E/DX2                !
 ! A294  A(3,48,49)            138.7228         estimate D2E/DX2                !
 ! A295  A(3,48,50)            115.2835         estimate D2E/DX2                !
 ! A296  A(21,48,46)            97.6396         estimate D2E/DX2                !
 ! A297  A(21,48,50)           143.6309         estimate D2E/DX2                !
 ! A298  A(23,48,46)           137.2209         estimate D2E/DX2                !
 ! A299  A(23,48,49)            84.6948         estimate D2E/DX2                !
 ! A300  A(23,48,50)           107.2356         estimate D2E/DX2                !
 ! A301  A(46,48,49)            92.6653         estimate D2E/DX2                !
 ! A302  A(46,48,50)           114.5519         estimate D2E/DX2                !
 ! A303  A(49,48,50)           105.3336         estimate D2E/DX2                !
 ! A304  A(14,51,22)            92.9585         estimate D2E/DX2                !
 ! A305  A(14,51,52)            89.5307         estimate D2E/DX2                !
 ! A306  A(14,51,60)           116.1444         estimate D2E/DX2                !
 ! A307  A(14,51,63)           133.4873         estimate D2E/DX2                !
 ! A308  A(22,51,52)           133.7798         estimate D2E/DX2                !
 ! A309  A(22,51,54)           144.7524         estimate D2E/DX2                !
 ! A310  A(22,51,60)           102.3789         estimate D2E/DX2                !
 ! A311  A(52,51,60)           117.6331         estimate D2E/DX2                !
 ! A312  A(52,51,63)            97.8273         estimate D2E/DX2                !
 ! A313  A(54,51,60)            99.1719         estimate D2E/DX2                !
 ! A314  A(54,51,63)           149.483          estimate D2E/DX2                !
 ! A315  A(60,51,63)           100.7626         estimate D2E/DX2                !
 ! A316  A(12,52,51)            80.5303         estimate D2E/DX2                !
 ! A317  A(12,52,54)            78.4559         estimate D2E/DX2                !
 ! A318  A(14,54,52)            85.2182         estimate D2E/DX2                !
 ! A319  A(14,54,53)           109.1133         estimate D2E/DX2                !
 ! A320  A(14,54,55)           141.7631         estimate D2E/DX2                !
 ! A321  A(14,54,56)            83.3039         estimate D2E/DX2                !
 ! A322  A(14,54,57)           132.9165         estimate D2E/DX2                !
 ! A323  A(51,54,53)            87.5192         estimate D2E/DX2                !
 ! A324  A(51,54,55)           132.9021         estimate D2E/DX2                !
 ! A325  A(51,54,56)           132.4211         estimate D2E/DX2                !
 ! A326  A(52,54,53)           107.8329         estimate D2E/DX2                !
 ! A327  A(52,54,55)            83.2895         estimate D2E/DX2                !
 ! A328  A(52,54,56)           144.4006         estimate D2E/DX2                !
 ! A329  A(52,54,57)           132.3984         estimate D2E/DX2                !
 ! A330  A(53,54,55)           109.1236         estimate D2E/DX2                !
 ! A331  A(53,54,56)           107.7664         estimate D2E/DX2                !
 ! A332  A(53,54,57)            87.4672         estimate D2E/DX2                !
 ! A333  A(55,54,56)            85.2008         estimate D2E/DX2                !
 ! A334  A(27,55,54)            78.2153         estimate D2E/DX2                !
 ! A335  A(27,55,57)            80.5726         estimate D2E/DX2                !
 ! A336  A(27,56,54)            78.4626         estimate D2E/DX2                !
 ! A337  A(27,56,57)            80.5418         estimate D2E/DX2                !
 ! A338  A(31,57,54)           149.458          estimate D2E/DX2                !
 ! A339  A(31,57,55)           133.4859         estimate D2E/DX2                !
 ! A340  A(31,57,56)            97.8173         estimate D2E/DX2                !
 ! A341  A(31,57,58)           100.7369         estimate D2E/DX2                !
 ! A342  A(54,57,58)            99.2121         estimate D2E/DX2                !
 ! A343  A(54,57,64)           144.7569         estimate D2E/DX2                !
 ! A344  A(55,57,56)            89.5031         estimate D2E/DX2                !
 ! A345  A(55,57,58)           116.1801         estimate D2E/DX2                !
 ! A346  A(55,57,64)            92.9661         estimate D2E/DX2                !
 ! A347  A(56,57,58)           117.6647         estimate D2E/DX2                !
 ! A348  A(56,57,64)           133.7626         estimate D2E/DX2                !
 ! A349  A(58,57,64)           102.3587         estimate D2E/DX2                !
 ! A350  A(18,62,39)            83.091          estimate D2E/DX2                !
 ! A351  A(18,62,68)            83.0732         estimate D2E/DX2                !
 ! A352  A(39,62,68)            87.3364         estimate D2E/DX2                !
 ! A353  A(21,63,51)            88.0303         estimate D2E/DX2                !
 ! A354  A(30,64,57)            88.0507         estimate D2E/DX2                !
 ! A355  A(19,65,20)            77.797          estimate D2E/DX2                !
 ! A356  A(19,65,66)            78.2646         estimate D2E/DX2                !
 ! A357  A(19,65,67)           131.7845         estimate D2E/DX2                !
 ! A358  A(19,65,68)            94.251          estimate D2E/DX2                !
 ! A359  A(19,65,69)           137.7209         estimate D2E/DX2                !
 ! A360  A(19,65,71)           133.707          estimate D2E/DX2                !
 ! A361  A(20,65,66)           137.6033         estimate D2E/DX2                !
 ! A362  A(20,65,67)           132.2261         estimate D2E/DX2                !
 ! A363  A(20,65,68)            94.473          estimate D2E/DX2                !
 ! A364  A(20,65,69)            78.7197         estimate D2E/DX2                !
 ! A365  A(20,65,71)           134.2209         estimate D2E/DX2                !
 ! A366  A(66,65,67)            89.3966         estimate D2E/DX2                !
 ! A367  A(66,65,69)            96.7377         estimate D2E/DX2                !
 ! A368  A(67,65,68)           115.0884         estimate D2E/DX2                !
 ! A369  A(67,65,69)            89.5883         estimate D2E/DX2                !
 ! A370  A(40,68,62)            77.8275         estimate D2E/DX2                !
 ! A371  A(40,68,65)            94.5462         estimate D2E/DX2                !
 ! A372  A(40,68,66)            78.5538         estimate D2E/DX2                !
 ! A373  A(40,68,69)           137.8273         estimate D2E/DX2                !
 ! A374  A(40,68,70)           131.7701         estimate D2E/DX2                !
 ! A375  A(40,68,71)           134.0222         estimate D2E/DX2                !
 ! A376  A(62,68,65)            94.1333         estimate D2E/DX2                !
 ! A377  A(62,68,66)           137.4627         estimate D2E/DX2                !
 ! A378  A(62,68,69)            78.3869         estimate D2E/DX2                !
 ! A379  A(62,68,70)           132.1958         estimate D2E/DX2                !
 ! A380  A(62,68,71)           133.8698         estimate D2E/DX2                !
 ! A381  A(65,68,70)           115.1392         estimate D2E/DX2                !
 ! A382  A(66,68,69)            96.7191         estimate D2E/DX2                !
 ! A383  A(66,68,70)            89.4843         estimate D2E/DX2                !
 ! A384  A(69,68,70)            89.5797         estimate D2E/DX2                !
 ! A385  A(65,71,70)           118.0034         estimate D2E/DX2                !
 ! A386  A(65,71,72)           126.9237         estimate D2E/DX2                !
 ! A387  A(66,71,67)            87.0122         estimate D2E/DX2                !
 ! A388  A(66,71,69)            97.9929         estimate D2E/DX2                !
 ! A389  A(66,71,70)            87.0326         estimate D2E/DX2                !
 ! A390  A(66,71,72)            86.3355         estimate D2E/DX2                !
 ! A391  A(67,71,68)           118.0168         estimate D2E/DX2                !
 ! A392  A(67,71,69)            87.1162         estimate D2E/DX2                !
 ! A393  A(67,71,72)            93.1661         estimate D2E/DX2                !
 ! A394  A(68,71,72)           126.8196         estimate D2E/DX2                !
 ! A395  A(69,71,70)            87.1265         estimate D2E/DX2                !
 ! A396  A(70,71,72)            93.0901         estimate D2E/DX2                !
 ! A397  A(71,72,73)           105.4527         estimate D2E/DX2                !
 ! A398  A(71,72,74)           105.4093         estimate D2E/DX2                !
 ! A399  A(73,72,74)            93.9746         estimate D2E/DX2                !
 ! A400  L(51,54,57,53,-1)     174.9863         estimate D2E/DX2                !
 ! A401  L(67,71,70,66,-1)     174.0449         estimate D2E/DX2                !
 ! A402  L(69,71,72,66,-1)     184.3285         estimate D2E/DX2                !
 ! A403  L(51,54,57,53,-2)     179.9857         estimate D2E/DX2                !
 ! A404  L(67,71,70,66,-2)     186.6599         estimate D2E/DX2                !
 ! A405  L(69,71,72,66,-2)     180.0322         estimate D2E/DX2                !
 ! D1    D(3,1,2,12)           172.4817         estimate D2E/DX2                !
 ! D2    D(3,1,2,21)            88.9446         estimate D2E/DX2                !
 ! D3    D(4,1,2,12)           -31.0528         estimate D2E/DX2                !
 ! D4    D(4,1,2,21)          -114.5899         estimate D2E/DX2                !
 ! D5    D(5,1,2,12)            40.546          estimate D2E/DX2                !
 ! D6    D(5,1,2,21)           -42.9911         estimate D2E/DX2                !
 ! D7    D(8,1,2,12)           -99.255          estimate D2E/DX2                !
 ! D8    D(8,1,2,21)           177.2079         estimate D2E/DX2                !
 ! D9    D(46,1,2,12)          112.129          estimate D2E/DX2                !
 ! D10   D(46,1,2,21)           28.5919         estimate D2E/DX2                !
 ! D11   D(2,1,3,45)           171.0945         estimate D2E/DX2                !
 ! D12   D(2,1,3,48)           -98.1711         estimate D2E/DX2                !
 ! D13   D(4,1,3,45)            15.1613         estimate D2E/DX2                !
 ! D14   D(4,1,3,48)           105.8957         estimate D2E/DX2                !
 ! D15   D(5,1,3,45)          -116.0939         estimate D2E/DX2                !
 ! D16   D(5,1,3,48)           -25.3595         estimate D2E/DX2                !
 ! D17   D(8,1,3,45)            90.7461         estimate D2E/DX2                !
 ! D18   D(8,1,3,48)          -178.5194         estimate D2E/DX2                !
 ! D19   D(46,1,3,45)          -45.6919         estimate D2E/DX2                !
 ! D20   D(46,1,3,48)           45.0426         estimate D2E/DX2                !
 ! D21   D(2,1,4,6)           -108.9007         estimate D2E/DX2                !
 ! D22   D(2,1,4,9)            -25.8593         estimate D2E/DX2                !
 ! D23   D(3,1,4,6)             36.3987         estimate D2E/DX2                !
 ! D24   D(3,1,4,9)            119.44           estimate D2E/DX2                !
 ! D25   D(5,1,4,6)           -179.0787         estimate D2E/DX2                !
 ! D26   D(5,1,4,9)            -96.0373         estimate D2E/DX2                !
 ! D27   D(8,1,4,6)            -41.3702         estimate D2E/DX2                !
 ! D28   D(8,1,4,9)             41.6712         estimate D2E/DX2                !
 ! D29   D(46,1,4,6)            94.8632         estimate D2E/DX2                !
 ! D30   D(46,1,4,9)           177.9046         estimate D2E/DX2                !
 ! D31   D(2,1,5,12)           -40.778          estimate D2E/DX2                !
 ! D32   D(2,1,5,21)            42.3614         estimate D2E/DX2                !
 ! D33   D(3,1,5,12)          -115.5367         estimate D2E/DX2                !
 ! D34   D(3,1,5,21)           -32.3974         estimate D2E/DX2                !
 ! D35   D(4,1,5,12)            96.3325         estimate D2E/DX2                !
 ! D36   D(4,1,5,21)           179.4719         estimate D2E/DX2                !
 ! D37   D(8,1,5,12)            24.3956         estimate D2E/DX2                !
 ! D38   D(8,1,5,21)           107.5349         estimate D2E/DX2                !
 ! D39   D(46,1,5,12)          178.5373         estimate D2E/DX2                !
 ! D40   D(46,1,5,21)          -98.3234         estimate D2E/DX2                !
 ! D41   D(2,1,8,6)            179.633          estimate D2E/DX2                !
 ! D42   D(2,1,8,9)             96.4621         estimate D2E/DX2                !
 ! D43   D(3,1,8,6)            -95.277          estimate D2E/DX2                !
 ! D44   D(3,1,8,9)           -178.4479         estimate D2E/DX2                !
 ! D45   D(4,1,8,6)             41.6224         estimate D2E/DX2                !
 ! D46   D(4,1,8,9)            -41.5485         estimate D2E/DX2                !
 ! D47   D(5,1,8,6)            114.3731         estimate D2E/DX2                !
 ! D48   D(5,1,8,9)             31.2022         estimate D2E/DX2                !
 ! D49   D(46,1,8,6)           -28.8681         estimate D2E/DX2                !
 ! D50   D(46,1,8,9)          -112.039          estimate D2E/DX2                !
 ! D51   D(2,1,46,45)          109.659          estimate D2E/DX2                !
 ! D52   D(2,1,46,48)           16.0675         estimate D2E/DX2                !
 ! D53   D(3,1,46,45)           46.0215         estimate D2E/DX2                !
 ! D54   D(3,1,46,48)          -47.57           estimate D2E/DX2                !
 ! D55   D(4,1,46,45)          -95.9297         estimate D2E/DX2                !
 ! D56   D(4,1,46,48)          170.4788         estimate D2E/DX2                !
 ! D57   D(5,1,46,45)          179.49           estimate D2E/DX2                !
 ! D58   D(5,1,46,48)           85.8985         estimate D2E/DX2                !
 ! D59   D(8,1,46,45)          -25.3934         estimate D2E/DX2                !
 ! D60   D(8,1,46,48)         -118.9849         estimate D2E/DX2                !
 ! D61   D(1,2,12,5)           -40.9134         estimate D2E/DX2                !
 ! D62   D(1,2,12,11)           30.2115         estimate D2E/DX2                !
 ! D63   D(1,2,12,14)          179.681          estimate D2E/DX2                !
 ! D64   D(1,2,12,15)           97.8619         estimate D2E/DX2                !
 ! D65   D(1,2,12,52)         -109.2889         estimate D2E/DX2                !
 ! D66   D(21,2,12,5)           40.8418         estimate D2E/DX2                !
 ! D67   D(21,2,12,11)         111.9666         estimate D2E/DX2                !
 ! D68   D(21,2,12,14)         -98.5639         estimate D2E/DX2                !
 ! D69   D(21,2,12,15)         179.6171         estimate D2E/DX2                !
 ! D70   D(21,2,12,52)         -27.5337         estimate D2E/DX2                !
 ! D71   D(1,2,21,5)            43.4855         estimate D2E/DX2                !
 ! D72   D(1,2,21,22)          176.1065         estimate D2E/DX2                !
 ! D73   D(1,2,21,23)          -96.0017         estimate D2E/DX2                !
 ! D74   D(1,2,21,48)          -44.1782         estimate D2E/DX2                !
 ! D75   D(1,2,21,49)          -19.8427         estimate D2E/DX2                !
 ! D76   D(1,2,21,63)          140.6132         estimate D2E/DX2                !
 ! D77   D(12,2,21,5)          -40.9276         estimate D2E/DX2                !
 ! D78   D(12,2,21,22)          91.6934         estimate D2E/DX2                !
 ! D79   D(12,2,21,23)         179.5852         estimate D2E/DX2                !
 ! D80   D(12,2,21,48)        -128.5913         estimate D2E/DX2                !
 ! D81   D(12,2,21,49)        -104.2558         estimate D2E/DX2                !
 ! D82   D(12,2,21,63)          56.2001         estimate D2E/DX2                !
 ! D83   D(1,3,45,42)          -93.5443         estimate D2E/DX2                !
 ! D84   D(1,3,45,43)          -94.1522         estimate D2E/DX2                !
 ! D85   D(1,3,45,44)          -12.0407         estimate D2E/DX2                !
 ! D86   D(1,3,45,46)           46.9576         estimate D2E/DX2                !
 ! D87   D(1,3,45,47)          151.2749         estimate D2E/DX2                !
 ! D88   D(48,3,45,42)        -174.9955         estimate D2E/DX2                !
 ! D89   D(48,3,45,43)        -175.6034         estimate D2E/DX2                !
 ! D90   D(48,3,45,44)         -93.4919         estimate D2E/DX2                !
 ! D91   D(48,3,45,46)         -34.4936         estimate D2E/DX2                !
 ! D92   D(48,3,45,47)          69.8236         estimate D2E/DX2                !
 ! D93   D(1,3,48,21)           50.5824         estimate D2E/DX2                !
 ! D94   D(1,3,48,23)           97.4866         estimate D2E/DX2                !
 ! D95   D(1,3,48,46)          -47.9598         estimate D2E/DX2                !
 ! D96   D(1,3,48,49)           31.6418         estimate D2E/DX2                !
 ! D97   D(1,3,48,50)         -159.4248         estimate D2E/DX2                !
 ! D98   D(45,3,48,21)         134.1302         estimate D2E/DX2                !
 ! D99   D(45,3,48,23)        -178.9657         estimate D2E/DX2                !
 ! D100  D(45,3,48,46)          35.588          estimate D2E/DX2                !
 ! D101  D(45,3,48,49)         115.1896         estimate D2E/DX2                !
 ! D102  D(45,3,48,50)         -75.877          estimate D2E/DX2                !
 ! D103  D(1,4,6,7)            179.6462         estimate D2E/DX2                !
 ! D104  D(1,4,6,8)             41.3018         estimate D2E/DX2                !
 ! D105  D(1,4,6,16)           110.1158         estimate D2E/DX2                !
 ! D106  D(1,4,6,43)           -28.0156         estimate D2E/DX2                !
 ! D107  D(1,4,6,44)           -97.644          estimate D2E/DX2                !
 ! D108  D(9,4,6,7)             96.1993         estimate D2E/DX2                !
 ! D109  D(9,4,6,8)            -42.1451         estimate D2E/DX2                !
 ! D110  D(9,4,6,16)            26.6689         estimate D2E/DX2                !
 ! D111  D(9,4,6,43)          -111.4626         estimate D2E/DX2                !
 ! D112  D(9,4,6,44)           178.9091         estimate D2E/DX2                !
 ! D113  D(1,4,9,8)            -41.0685         estimate D2E/DX2                !
 ! D114  D(1,4,9,10)          -178.9724         estimate D2E/DX2                !
 ! D115  D(1,4,9,11)            96.2798         estimate D2E/DX2                !
 ! D116  D(1,4,9,15)            30.0113         estimate D2E/DX2                !
 ! D117  D(1,4,9,26)          -110.4298         estimate D2E/DX2                !
 ! D118  D(6,4,9,8)             41.6014         estimate D2E/DX2                !
 ! D119  D(6,4,9,10)           -96.3024         estimate D2E/DX2                !
 ! D120  D(6,4,9,11)           178.9497         estimate D2E/DX2                !
 ! D121  D(6,4,9,15)           112.6813         estimate D2E/DX2                !
 ! D122  D(6,4,9,26)           -27.7598         estimate D2E/DX2                !
 ! D123  D(1,5,12,2)            40.8233         estimate D2E/DX2                !
 ! D124  D(1,5,12,11)          -94.7962         estimate D2E/DX2                !
 ! D125  D(1,5,12,14)          112.0666         estimate D2E/DX2                !
 ! D126  D(1,5,12,15)          -27.5118         estimate D2E/DX2                !
 ! D127  D(1,5,12,52)          179.9697         estimate D2E/DX2                !
 ! D128  D(21,5,12,2)          -40.2034         estimate D2E/DX2                !
 ! D129  D(21,5,12,11)        -175.8229         estimate D2E/DX2                !
 ! D130  D(21,5,12,14)          31.0399         estimate D2E/DX2                !
 ! D131  D(21,5,12,15)        -108.5385         estimate D2E/DX2                !
 ! D132  D(21,5,12,52)          98.943          estimate D2E/DX2                !
 ! D133  D(1,5,21,2)           -43.5221         estimate D2E/DX2                !
 ! D134  D(1,5,21,22)         -132.3222         estimate D2E/DX2                !
 ! D135  D(1,5,21,23)           35.999          estimate D2E/DX2                !
 ! D136  D(1,5,21,48)           56.0316         estimate D2E/DX2                !
 ! D137  D(1,5,21,49)          101.0605         estimate D2E/DX2                !
 ! D138  D(1,5,21,63)         -176.1067         estimate D2E/DX2                !
 ! D139  D(12,5,21,2)           41.2316         estimate D2E/DX2                !
 ! D140  D(12,5,21,22)         -47.5685         estimate D2E/DX2                !
 ! D141  D(12,5,21,23)         120.7527         estimate D2E/DX2                !
 ! D142  D(12,5,21,48)         140.7853         estimate D2E/DX2                !
 ! D143  D(12,5,21,49)        -174.1858         estimate D2E/DX2                !
 ! D144  D(12,5,21,63)         -91.353          estimate D2E/DX2                !
 ! D145  D(4,6,7,13)           -97.7041         estimate D2E/DX2                !
 ! D146  D(4,6,7,18)          -179.4356         estimate D2E/DX2                !
 ! D147  D(8,6,7,13)           -28.836          estimate D2E/DX2                !
 ! D148  D(8,6,7,18)          -110.5675         estimate D2E/DX2                !
 ! D149  D(16,6,7,13)           40.3481         estimate D2E/DX2                !
 ! D150  D(16,6,7,18)          -41.3835         estimate D2E/DX2                !
 ! D151  D(43,6,7,13)          110.2277         estimate D2E/DX2                !
 ! D152  D(43,6,7,18)           28.4962         estimate D2E/DX2                !
 ! D153  D(44,6,7,13)          178.0921         estimate D2E/DX2                !
 ! D154  D(44,6,7,18)           96.3606         estimate D2E/DX2                !
 ! D155  D(4,6,8,1)            -41.3231         estimate D2E/DX2                !
 ! D156  D(4,6,8,9)             41.9926         estimate D2E/DX2                !
 ! D157  D(7,6,8,1)           -110.3235         estimate D2E/DX2                !
 ! D158  D(7,6,8,9)            -27.0077         estimate D2E/DX2                !
 ! D159  D(16,6,8,1)          -179.5909         estimate D2E/DX2                !
 ! D160  D(16,6,8,9)           -96.2752         estimate D2E/DX2                !
 ! D161  D(43,6,8,1)            97.1031         estimate D2E/DX2                !
 ! D162  D(43,6,8,9)          -179.5812         estimate D2E/DX2                !
 ! D163  D(44,6,8,1)            29.2576         estimate D2E/DX2                !
 ! D164  D(44,6,8,9)           112.5733         estimate D2E/DX2                !
 ! D165  D(4,6,16,13)           29.1263         estimate D2E/DX2                !
 ! D166  D(4,6,16,18)          110.9102         estimate D2E/DX2                !
 ! D167  D(7,6,16,13)          -40.3862         estimate D2E/DX2                !
 ! D168  D(7,6,16,18)           41.3976         estimate D2E/DX2                !
 ! D169  D(8,6,16,13)           97.8734         estimate D2E/DX2                !
 ! D170  D(8,6,16,18)          179.6573         estimate D2E/DX2                !
 ! D171  D(43,6,16,13)        -179.1104         estimate D2E/DX2                !
 ! D172  D(43,6,16,18)         -97.3265         estimate D2E/DX2                !
 ! D173  D(44,6,16,13)        -110.1829         estimate D2E/DX2                !
 ! D174  D(44,6,16,18)         -28.399          estimate D2E/DX2                !
 ! D175  D(4,6,43,42)         -109.8877         estimate D2E/DX2                !
 ! D176  D(4,6,43,45)          -31.7595         estimate D2E/DX2                !
 ! D177  D(7,6,43,42)           28.8158         estimate D2E/DX2                !
 ! D178  D(7,6,43,45)          106.944          estimate D2E/DX2                !
 ! D179  D(8,6,43,42)         -178.9696         estimate D2E/DX2                !
 ! D180  D(8,6,43,45)         -100.8414         estimate D2E/DX2                !
 ! D181  D(16,6,43,42)          98.5145         estimate D2E/DX2                !
 ! D182  D(16,6,43,45)         176.6427         estimate D2E/DX2                !
 ! D183  D(44,6,43,42)         -39.3983         estimate D2E/DX2                !
 ! D184  D(44,6,43,45)          38.7299         estimate D2E/DX2                !
 ! D185  D(4,6,44,42)          177.7574         estimate D2E/DX2                !
 ! D186  D(4,6,44,45)           99.4441         estimate D2E/DX2                !
 ! D187  D(7,6,44,42)          -99.6462         estimate D2E/DX2                !
 ! D188  D(7,6,44,45)         -177.9595         estimate D2E/DX2                !
 ! D189  D(8,6,44,42)          107.8366         estimate D2E/DX2                !
 ! D190  D(8,6,44,45)           29.5233         estimate D2E/DX2                !
 ! D191  D(16,6,44,42)         -29.8711         estimate D2E/DX2                !
 ! D192  D(16,6,44,45)        -108.1844         estimate D2E/DX2                !
 ! D193  D(43,6,44,42)          39.5819         estimate D2E/DX2                !
 ! D194  D(43,6,44,45)         -38.7314         estimate D2E/DX2                !
 ! D195  D(6,7,13,10)           97.8978         estimate D2E/DX2                !
 ! D196  D(6,7,13,16)          -40.3831         estimate D2E/DX2                !
 ! D197  D(6,7,13,26)           29.1454         estimate D2E/DX2                !
 ! D198  D(6,7,13,37)         -179.0799         estimate D2E/DX2                !
 ! D199  D(6,7,13,38)         -110.114          estimate D2E/DX2                !
 ! D200  D(18,7,13,10)         179.6665         estimate D2E/DX2                !
 ! D201  D(18,7,13,16)          41.3856         estimate D2E/DX2                !
 ! D202  D(18,7,13,26)         110.9141         estimate D2E/DX2                !
 ! D203  D(18,7,13,37)         -97.3113         estimate D2E/DX2                !
 ! D204  D(18,7,13,38)         -28.3453         estimate D2E/DX2                !
 ! D205  D(6,7,18,16)           42.0267         estimate D2E/DX2                !
 ! D206  D(6,7,18,19)          -95.9766         estimate D2E/DX2                !
 ! D207  D(6,7,18,20)          -31.266          estimate D2E/DX2                !
 ! D208  D(6,7,18,40)         -179.5179         estimate D2E/DX2                !
 ! D209  D(6,7,18,62)          116.2146         estimate D2E/DX2                !
 ! D210  D(13,7,18,16)         -41.9917         estimate D2E/DX2                !
 ! D211  D(13,7,18,19)        -179.995          estimate D2E/DX2                !
 ! D212  D(13,7,18,20)        -115.2843         estimate D2E/DX2                !
 ! D213  D(13,7,18,40)          96.4638         estimate D2E/DX2                !
 ! D214  D(13,7,18,62)          32.1963         estimate D2E/DX2                !
 ! D215  D(1,8,9,4)             41.1416         estimate D2E/DX2                !
 ! D216  D(1,8,9,10)           110.9543         estimate D2E/DX2                !
 ! D217  D(1,8,9,11)           -28.3623         estimate D2E/DX2                !
 ! D218  D(1,8,9,15)           -97.09           estimate D2E/DX2                !
 ! D219  D(1,8,9,26)           179.8976         estimate D2E/DX2                !
 ! D220  D(6,8,9,4)            -41.8814         estimate D2E/DX2                !
 ! D221  D(6,8,9,10)            27.9313         estimate D2E/DX2                !
 ! D222  D(6,8,9,11)          -111.3854         estimate D2E/DX2                !
 ! D223  D(6,8,9,15)           179.887          estimate D2E/DX2                !
 ! D224  D(6,8,9,26)            96.8745         estimate D2E/DX2                !
 ! D225  D(4,9,10,13)           96.8712         estimate D2E/DX2                !
 ! D226  D(4,9,10,24)          179.8733         estimate D2E/DX2                !
 ! D227  D(8,9,10,13)           27.9341         estimate D2E/DX2                !
 ! D228  D(8,9,10,24)          110.9363         estimate D2E/DX2                !
 ! D229  D(11,9,10,13)         179.8992         estimate D2E/DX2                !
 ! D230  D(11,9,10,24)         -97.0986         estimate D2E/DX2                !
 ! D231  D(15,9,10,13)        -111.3713         estimate D2E/DX2                !
 ! D232  D(15,9,10,24)         -28.3692         estimate D2E/DX2                !
 ! D233  D(26,9,10,13)         -41.8752         estimate D2E/DX2                !
 ! D234  D(26,9,10,24)          41.1269         estimate D2E/DX2                !
 ! D235  D(4,9,11,12)          -97.1507         estimate D2E/DX2                !
 ! D236  D(4,9,11,27)          178.5351         estimate D2E/DX2                !
 ! D237  D(8,9,11,12)          -28.3585         estimate D2E/DX2                !
 ! D238  D(8,9,11,27)         -112.6726         estimate D2E/DX2                !
 ! D239  D(10,9,11,12)         179.325          estimate D2E/DX2                !
 ! D240  D(10,9,11,27)          95.0108         estimate D2E/DX2                !
 ! D241  D(15,9,11,12)          42.1487         estimate D2E/DX2                !
 ! D242  D(15,9,11,27)         -42.1654         estimate D2E/DX2                !
 ! D243  D(26,9,11,12)         109.5069         estimate D2E/DX2                !
 ! D244  D(26,9,11,27)          25.1927         estimate D2E/DX2                !
 ! D245  D(4,9,15,12)           25.2201         estimate D2E/DX2                !
 ! D246  D(4,9,15,27)          109.5281         estimate D2E/DX2                !
 ! D247  D(8,9,15,12)           95.0185         estimate D2E/DX2                !
 ! D248  D(8,9,15,27)          179.3266         estimate D2E/DX2                !
 ! D249  D(10,9,15,12)        -112.6717         estimate D2E/DX2                !
 ! D250  D(10,9,15,27)         -28.3637         estimate D2E/DX2                !
 ! D251  D(11,9,15,12)         -42.1627         estimate D2E/DX2                !
 ! D252  D(11,9,15,27)          42.1454         estimate D2E/DX2                !
 ! D253  D(26,9,15,12)         178.5324         estimate D2E/DX2                !
 ! D254  D(26,9,15,27)         -97.1596         estimate D2E/DX2                !
 ! D255  D(4,9,26,13)          -27.7968         estimate D2E/DX2                !
 ! D256  D(4,9,26,24)         -110.4608         estimate D2E/DX2                !
 ! D257  D(8,9,26,13)          -96.3062         estimate D2E/DX2                !
 ! D258  D(8,9,26,24)         -178.9702         estimate D2E/DX2                !
 ! D259  D(10,9,26,13)          41.5974         estimate D2E/DX2                !
 ! D260  D(10,9,26,24)         -41.0666         estimate D2E/DX2                !
 ! D261  D(11,9,26,13)         112.692          estimate D2E/DX2                !
 ! D262  D(11,9,26,24)          30.0279         estimate D2E/DX2                !
 ! D263  D(15,9,26,13)         178.9421         estimate D2E/DX2                !
 ! D264  D(15,9,26,24)          96.2781         estimate D2E/DX2                !
 ! D265  D(9,10,13,7)          -96.2733         estimate D2E/DX2                !
 ! D266  D(9,10,13,16)         -27.0359         estimate D2E/DX2                !
 ! D267  D(9,10,13,26)          41.9844         estimate D2E/DX2                !
 ! D268  D(9,10,13,37)        -179.6165         estimate D2E/DX2                !
 ! D269  D(9,10,13,38)         112.5499         estimate D2E/DX2                !
 ! D270  D(24,10,13,7)        -179.584          estimate D2E/DX2                !
 ! D271  D(24,10,13,16)       -110.3466         estimate D2E/DX2                !
 ! D272  D(24,10,13,26)        -41.3263         estimate D2E/DX2                !
 ! D273  D(24,10,13,37)         97.0729         estimate D2E/DX2                !
 ! D274  D(24,10,13,38)         29.2392         estimate D2E/DX2                !
 ! D275  D(9,10,24,17)        -111.9879         estimate D2E/DX2                !
 ! D276  D(9,10,24,25)        -178.4501         estimate D2E/DX2                !
 ! D277  D(9,10,24,26)         -41.5361         estimate D2E/DX2                !
 ! D278  D(9,10,24,28)          96.4753         estimate D2E/DX2                !
 ! D279  D(9,10,24,29)          31.2346         estimate D2E/DX2                !
 ! D280  D(13,10,24,17)        -28.8215         estimate D2E/DX2                !
 ! D281  D(13,10,24,25)        -95.2838         estimate D2E/DX2                !
 ! D282  D(13,10,24,26)         41.6302         estimate D2E/DX2                !
 ! D283  D(13,10,24,28)        179.6417         estimate D2E/DX2                !
 ! D284  D(13,10,24,29)        114.401          estimate D2E/DX2                !
 ! D285  D(9,11,12,2)           26.1649         estimate D2E/DX2                !
 ! D286  D(9,11,12,5)           96.5749         estimate D2E/DX2                !
 ! D287  D(9,11,12,14)        -108.9691         estimate D2E/DX2                !
 ! D288  D(9,11,12,15)         -42.2913         estimate D2E/DX2                !
 ! D289  D(9,11,12,52)         179.1198         estimate D2E/DX2                !
 ! D290  D(27,11,12,2)         110.148          estimate D2E/DX2                !
 ! D291  D(27,11,12,5)        -179.4419         estimate D2E/DX2                !
 ! D292  D(27,11,12,14)        -24.986          estimate D2E/DX2                !
 ! D293  D(27,11,12,15)         41.6919         estimate D2E/DX2                !
 ! D294  D(27,11,12,52)        -96.8971         estimate D2E/DX2                !
 ! D295  D(9,11,27,15)          42.2883         estimate D2E/DX2                !
 ! D296  D(9,11,27,28)         -94.1485         estimate D2E/DX2                !
 ! D297  D(9,11,27,29)         -26.0933         estimate D2E/DX2                !
 ! D298  D(9,11,27,55)        -179.4442         estimate D2E/DX2                !
 ! D299  D(9,11,27,56)         112.9845         estimate D2E/DX2                !
 ! D300  D(12,11,27,15)        -41.6725         estimate D2E/DX2                !
 ! D301  D(12,11,27,28)       -178.1093         estimate D2E/DX2                !
 ! D302  D(12,11,27,29)       -110.0541         estimate D2E/DX2                !
 ! D303  D(12,11,27,55)         96.595          estimate D2E/DX2                !
 ! D304  D(12,11,27,56)         29.0237         estimate D2E/DX2                !
 ! D305  D(2,12,14,51)         100.9857         estimate D2E/DX2                !
 ! D306  D(2,12,14,54)        -178.9887         estimate D2E/DX2                !
 ! D307  D(5,12,14,51)          30.9269         estimate D2E/DX2                !
 ! D308  D(5,12,14,54)         110.9525         estimate D2E/DX2                !
 ! D309  D(11,12,14,51)       -110.3421         estimate D2E/DX2                !
 ! D310  D(11,12,14,54)        -30.3165         estimate D2E/DX2                !
 ! D311  D(15,12,14,51)       -176.4964         estimate D2E/DX2                !
 ! D312  D(15,12,14,54)        -96.4709         estimate D2E/DX2                !
 ! D313  D(52,12,14,51)        -37.2131         estimate D2E/DX2                !
 ! D314  D(52,12,14,54)         42.8125         estimate D2E/DX2                !
 ! D315  D(2,12,15,9)          -94.1511         estimate D2E/DX2                !
 ! D316  D(2,12,15,27)        -178.1119         estimate D2E/DX2                !
 ! D317  D(5,12,15,9)          -26.1124         estimate D2E/DX2                !
 ! D318  D(5,12,15,27)        -110.0732         estimate D2E/DX2                !
 ! D319  D(11,12,15,9)          42.2902         estimate D2E/DX2                !
 ! D320  D(11,12,15,27)        -41.6706         estimate D2E/DX2                !
 ! D321  D(14,12,15,9)        -179.4552         estimate D2E/DX2                !
 ! D322  D(14,12,15,27)         96.584          estimate D2E/DX2                !
 ! D323  D(52,12,15,9)         112.9651         estimate D2E/DX2                !
 ! D324  D(52,12,15,27)         29.0043         estimate D2E/DX2                !
 ! D325  D(2,12,52,51)         -35.1715         estimate D2E/DX2                !
 ! D326  D(2,12,52,54)        -114.9264         estimate D2E/DX2                !
 ! D327  D(5,12,52,51)        -103.1862         estimate D2E/DX2                !
[...]
 782,-0.00003534,0.00000345,-0.00005641,0.00002281,0.00001850,-0.000037
 40,-0.00006977,-0.00010145,0.00019023,0.00002961,0.00001160,-0.0000981
 1,0.00002606,0.00005930,-0.00004936,-0.00037083,-0.00000929,0.00003485
 ,-0.00000691,0.00020776,0.00013298,-0.00000682,-0.00004071,-0.00003572
 ,-0.00015271,-0.00009995,-0.00002060,0.00002974,0.00001792,0.00000093,
 0.00006158,-0.00000473,0.00003626,0.00010140,-0.00006628,0.00008042,-0
 .00001196,0.00000394,-0.00002391,0.00002060,0.00000977,-0.00001773,0.0
 0004947,-0.00000979,0.00004818,-0.00002200,-0.00000979,-0.00001204,-0.
 00000257,-0.00000141,0.00000158,0.00008876,-0.00008752,0.00016154,-0.0
 0001715,0.00007128,-0.00003826,0.00007982,-0.00001757,0.00001930,-0.00
 010838,0.00003588,-0.00005308,-0.00003133,0.00000794,0.00004229,-0.000
 03135,-0.00005035,0.00004194,0.00013380,0.00003150,-0.00007182,-0.0000
 4172,0.00000572,-0.00000227,-0.00001852,0.00001061,-0.00000822,-0.0000
 3334,0.00000145,0.00000042,0.00015677,0.00010783,-0.00000917,-0.000339
 77,0.00016814,0.00016743,-0.00003496,0.00001825,0.00000718,-0.00003160
 ,0.00002809,-0.00002434,-0.00030069,0.00142077,0.00006001,0.00003445,-
 0.00007506,-0.00004113,-0.00297279,-0.00023102,-0.00322701,-0.00095470
 ,-0.00116116,-0.00095694,-0.00051944,-0.00010314,0.00186492,0.00298191
 ,0.00190350,0.00034465,-0.00658872,-0.00157678,-0.01594672,-0.07862903
 ,-0.06879962,0.25067632,-0.00000282,-0.00000183,-0.00001435,-0.0000220
 3,0.00000124,0.00000308,0.00002203,0.00001126,0.00001165,-0.00002082,0
 .00000421,-0.00000576,-0.00002793,-0.00000463,-0.00000120,0.00007208,-
 0.00001723,0.00002957,-0.00003830,0.00000680,-0.00003800,-0.00002207,0
 .00001498,-0.00001098,0.00004070,-0.00001058,0.00001093,-0.00002674,0.
 00000122,-0.00000378,-0.00002378,0.00000081,-0.00001456,0.00004163,0.0
 0004372,-0.00007674,0.00009332,-0.00000763,0.00001885,0.00001759,0.000
 00486,0.00003817,-0.00002243,0.00000980,-0.00000003,-0.00002371,0.0000
 1117,-0.00003747,0.00002682,0.00000616,0.00000674,-0.00001711,0.000058
 84,-0.00001552,0.00006730,-0.00006246,0.00003876,-0.00005183,0.0000461
 0,-0.00005461,0.00001409,0.00002075,0.00001115,0.00002742,0.00000807,-
 0.00000594,0.00002359,-0.00000519,-0.00002151,-0.00000326,-0.00000177,
 0.00000775,0.00002820,-0.00003302,0.00000168,-0.00002214,0.00000536,-0
 .00001041,0.00000256,-0.00005303,0.00009450,-0.00002041,0.00000710,-0.
 00001476,-0.00002267,0.00001816,-0.00001085,0.00000805,-0.00002616,-0.
 00001202,0.00003326,0.00000972,0.00002166,0.00002712,-0.00001233,0.000
 00002,-0.00011929,0.00002077,0.00002650,0.00002264,0.00000083,0.000035
 21,-0.00000705,-0.00001082,0.00002257,-0.00001293,0.00004290,-0.000052
 10,-0.00002808,-0.00001848,0.00001554,-0.00002142,-0.00000478,0.000008
 18,0.00013549,0.00004091,-0.00004601,0.00004032,-0.00010072,-0.0000059
 5,0.00001359,-0.00003373,0.00004986,0.00003902,-0.00000864,0.00004096,
 -0.00000589,-0.00000365,-0.00001385,-0.00002530,0.00000532,-0.00001131
 ,-0.00002722,-0.00000466,0.00002164,0.00001362,-0.00000888,0.00000488,
 -0.00000002,0.00000533,-0.00000949,-0.00007498,0.00000572,-0.00004686,
 0.00001539,0.00000470,0.00000731,0.00001491,0.00000662,-0.00000974,-0.
 00005377,0.00006038,-0.00009729,0.00000798,-0.00004622,0.00002966,-0.0
 0006452,0.00001173,-0.00001277,0.00008429,-0.00001698,0.00001807,0.000
 02740,-0.00001017,-0.00003351,0.00003049,0.00004053,-0.00002738,-0.000
 09939,-0.00003284,0.00006875,0.00001871,-0.00000371,0.00000405,0.00001
 037,-0.00001252,0.00001535,0.00001773,-0.00000219,0.00000110,-0.000003
 01,-0.00003449,0.00000529,0.00009639,-0.00001261,-0.00006032,0.0000301
 0,-0.00001946,-0.00000988,0.00002258,-0.00001774,0.00001432,-0.0005413
 6,-0.00038453,0.00031419,0.00015268,0.00037894,-0.00060756,0.00151177,
 0.00026086,0.00023556,0.00072030,-0.00002666,-0.00018086,0.00003483,-0
 .00004655,-0.00151424,-0.00042644,-0.00030137,-0.00014030,-0.00744880,
 -0.00065695,0.00713720,-0.10418639,0.03112164,0.11790866,0.10609978,-0
 .00000103,0.00000507,-0.00001019,0.00001379,-0.00000112,-0.00000237,-0
 .00000894,-0.00001398,-0.00000020,0.00000630,-0.00000171,0.00000105,0.
 00001275,0.00000224,0.00000090,-0.00001078,0.00000613,0.00001005,0.000
 00527,-0.00000382,0.00000022,0.00000688,-0.00000338,0.00000256,-0.0000
 1284,-0.00000228,0.00000541,0.00000813,0.00000120,0.00000511,0.0000089
 3,0.00000123,0.00000203,-0.00002587,-0.00001540,0.00003302,-0.00002321
 ,0.00001262,-0.00001591,-0.00000445,0.00000050,-0.00001361,0.00000965,
 -0.00000323,-0.00000336,0.00000417,-0.00001465,-0.00000270,-0.00000350
 ,-0.00000039,0.00000536,-0.00001806,0.00006671,-0.00000819,-0.00000469
 ,0.00007120,-0.00000953,-0.00005243,0.00002927,0.00000770,-0.00000193,
 -0.00000932,-0.00001238,-0.00001172,-0.00000539,0.00000389,-0.00001543
 ,0.00000017,0.00001420,0.00000816,0.00000535,-0.00001507,-0.00001204,0
 .00000170,0.00000341,0.00000568,-0.00000524,0.00000282,0.00001150,0.00
 001566,-0.00002736,0.00000234,-0.00000161,0.00000360,0.00000545,-0.000
 00453,0.00000318,-0.00000608,0.00001332,-0.00000498,-0.00001028,-0.000
 00347,-0.00000435,0.00000027,0.00000666,0.00000598,0.00000998,-0.00001
 263,-0.00000162,-0.00000468,-0.00000136,-0.00000880,-0.00000400,-0.000
 00040,-0.00000079,0.00004291,0.00000332,-0.00002473,0.00000824,0.00000
 778,0.00001680,0.00000331,-0.00001560,0.00001640,0.00001116,-0.0000495
 5,-0.00000662,0.00000277,0.00003075,-0.00003681,-0.00000708,0.00002431
 ,-0.00001107,0.00003063,0.00001863,-0.00002053,0.00000040,-0.00000880,
 0.00000715,-0.00000902,-0.00001090,-0.00000192,-0.00001699,0.00004213,
 -0.00006154,-0.00000798,0.00000793,0.00000846,-0.00001171,-0.00001080,
 0.00002079,0.00005146,0.00000209,0.00002028,-0.00000587,-0.00000070,-0
 .00000311,-0.00001518,-0.00000778,0.00001228,0.00001472,-0.00001786,0.
 00002420,-0.00000042,0.00001470,-0.00001362,0.00002948,-0.00000379,0.0
 0000320,-0.00003734,-0.00000030,0.00000730,-0.00001221,0.00000721,0.00
 001348,-0.00001533,-0.00001632,0.00000777,0.00003721,0.00001620,-0.000
 03646,0.00000067,0.00000123,-0.00000330,-0.00000163,0.00000580,-0.0000
 0836,-0.00000180,0.00000113,-0.00000099,-0.00004941,-0.00002131,-0.000
 00520,-0.00001732,-0.00005992,0.00002781,-0.00001416,0.00001006,0.0000
 0659,-0.00000752,0.00000454,-0.00000302,0.00029570,-0.00027963,-0.0003
 1431,-0.00008273,0.00010921,0.00033092,0.00013785,0.00001167,-0.000107
 88,0.00000534,0.00011207,0.00024981,-0.00010574,0.00013643,0.00013598,
 -0.00078782,0.00002717,-0.00049061,-0.00146916,-0.00121424,0.00160275,
 0.04432012,-0.02649227,-0.04015940,-0.02879909,0.02542767,0.00000151,-
 0.00000070,-0.00000219,-0.00000206,0.00000023,0.00000130,0.00000244,0.
 00000292,-0.00000057,-0.00000407,-0.00000032,-0.00000010,-0.00000253,-
 0.00000135,0.00000007,0.00000966,0.00000293,0.00000425,-0.00000088,0.0
 0000049,-0.00000395,-0.00000261,0.00000108,-0.00000010,0.00000656,-0.0
 0000042,-0.00000102,-0.00000321,-0.00000012,0.00000072,-0.00000406,0.0
 0000025,-0.00000145,0.00000406,0.00000681,-0.00001188,0.00001550,-0.00
 000116,0.00000213,0.00000380,0.00000099,0.00000741,-0.00000409,0.00000
 119,0.00000040,0.00000226,-0.00000011,0.00000790,0.00000330,-0.0000000
 4,-0.00000039,-0.00000132,0.00000974,-0.00002722,0.00002979,0.00000535
 ,0.00003416,-0.00004241,0.00005043,-0.00001975,-0.00000041,0.00000516,
 -0.00000113,0.00000417,0.00000119,-0.00000027,0.00000356,-0.00000183,-
 0.00000250,0.00000166,-0.00000119,0.00000572,0.00000145,-0.00000344,0.
 00000033,-0.00000375,0.00000066,-0.00000115,0.00000354,-0.00000855,0.0
 0001248,-0.00000407,0.00000147,-0.00000237,-0.00000361,0.00000256,-0.0
 0000239,0.00000013,-0.00000254,-0.00000295,0.00000451,-0.00000042,0.00
 000363,0.00000507,-0.00000101,0.00000187,-0.00001712,0.00000289,0.0000
 0186,0.00000262,-0.00000005,0.00000543,-0.00000184,-0.00000050,0.00000
 147,0.00000148,0.00000547,-0.00001273,0.00000085,-0.00000129,0.0000056
 3,0.00000530,-0.00000706,0.00000429,0.00001119,0.00000831,-0.00000635,
 -0.00002409,-0.00002503,-0.00000408,-0.00000211,-0.00000107,0.00001810
 ,-0.00000606,0.00000004,0.00002395,-0.00000280,-0.00000133,0.00000389,
 -0.00000840,-0.00000414,0.00000194,-0.00000541,0.00000229,0.00000170,0
 .00000144,-0.00000093,0.00000108,0.00000213,0.00000154,-0.00000446,-0.
 00000788,-0.00000297,-0.00000140,0.00000232,0.00000037,0.00000174,0.00
 000353,0.00000281,-0.00000481,-0.00000926,0.00001010,-0.00001726,0.000
 00139,-0.00000922,0.00000538,-0.00001268,0.00000244,-0.00000217,0.0000
 1595,-0.00000415,0.00000575,0.00000362,-0.00000116,-0.00000475,0.00000
 379,0.00000632,-0.00000470,-0.00001452,-0.00000353,0.00000947,0.000002
 87,-0.00000089,0.00000076,0.00000163,-0.00000207,0.00000290,0.00000169
 ,0.00000019,-0.00000051,0.00000117,-0.00000774,-0.00000855,0.00003991,
 -0.00002196,-0.00001789,0.00000414,-0.00000329,-0.00000124,0.00000350,
 -0.00000167,0.00000312,-0.00026062,-0.00044432,-0.00017139,0.00016170,
 -0.00003368,-0.00014413,0.00036892,0.00025986,0.00024083,0.00049415,0.
 00013157,0.00017481,-0.00037261,-0.00017941,-0.00055917,-0.00036976,-0
 .00043409,0.00032580,-0.00026873,0.00054465,0.00341019,0.10985592,-0.0
 1786507,-0.16282067,-0.11699180,0.02163817,0.17050368,0.00000132,0.000
 01225,-0.00000840,-0.00002813,0.00000047,0.00000619,0.00003798,0.00001
 416,0.00001278,-0.00002508,-0.00000091,-0.00000604,-0.00002741,-0.0000
 1055,0.00000454,0.00009454,-0.00000849,0.00001660,-0.00004552,-0.00001
 873,0.00001088,-0.00002774,-0.00000050,-0.00000200,0.00004355,-0.00000
 721,0.00000366,-0.00002563,0.00000275,0.00000097,-0.00002832,-0.000003
 38,-0.00000473,0.00004838,0.00004272,-0.00009088,0.00007805,0.00000018
 ,0.00000167,0.00001764,0.00000537,0.00004545,-0.00002485,0.00000887,0.
 00000139,-0.00003096,-0.00001207,0.00001842,0.00001534,0.00000547,0.00
 000321,-0.00002810,0.00001667,0.00004639,0.00004271,-0.00006783,-0.000
 07136,0.00007608,-0.00007416,0.00006239,0.00001281,0.00002286,0.000012
 81,0.00002996,0.00000885,-0.00000512,0.00003214,-0.00000848,-0.0000263
 3,-0.00000637,-0.00001317,0.00000179,0.00001923,-0.00001747,-0.0000017
 0,-0.00002528,0.00000753,0.00000828,0.00000370,-0.00004489,0.00009465,
 -0.00002529,0.00000813,-0.00001048,-0.00001887,0.00001411,-0.00000760,
 0.00000577,-0.00002243,-0.00000668,0.00003132,0.00000497,0.00002110,0.
 00001588,-0.00001067,-0.00000269,-0.00008279,0.00002178,0.00001697,0.0
 0001803,-0.00000129,0.00002848,-0.00000395,-0.00000683,0.00001373,-0.0
 0000738,0.00002770,-0.00002805,-0.00002594,-0.00000290,-0.00000409,-0.
 00000854,-0.00001140,0.00000044,0.00003861,0.00003024,-0.00002538,0.00
 009187,-0.00001641,-0.00004657,0.00001591,-0.00001793,-0.00002173,0.00
 008383,-0.00003323,0.00010127,-0.00001109,0.00001194,-0.00000974,-0.00
 001589,0.00000912,-0.00002528,-0.00004472,-0.00002595,0.00004013,0.000
 02356,-0.00001439,-0.00000317,0.00000430,0.00001242,-0.00002116,-0.000
 10389,0.00001600,-0.00005736,0.00002514,0.00000495,0.00000921,0.000018
 63,0.00000884,-0.00001257,-0.00006284,0.00005753,-0.00010320,0.0000090
 4,-0.00004725,0.00003484,-0.00007204,0.00001106,-0.00000962,0.00009533
 ,-0.00001493,0.00001201,0.00002828,-0.00001485,-0.00003774,0.00003280,
 0.00004042,-0.00002638,-0.00010318,-0.00003061,0.00008077,0.00001671,-
 0.00000381,0.00000534,0.00000867,-0.00001320,0.00001713,0.00001964,-0.
 00000254,0.00000089,0.00004171,0.00001690,-0.00005050,-0.00008073,-0.0
 0000107,0.00005539,0.00003544,-0.00001761,-0.00001161,0.00002097,-0.00
 001652,0.00001211,0.00069782,-0.00026590,0.00037864,-0.00012911,-0.000
 37063,0.00065240,-0.00022396,-0.00012321,-0.00050865,-0.00038792,0.000
 05877,-0.00073363,-0.00063988,-0.00131844,0.00069245,0.00140549,0.0001
 7628,0.00064161,-0.00323567,0.00692543,-0.00638397,-0.04217632,0.07095
 189,-0.03046718,0.00380773,-0.01340379,0.00736062,0.04063746,0.0000033
 6,-0.00000403,0.00000707,0.00000495,0.,-0.00000241,-0.00001077,-0.0000
 0190,-0.00000496,0.00000792,0.00000326,0.00000042,0.00000531,0.0000023
 9,-0.00000134,-0.00002505,-0.00000034,0.00000562,0.00000994,0.00000087
 ,-0.00000120,0.00000713,-0.00000094,-0.00000113,-0.00000907,0.00000251
 ,-0.00000459,0.00000592,-0.00000088,-0.00000212,0.00000850,0.00000080,
 0.00000365,-0.00000538,-0.00001576,0.00002763,-0.00001247,0.00001047,-
 0.00000013,-0.00000842,-0.00000303,-0.00001444,0.00000664,-0.00000267,
 0.00000025,0.00001474,0.00000112,-0.00001147,-0.00000734,-0.00000306,-
 0.00000529,-0.00002137,0.00000292,0.00003523,-0.00003456,-0.00000493,0
 .00001614,0.00001450,-0.00001681,-0.00004942,-0.00000744,-0.00000713,0
 .00000158,-0.00000808,-0.00000219,-0.00000008,-0.00000620,0.00000305,0
 .00000548,-0.00000173,-0.00000116,0.00000675,-0.00000279,0.00001135,-0
 .00000097,0.00000812,-0.00000176,-0.00000245,-0.00000830,0.00001705,-0
 .00003277,0.00001197,-0.00000349,0.00000505,0.00000799,-0.00000443,0.0
 0000262,-0.00000363,0.00000536,0.00000941,-0.00001072,-0.00000180,-0.0
 0000888,-0.00000715,0.00000243,-0.00000062,0.00004134,-0.00000991,-0.0
 0000739,-0.00000625,0.00000196,-0.00001400,0.00000047,0.00000592,-0.00
 001159,-0.00002893,-0.00001415,0.00003848,0.00000120,-0.00000226,-0.00
 001414,-0.00000015,0.00000353,-0.00000936,0.00000486,0.00000906,0.0000
 1426,-0.00000009,0.00004067,0.00004110,-0.00002846,-0.00001051,-0.0000
 1203,-0.00000277,-0.00001588,-0.00002561,0.00001180,-0.00000171,-0.000
 01582,0.00001573,0.00000706,0.00000575,0.00002246,-0.00001271,0.000018
 15,-0.00000355,0.00000190,-0.00000408,-0.00000389,-0.00000117,0.000002
 26,0.00001416,0.00000511,0.00001047,-0.00000220,-0.00000538,-0.0000056
 9,-0.00000439,-0.00000320,0.00000502,0.00001724,-0.00002017,0.00003834
 ,-0.00000474,0.00001720,-0.00001000,0.00002191,-0.00000442,0.00000427,
 -0.00002535,0.00000903,-0.00001404,-0.00000723,0.00000204,0.00000910,-
 0.00000695,-0.00001091,0.00000975,0.00002460,0.00000756,-0.00001688,-0
 .00000428,0.00000048,-0.00000016,-0.00000515,0.00000563,-0.00000719,-0
 .00000271,-0.00000064,0.00000170,-0.00001178,0.00001394,0.00001275,-0.
 00006099,0.00004014,0.00001870,-0.00000842,0.00000601,0.00000176,-0.00
 000647,0.00000620,-0.00000542,0.00030686,0.00030513,0.00007817,0.00012
 990,0.00011992,-0.00011544,-0.00057077,-0.00004522,-0.00045323,0.00000
 988,-0.00056655,-0.00012624,-0.00034063,-0.00001199,-0.00013858,0.0000
 8043,0.00013704,0.00011732,0.00115715,0.00161018,-0.00116744,0.0632538
 4,-0.18067949,0.10886199,-0.00144323,0.00205259,-0.00363068,-0.0624609
 7,0.17702065,-0.00000178,-0.00000625,0.00001187,-0.00000353,0.00000063
 ,0.00000002,0.00000373,0.00000747,-0.00000235,-0.00000099,0.00000322,-
 0.00000041,-0.00000196,-0.00000097,-0.00000030,0.00000206,-0.00000250,
 0.00001105,-0.00001329,-0.00000730,0.00000155,-0.00000073,-0.00000184,
 -0.00000177,0.00000498,0.00000240,-0.00000842,-0.00000184,-0.00000030,
 0.00000059,-0.00000046,-0.00000081,0.00000343,0.00001033,0.00000016,-0
 .00000220,0.00001653,0.00000890,-0.00000622,-0.00000254,-0.00000155,-0
 .00000136,0.00000038,-0.00000134,0.00000241,-0.00000923,-0.00001818,0.
 00000246,-0.00000176,-0.00000181,-0.00000806,-0.00002592,0.00004170,0.
 00004449,0.00001617,-0.00002959,0.00002643,0.00001023,-0.00001610,-0.0
 0003915,-0.00000506,-0.00000077,0.00000586,0.00000096,0.00000138,-0.00
 000093,0.00000408,-0.00000022,-0.00000162,-0.00000690,-0.00000513,0.00
 000873,0.00000359,0.00000863,-0.00000238,-0.00000110,0.00000023,0.0000
 0275,-0.00000592,0.00000384,-0.00000749,0.00000255,-0.00000026,0.00000
 245,0.00000230,-0.00000141,0.00000046,0.00000258,0.00000180,0.00000748
 ,-0.00000258,-0.00000242,-0.00000296,-0.00000170,-0.00000109,0.0000000
 7,0.00001585,-0.00000936,0.00000428,-0.00000335,0.00000179,-0.00000687
 ,-0.00000229,0.00001008,-0.00001663,-0.00003996,-0.00001040,0.00003904
 ,-0.00000699,-0.00000683,-0.00000749,-0.00000389,-0.00000726,-0.000005
 96,0.00003183,-0.00000530,0.00003192,-0.00000630,0.00000533,0.00003505
 ,-0.00003144,-0.00000632,-0.00003295,0.00004398,-0.00004113,0.00000690
 ,-0.00000255,0.00000764,-0.00001877,0.00000548,0.00001185,-0.00000699,
 0.00001150,-0.00002267,0.00003641,0.00000559,-0.00000375,-0.00000620,-
 0.00000100,0.00000455,-0.00000788,-0.00001931,0.00001136,-0.00001352,0
 .00000655,-0.00000383,-0.00000153,0.00000039,-0.00000124,0.00000276,-0
 .00000263,-0.00000376,0.00000829,-0.00000218,0.00000285,0.00000056,0.0
 0000554,-0.00000218,0.00000283,-0.00000208,0.00000577,-0.00001113,0.00
 000027,-0.00000229,0.00000061,0.00000068,-0.00000053,0.00000326,-0.000
 00537,0.00000007,0.00000623,0.00000342,-0.00000131,0.00000143,-0.00000
 335,0.00000667,-0.00001000,0.00000461,-0.00000178,0.00000312,-0.000000
 28,0.00000615,0.00000526,-0.00004122,0.00001650,-0.00000202,0.00000184
 ,-0.00000075,-0.00000186,-0.00000064,0.00000252,-0.00000168,0.00001650
 ,0.00003034,0.00000180,-0.00008356,0.00024514,0.00008794,-0.00077133,-
 0.00027801,0.00020254,0.00015029,-0.00013795,-0.00002420,0.00001910,-0
 .00003936,0.00026466,0.00039791,-0.00019981,0.00021491,-0.00233878,0.0
 0148197,-0.00358528,-0.01959029,0.08523137,-0.07056501,-0.00605963,0.0
 1719029,-0.01096850,0.02830395,-0.10346694,0.08428819\\-0.00000294,0.0
 0000042,-0.00000023,-0.00000296,-0.00000001,0.00000071,0.00000209,0.00
 000081,0.00000126,-0.00000075,0.,-0.00000009,-0.00000133,-0.00000073,0
 .00000041,-0.00000006,0.00000149,0.00000084,-0.00000079,0.00000178,0.0
 0000043,-0.00000043,0.00000085,-0.00000067,0.00000157,-0.00000083,0.00
 000039,-0.00000051,-0.00000047,0.00000012,-0.00000053,-0.00000066,0.00
 000031,0.00000056,0.00000016,0.00000024,0.00000031,0.00000086,0.000000
 11,-0.00000081,-0.00000060,0.00000083,-0.00000034,-0.00000026,0.000000
 51,-0.00000014,-0.00000001,-0.00000053,0.00000330,-0.00000128,0.000001
 89,0.00000193,0.00000238,0.00000071,-0.00000169,0.00000124,0.00000130,
 -0.00000245,-0.00000256,-0.00000404,0.00000156,-0.00000339,0.00000425,
 -0.00000135,-0.00000097,0.00000018,-0.00000175,0.00000050,0.00000175,-
 0.00000165,0.00000032,0.00000012,0.00000397,-0.00000273,0.00000073,0.0
 0000014,-0.00000030,0.00000066,0.00000072,-0.00000193,0.00000101,-0.00
 000205,-0.00000012,-0.00000056,0.00000060,0.,0.00000048,0.00000558,0.0
 0000136,-0.00000150,0.00000036,-0.00000175,0.00000315,0.00000255,-0.00
 000311,0.00000078,-0.00001605,0.00000040,0.00000260,0.00000085,-0.0000
 0134,-0.00000109,0.00000723,-0.00000002,-0.00000009,-0.00000540,0.0000
 0419,-0.00000459,-0.00000076,-0.00000057,0.,-0.00000064,-0.00000281,0.
 00000071,0.00000571,0.00000156,-0.00000397,-0.00000080,0.00000277,-0.0
 0000239,0.00000829,-0.00000139,-0.00000042,0.00000229,-0.00000009,0.00
 000478,0.00000049,0.00000061,-0.00000477,-0.00000214,0.00000085,-0.000
 00058,-0.00000921,-0.00000069,0.00000192,0.00000201,0.00000044,-0.0000
 0170,0.00000404,-0.00000103,0.00000113,-0.00001579,0.00000466,-0.00000
 691,0.00000037,0.00000140,0.00000074,0.00000447,0.00000130,0.00000412,
 0.00000104,0.00000126,-0.00000058,-0.00000209,-0.00000053,0.00000121,-
 0.00000145,-0.00000100,0.00000117,0.00000324,-0.00000173,0.00000194,-0
 .00000070,-0.00000075,0.00000097,-0.00000090,-0.00000066,0.00000020,0.
 00000105,-0.00000383,0.00000324,-0.00000020,-0.00000125,0.00000055,0.0
 0000853,-0.00000381,-0.00000207,-0.00000174,-0.00000099,0.00000195,0.0
 0000512,-0.00000060,-0.00000046,-0.00000228,-0.00000364,-0.00000350,-0
 .00000091,-0.00000018,-0.00000119,0.00000056,-0.00000067,0.00000167,-0
 .00000431,0.00001007,-0.00000746,-0.00000157,-0.00000355,-0.00000485,0
 .00001043,0.00000371,0.00000218,-0.00000815,0.00000099,0.00000890,-0.0
 0000527,0.00000644,-0.00000051,0.00001188,0.00000297,0.00000182,0.0000
 0183,-0.00000756,-0.00000338,-0.00000646,-0.00000076,-0.00000507,0.000
 00183,0.00000250,-0.00000069,0.00000284,0.00000288,-0.00000107\\\@
 The archive entry for this job was punched.


 If your ship doesn't come in, swim out to it!
                          -- Jonathan Winters
 Job cpu time:       9 days 17 hours 42 minutes 25.6 seconds.
 Elapsed time:       0 days  4 hours 52 minutes 54.1 seconds.
 File lengths (MBytes):  RWF=  21153 Int=      0 D2E=      0 Chk=    178 Scr=      2
 Normal termination of Gaussian 16 at Tue Mar  7 22:20:42 2023.
