 Entering Gaussian System, Link 0=/apps/GAU16/avx2/g16/g16
 Initial command:
 /apps/GAU16/avx2//g16/l1.exe "/localscratch/chegho/Gau-67670.inp" -scrdir="/localscratch/chegho/"
 Entering Link 1 = /apps/GAU16/avx2//g16/l1.exe PID=     67671.
  
 Copyright (c) 1988-2019, Gaussian, Inc.  All Rights Reserved.
  
 This is part of the Gaussian(R) 16 program.  It is based on
 the Gaussian(R) 09 system (copyright 2009, Gaussian, Inc.),
 the Gaussian(R) 03 system (copyright 2003, Gaussian, Inc.),
 the Gaussian(R) 98 system (copyright 1998, Gaussian, Inc.),
 the Gaussian(R) 94 system (copyright 1995, Gaussian, Inc.),
 the Gaussian 92(TM) system (copyright 1992, Gaussian, Inc.),
 the Gaussian 90(TM) system (copyright 1990, Gaussian, Inc.),
 the Gaussian 88(TM) system (copyright 1988, Gaussian, Inc.),
 the Gaussian 86(TM) system (copyright 1986, Carnegie Mellon
 University), and the Gaussian 82(TM) system (copyright 1983,
 Carnegie Mellon University). Gaussian is a federally registered
 trademark of Gaussian, Inc.
  
 This software contains proprietary and confidential information,
 including trade secrets, belonging to Gaussian, Inc.
  
 This software is provided under written license and may be
 used, copied, transmitted, or stored only in accord with that
 written license.
  
 The following legend is applicable only to US Government
 contracts under FAR:
  
                    RESTRICTED RIGHTS LEGEND
  
 Use, reproduction and disclosure by the US Government is
 subject to restrictions as set forth in subparagraphs (a)
 and (c) of the Commercial Computer Software - Restricted
 Rights clause in FAR 52.227-19.
  
 Gaussian, Inc.
 340 Quinnipiac St., Bldg. 40, Wallingford CT 06492
  
  
 ---------------------------------------------------------------
 Warning -- This program may not be used in any manner that
 competes with the business of Gaussian, Inc. or will provide
 assistance to any competitor of Gaussian, Inc.  The licensee
 of this program is prohibited from giving any competitor of
 Gaussian, Inc. access to this program.  By using this program,
 the user acknowledges that Gaussian, Inc. is engaged in the
 business of creating and licensing software in the field of
 computational chemistry and represents and warrants to the
 licensee that it is not a competitor of Gaussian, Inc. and that
 it will not use this program in any manner prohibited above.
 ---------------------------------------------------------------
  

 Cite this work as:
 Gaussian 16, Revision C.01,
 M. J. Frisch, G. W. Trucks, H. B. Schlegel, G. E. Scuseria, 
 M. A. Robb, J. R. Cheeseman, G. Scalmani, V. Barone, 
 G. A. Petersson, H. Nakatsuji, X. Li, M. Caricato, A. V. Marenich, 
 J. Bloino, B. G. Janesko, R. Gomperts, B. Mennucci, H. P. Hratchian, 
 J. V. Ortiz, A. F. Izmaylov, J. L. Sonnenberg, D. Williams-Young, 
 F. Ding, F. Lipparini, F. Egidi, J. Goings, B. Peng, A. Petrone, 
 T. Henderson, D. Ranasinghe, V. G. Zakrzewski, J. Gao, N. Rega, 
 G. Zheng, W. Liang, M. Hada, M. Ehara, K. Toyota, R. Fukuda, 
 J. Hasegawa, M. Ishida, T. Nakajima, Y. Honda, O. Kitao, H. Nakai, 
 T. Vreven, K. Throssell, J. A. Montgomery, Jr., J. E. Peralta, 
 F. Ogliaro, M. J. Bearpark, J. J. Heyd, E. N. Brothers, K. N. Kudin, 
 V. N. Staroverov, T. A. Keith, R. Kobayashi, J. Normand, 
 K. Raghavachari, A. P. Rendell, J. C. Burant, S. S. Iyengar, 
 J. Tomasi, M. Cossi, J. M. Millam, M. Klene, C. Adamo, R. Cammi, 
 J. W. Ochterski, R. L. Martin, K. Morokuma, O. Farkas, 
 J. B. Foresman, and D. J. Fox, Gaussian, Inc., Wallingford CT, 2019.
 
 ******************************************
 Gaussian 16:  ES64L-G16RevC.01  3-Jul-2019
                 7-Mar-2023 
 ******************************************
 %nprocshared=48
 Will use up to   48 processors via shared memory.
 %chk=Mo20S47_Szz_Mo_S_2.chk
 %mem=100GB
 ----------------------------------------------------------
 # opt freq b3lyp/gen nosymm pseudo=read scf=maxcycles=1000
 ----------------------------------------------------------
 1/18=20,19=15,26=3,38=1/1,3;
 2/9=110,12=2,15=1,17=6,18=5,40=1/2;
 3/5=7,11=2,16=1,17=8,25=1,30=1,71=1,74=-5/1,2,3;
 4//1;
 5/5=2,7=1000,38=5/2;
 6/7=2,8=2,9=2,10=2,28=1/1;
 7/30=1/1,2,3,16;
 1/18=20,19=15,26=3/3(2);
 2/9=110,15=1/2;
 99//99;
 2/9=110,15=1/2;
 3/5=7,6=1,11=2,16=1,17=8,25=1,30=1,71=1,74=-5,82=7/1,2,3;
 4/5=5,16=3,69=1/1;
 5/5=2,7=1000,38=5/2;
 7/30=1/1,2,3,16;
 1/18=20,19=15,26=3/3(-5);
 2/9=110,15=1/2;
 6/7=2,8=2,9=2,10=2,19=2,28=1/1;
 99/9=1/99;
 -------------------
 Title Card Required
 -------------------
 Symbolic Z-matrix:
 Charge =  0 Multiplicity = 1
 42                    0.42369   1.28022   12.65202 
 16                    2.43208   2.3108    13.59253 
 16                   -0.60351   1.88044   14.85445 
 16                   -0.39164   0.85964   10.42389 
 16                    2.08152  -0.44288   12.1013 
 42                   -1.96224   2.633     11.01421 
 16                   -2.76723   2.21157   8.77076 
 16                    0.04683   3.56889   11.99138 
 42                    1.06959   2.75444   9.91885 
 16                    0.25951   2.31398   7.66454 
 16                    2.68644   1.01321   9.33514 
 42                    3.50584   1.45851   11.57357 
 42                   -1.27864   4.07988   8.2589 
 16                    5.60824   2.56758   12.57207 
 16                    3.09911   3.73868   10.85527 
 16                   -2.28748   4.93126   10.30682 
 16                    1.26008   6.62973   6.41346 
 42                   -4.29286   4.01212   9.32228 
 16                   -5.93616   2.2432    9.97143 
 16                   -5.36454   4.85483   11.45659 
 42                    2.796     0.08606   14.33802 
 16                    5.05265   0.5446    15.35882 
 16                    1.84518   0.66555   16.34593 
 42                    1.65646   4.22461   7.16519 
 16                    0.80007   3.80473   4.80092 
 16                    0.70602   5.06021   9.22494 
 42                    4.10446   2.91034   8.80826 
 16                    3.25298   2.47602   6.56308 
 16                    3.68887   5.20415   8.09405 
 42                    4.5307    4.42384   5.98627 
 16                    6.94452   5.01566   6.39343 
 16                    4.21508   6.6798    5.33409 
 42                    2.19123   5.72381   4.38801 
 16                    3.77259   3.97001   3.79628 
 16                   -1.74858   6.62667   3.9265 
 42                   -0.68694   5.58582   5.45124 
 16                   -2.1231    3.69346   5.94745 
 16                   -1.68346   6.41791   7.50586 
 42                   -3.69749   5.41267   6.63057 
 16                   -5.05429   3.48531   7.01694 
 16                   -5.19245   6.6636    5.49718 
 42                   -4.89295   2.51969   12.20564 
 16                   -2.9566    3.51811   13.20972 
 16                   -3.53736   0.67415   11.52269 
 42                   -2.70941   1.18924   13.71267 
 16                   -1.14626  -0.65737   13.15581 
 16                   -3.91977   0.46753   15.28479 
 42                   -0.0859   -0.53112   15.30151 
 16                    1.48548  -2.03766   14.76799 
 16                   -1.18709  -1.41389   16.87986 
 42                    6.02887   0.32892   13.09065 
 16                    5.19972  -0.38564   11.01232 
 16                    8.53603   1.28959   10.57303 
 42                    6.44605   1.65257   10.46111 
 16                    5.77151   1.09019   8.15178 
 16                    6.21992   4.00092   9.73694 
 42                    7.1129    2.98536   7.82408 
 16                    9.21469   2.67977   7.78242 
 16                    1.91668   6.79623   2.58449 
 16                    8.05123  -0.1425    13.50293 
 16                   -6.46042   2.05965   13.54141 
 16                   -4.6177    6.34677   8.62597 
 16                    4.83274  -1.36848   14.48339 
 16                    6.64374   3.18304   5.38664 
 42                   -7.36856   4.29588   10.22747 
 16                   -8.        3.39626   7.97893 
 16                   -8.95505   4.01063   11.59731 
 42                   -6.43612   5.40662   7.31214 
 16                   -7.67068   6.30734   9.27389 
 16                   -8.15392   6.16611   5.77206 
 42                   -9.57111   4.71363   6.8267 
 16                   -10.47051   3.52244   5.32537 
 16                   -11.08344   5.77126   7.92677 
 

 GradGradGradGradGradGradGradGradGradGradGradGradGradGradGradGradGradGrad
 Berny optimization.
 Initialization pass.
                           ----------------------------
                           !    Initial Parameters    !
                           ! (Angstroms and Degrees)  !
 --------------------------                            --------------------------
 ! Name  Definition              Value          Derivative Info.                !
 --------------------------------------------------------------------------------
 ! R1    R(1,2)                  2.4455         estimate D2E/DX2                !
 ! R2    R(1,3)                  2.5032         estimate D2E/DX2                !
 ! R3    R(1,4)                  2.4096         estimate D2E/DX2                !
 ! R4    R(1,5)                  2.4537         estimate D2E/DX2                !
 ! R5    R(1,8)                  2.4117         estimate D2E/DX2                !
 ! R6    R(1,46)                 2.5442         estimate D2E/DX2                !
 ! R7    R(2,12)                 2.4404         estimate D2E/DX2                !
 ! R8    R(2,21)                 2.3744         estimate D2E/DX2                !
 ! R9    R(3,45)                 2.4932         estimate D2E/DX2                !
 ! R10   R(3,48)                 2.5067         estimate D2E/DX2                !
 ! R11   R(4,6)                  2.4413         estimate D2E/DX2                !
 ! R12   R(4,9)                  2.4455         estimate D2E/DX2                !
 ! R13   R(5,12)                 2.4336         estimate D2E/DX2                !
 ! R14   R(5,21)                 2.4069         estimate D2E/DX2                !
 ! R15   R(6,7)                  2.4205         estimate D2E/DX2                !
 ! R16   R(6,8)                  2.4222         estimate D2E/DX2                !
 ! R17   R(6,16)                 2.4265         estimate D2E/DX2                !
 ! R18   R(6,43)                 2.5676         estimate D2E/DX2                !
 ! R19   R(6,44)                 2.5645         estimate D2E/DX2                !
 ! R20   R(7,13)                 2.443          estimate D2E/DX2                !
 ! R21   R(7,18)                 2.4236         estimate D2E/DX2                !
 ! R22   R(8,9)                  2.4505         estimate D2E/DX2                !
 ! R23   R(9,10)                 2.4356         estimate D2E/DX2                !
 ! R24   R(9,11)                 2.4468         estimate D2E/DX2                !
 ! R25   R(9,15)                 2.4422         estimate D2E/DX2                !
 ! R26   R(9,26)                 2.4352         estimate D2E/DX2                !
 ! R27   R(10,13)                2.4161         estimate D2E/DX2                !
 ! R28   R(10,24)                2.419          estimate D2E/DX2                !
 ! R29   R(11,12)                2.4249         estimate D2E/DX2                !
 ! R30   R(11,27)                2.4264         estimate D2E/DX2                !
 ! R31   R(12,14)                2.5782         estimate D2E/DX2                !
 ! R32   R(12,15)                2.425          estimate D2E/DX2                !
 ! R33   R(12,52)                2.5661         estimate D2E/DX2                !
 ! R34   R(13,16)                2.4365         estimate D2E/DX2                !
 ! R35   R(13,26)                2.4152         estimate D2E/DX2                !
 ! R36   R(13,37)                2.491          estimate D2E/DX2                !
 ! R37   R(13,38)                2.4894         estimate D2E/DX2                !
 ! R38   R(14,51)                2.3361         estimate D2E/DX2                !
 ! R39   R(14,54)                2.4485         estimate D2E/DX2                !
 ! R40   R(15,27)                2.4263         estimate D2E/DX2                !
 ! R41   R(16,18)                2.4157         estimate D2E/DX2                !
 ! R42   R(17,24)                2.5508         estimate D2E/DX2                !
 ! R43   R(17,33)                2.4063         estimate D2E/DX2                !
 ! R44   R(17,36)                2.4097         estimate D2E/DX2                !
 ! R45   R(18,19)                2.5002         estimate D2E/DX2                !
 ! R46   R(18,20)                2.5326         estimate D2E/DX2                !
 ! R47   R(18,39)                3.0921         estimate D2E/DX2                !
 ! R48   R(18,40)                2.4843         estimate D2E/DX2                !
 ! R49   R(18,62)                2.4578         estimate D2E/DX2                !
 ! R50   R(19,42)                2.4812         estimate D2E/DX2                !
 ! R51   R(19,65)                2.5161         estimate D2E/DX2                !
 ! R52   R(20,42)                2.4973         estimate D2E/DX2                !
 ! R53   R(20,65)                2.4165         estimate D2E/DX2                !
 ! R54   R(21,22)                2.5189         estimate D2E/DX2                !
 ! R55   R(21,23)                2.296          estimate D2E/DX2                !
 ! R56   R(21,48)                3.1007         estimate D2E/DX2                !
 ! R57   R(21,49)                2.5323         estimate D2E/DX2                !
 ! R58   R(21,63)                2.507          estimate D2E/DX2                !
 ! R59   R(22,51)                2.4787         estimate D2E/DX2                !
 ! R60   R(22,63)                2.1153         estimate D2E/DX2                !
 ! R61   R(23,48)                2.5004         estimate D2E/DX2                !
 ! R62   R(24,25)                2.5494         estimate D2E/DX2                !
 ! R63   R(24,26)                2.4175         estimate D2E/DX2                !
 ! R64   R(24,28)                2.4431         estimate D2E/DX2                !
 ! R65   R(24,29)                2.4399         estimate D2E/DX2                !
 ! R66   R(24,30)                3.113          estimate D2E/DX2                !
 ! R67   R(25,33)                2.406          estimate D2E/DX2                !
 ! R68   R(25,36)                2.4096         estimate D2E/DX2                !
 ! R69   R(27,28)                2.4402         estimate D2E/DX2                !
 ! R70   R(27,29)                2.4381         estimate D2E/DX2                !
 ! R71   R(27,55)                2.554          estimate D2E/DX2                !
 ! R72   R(27,56)                2.5548         estimate D2E/DX2                !
 ! R73   R(28,30)                2.3998         estimate D2E/DX2                !
 ! R74   R(29,30)                2.4001         estimate D2E/DX2                !
 ! R75   R(30,31)                2.5184         estimate D2E/DX2                !
 ! R76   R(30,32)                2.3695         estimate D2E/DX2                !
 ! R77   R(30,33)                3.1173         estimate D2E/DX2                !
 ! R78   R(30,34)                2.3615         estimate D2E/DX2                !
 ! R79   R(30,64)                2.5227         estimate D2E/DX2                !
 ! R80   R(31,57)                2.4894         estimate D2E/DX2                !
 ! R81   R(31,64)                2.1125         estimate D2E/DX2                !
 ! R82   R(32,33)                2.43           estimate D2E/DX2                !
 ! R83   R(33,34)                2.4345         estimate D2E/DX2                !
 ! R84   R(33,36)                3.0714         estimate D2E/DX2                !
 ! R85   R(33,59)                2.1162         estimate D2E/DX2                !
 ! R86   R(35,36)                2.1296         estimate D2E/DX2                !
 ! R87   R(36,37)                2.4269         estimate D2E/DX2                !
 ! R88   R(36,38)                2.4304         estimate D2E/DX2                !
 ! R89   R(37,39)                2.4292         estimate D2E/DX2                !
 ! R90   R(38,39)                2.4152         estimate D2E/DX2                !
 ! R91   R(39,40)                2.3885         estimate D2E/DX2                !
 ! R92   R(39,41)                2.2548         estimate D2E/DX2                !
 ! R93   R(39,62)                2.3877         estimate D2E/DX2                !
 ! R94   R(39,68)                2.8222         estimate D2E/DX2                !
 ! R95   R(40,68)                2.385          estimate D2E/DX2                !
 ! R96   R(41,68)                2.5339         estimate D2E/DX2                !
 ! R97   R(42,43)                2.3988         estimate D2E/DX2                !
 ! R98   R(42,44)                2.3896         estimate D2E/DX2                !
 ! R99   R(42,45)                2.968          estimate D2E/DX2                !
 ! R100  R(42,61)                2.1102         estimate D2E/DX2                !
 ! R101  R(43,45)                2.3953         estimate D2E/DX2                !
 ! R102  R(44,45)                2.3973         estimate D2E/DX2                !
 ! R103  R(45,46)                2.4826         estimate D2E/DX2                !
 ! R104  R(45,47)                2.1113         estimate D2E/DX2                !
 ! R105  R(46,48)                2.3967         estimate D2E/DX2                !
 ! R106  R(48,49)                2.2413         estimate D2E/DX2                !
 ! R107  R(48,50)                2.1173         estimate D2E/DX2                !
 ! R108  R(51,52)                2.3489         estimate D2E/DX2                !
 ! R109  R(51,54)                2.9733         estimate D2E/DX2                !
 ! R110  R(51,60)                2.1171         estimate D2E/DX2                !
 ! R111  R(51,63)                2.5003         estimate D2E/DX2                !
 ! R112  R(52,54)                2.4518         estimate D2E/DX2                !
 ! R113  R(53,54)                2.1242         estimate D2E/DX2                !
 ! R114  R(54,55)                2.4707         estimate D2E/DX2                !
 ! R115  R(54,56)                2.4679         estimate D2E/DX2                !
 ! R116  R(54,57)                3.029          estimate D2E/DX2                !
 ! R117  R(55,57)                2.3449         estimate D2E/DX2                !
 ! R118  R(56,57)                2.3426         estimate D2E/DX2                !
 ! R119  R(57,58)                2.1243         estimate D2E/DX2                !
 ! R120  R(57,64)                2.49           estimate D2E/DX2                !
 ! R121  R(62,68)                2.4324         estimate D2E/DX2                !
 ! R122  R(65,66)                2.5028         estimate D2E/DX2                !
 ! R123  R(65,67)                2.1154         estimate D2E/DX2                !
 ! R124  R(65,69)                2.2465         estimate D2E/DX2                !
 ! R125  R(66,68)                2.6328         estimate D2E/DX2                !
 ! R126  R(66,71)                2.3519         estimate D2E/DX2                !
 ! R127  R(68,69)                2.4867         estimate D2E/DX2                !
 ! R128  R(68,70)                2.4289         estimate D2E/DX2                !
 ! R129  R(70,71)                2.287          estimate D2E/DX2                !
 ! R130  R(71,72)                2.117          estimate D2E/DX2                !
 ! R131  R(71,73)                2.1485         estimate D2E/DX2                !
 ! A1    A(2,1,3)               84.1214         estimate D2E/DX2                !
 ! A2    A(2,1,4)              134.9976         estimate D2E/DX2                !
 ! A3    A(2,1,5)               80.0597         estimate D2E/DX2                !
 ! A4    A(2,1,8)               80.431          estimate D2E/DX2                !
 ! A5    A(2,1,46)             138.7274         estimate D2E/DX2                !
 ! A6    A(3,1,4)              135.7726         estimate D2E/DX2                !
 ! A7    A(3,1,5)              130.0236         estimate D2E/DX2                !
 ! A8    A(3,1,8)               87.0965         estimate D2E/DX2                !
 ! A9    A(3,1,46)              75.8281         estimate D2E/DX2                !
 ! A10   A(4,1,5)               84.1748         estimate D2E/DX2                !
 ! A11   A(4,1,8)               81.9212         estimate D2E/DX2                !
 ! A12   A(4,1,46)              80.8731         estimate D2E/DX2                !
 ! A13   A(5,1,8)              135.2757         estimate D2E/DX2                !
 ! A14   A(5,1,46)              85.7879         estimate D2E/DX2                !
 ! A15   A(8,1,46)             132.8854         estimate D2E/DX2                !
 ! A16   A(1,2,12)              84.0302         estimate D2E/DX2                !
 ! A17   A(1,2,21)              81.4752         estimate D2E/DX2                !
 ! A18   A(12,2,21)             82.2461         estimate D2E/DX2                !
 ! A19   A(1,3,45)              82.9466         estimate D2E/DX2                !
 ! A20   A(1,3,48)              80.8804         estimate D2E/DX2                !
 ! A21   A(45,3,48)             89.3915         estimate D2E/DX2                !
 ! A22   A(1,4,6)               82.3748         estimate D2E/DX2                !
 ! A23   A(1,4,9)               81.5785         estimate D2E/DX2                !
 ! A24   A(6,4,9)               82.6186         estimate D2E/DX2                !
 ! A25   A(1,5,12)              83.9981         estimate D2E/DX2                !
 ! A26   A(1,5,21)              80.6576         estimate D2E/DX2                !
 ! A27   A(12,5,21)             81.7253         estimate D2E/DX2                !
 ! A28   A(4,6,7)               82.1469         estimate D2E/DX2                !
 ! A29   A(4,6,8)               81.0602         estimate D2E/DX2                !
 ! A30   A(4,6,16)             134.7269         estimate D2E/DX2                !
 ! A31   A(4,6,43)             134.9361         estimate D2E/DX2                !
 ! A32   A(4,6,44)              83.5832         estimate D2E/DX2                !
 ! A33   A(7,6,8)              135.8106         estimate D2E/DX2                !
 ! A34   A(7,6,16)              81.3807         estimate D2E/DX2                !
 ! A35   A(7,6,43)             136.3673         estimate D2E/DX2                !
 ! A36   A(7,6,44)              81.1712         estimate D2E/DX2                !
 ! A37   A(8,6,16)              82.1158         estimate D2E/DX2                !
 ! A38   A(8,6,43)              80.9708         estimate D2E/DX2                !
 ! A39   A(8,6,44)             136.4339         estimate D2E/DX2                !
 ! A40   A(16,6,43)             82.5805         estimate D2E/DX2                !
 ! A41   A(16,6,44)            134.3409         estimate D2E/DX2                !
 ! A42   A(43,6,44)             81.715          estimate D2E/DX2                !
 ! A43   A(6,7,13)              81.8595         estimate D2E/DX2                !
 ! A44   A(6,7,18)              82.4773         estimate D2E/DX2                !
 ! A45   A(13,7,18)             82.1307         estimate D2E/DX2                !
 ! A46   A(1,8,6)               82.7301         estimate D2E/DX2                !
 ! A47   A(1,8,9)               81.434          estimate D2E/DX2                !
 ! A48   A(6,8,9)               82.9096         estimate D2E/DX2                !
 ! A49   A(4,9,8)               80.4137         estimate D2E/DX2                !
 ! A50   A(4,9,10)              81.506          estimate D2E/DX2                !
 ! A51   A(4,9,11)              83.8417         estimate D2E/DX2                !
 ! A52   A(4,9,15)             136.8534         estimate D2E/DX2                !
 ! A53   A(4,9,26)             134.6892         estimate D2E/DX2                !
 ! A54   A(8,9,10)             134.7574         estimate D2E/DX2                !
 ! A55   A(8,9,11)             135.5693         estimate D2E/DX2                !
 ! A56   A(8,9,15)              83.6044         estimate D2E/DX2                !
 ! A57   A(8,9,26)              82.1829         estimate D2E/DX2                !
 ! A58   A(10,9,11)             82.5467         estimate D2E/DX2                !
 ! A59   A(10,9,15)            134.7615         estimate D2E/DX2                !
 ! A60   A(10,9,26)             81.8268         estimate D2E/DX2                !
 ! A61   A(11,9,15)             80.1616         estimate D2E/DX2                !
 ! A62   A(11,9,26)            134.7882         estimate D2E/DX2                !
 ! A63   A(15,9,26)             81.4742         estimate D2E/DX2                !
 ! A64   A(9,10,13)             81.4817         estimate D2E/DX2                !
 ! A65   A(9,10,24)             81.7293         estimate D2E/DX2                !
 ! A66   A(13,10,24)            80.8592         estimate D2E/DX2                !
 ! A67   A(9,11,12)             82.6688         estimate D2E/DX2                !
 ! A68   A(9,11,27)             83.199          estimate D2E/DX2                !
 ! A69   A(12,11,27)            81.9168         estimate D2E/DX2                !
 ! A70   A(2,12,5)              80.5579         estimate D2E/DX2                !
 ! A71   A(2,12,11)            132.7761         estimate D2E/DX2                !
 ! A72   A(2,12,14)             83.5783         estimate D2E/DX2                !
 ! A73   A(2,12,15)             80.9597         estimate D2E/DX2                !
 ! A74   A(2,12,52)            136.2495         estimate D2E/DX2                !
 ! A75   A(5,12,11)             81.8903         estimate D2E/DX2                !
 ! A76   A(5,12,14)            136.8339         estimate D2E/DX2                !
 ! A77   A(5,12,15)            134.4842         estimate D2E/DX2                !
 ! A78   A(5,12,52)             82.662          estimate D2E/DX2                !
 ! A79   A(11,12,14)           135.4012         estimate D2E/DX2                !
 ! A80   A(11,12,15)            80.9419         estimate D2E/DX2                !
 ! A81   A(11,12,52)            83.6379         estimate D2E/DX2                !
 ! A82   A(14,12,15)            81.1994         estimate D2E/DX2                !
 ! A83   A(14,12,52)            81.6962         estimate D2E/DX2                !
 ! A84   A(15,12,52)           136.1914         estimate D2E/DX2                !
 ! A85   A(7,13,10)             83.1371         estimate D2E/DX2                !
 ! A86   A(7,13,16)             80.7252         estimate D2E/DX2                !
 ! A87   A(7,13,26)            136.6612         estimate D2E/DX2                !
 ! A88   A(7,13,37)             82.4855         estimate D2E/DX2                !
 ! A89   A(7,13,38)            133.0415         estimate D2E/DX2                !
 ! A90   A(10,13,16)           136.5314         estimate D2E/DX2                !
 ! A91   A(10,13,26)            82.6415         estimate D2E/DX2                !
 ! A92   A(10,13,37)            82.7713         estimate D2E/DX2                !
 ! A93   A(10,13,38)           135.6874         estimate D2E/DX2                !
 ! A94   A(16,13,26)            82.0806         estimate D2E/DX2                !
 ! A95   A(16,13,37)           133.9287         estimate D2E/DX2                !
 ! A96   A(16,13,38)            81.8798         estimate D2E/DX2                !
 ! A97   A(26,13,37)           135.4536         estimate D2E/DX2                !
 ! A98   A(26,13,38)            82.7271         estimate D2E/DX2                !
 ! A99   A(37,13,38)            79.0401         estimate D2E/DX2                !
 ! A100  A(12,14,51)            79.6633         estimate D2E/DX2                !
 ! A101  A(12,14,54)            77.5478         estimate D2E/DX2                !
 ! A102  A(9,15,12)             82.7625         estimate D2E/DX2                !
 ! A103  A(9,15,27)             83.2961         estimate D2E/DX2                !
 ! A104  A(12,15,27)            81.9172         estimate D2E/DX2                !
 ! A105  A(6,16,13)             81.8698         estimate D2E/DX2                !
 ! A106  A(6,16,18)             82.5139         estimate D2E/DX2                !
 ! A107  A(13,16,18)            82.427          estimate D2E/DX2                !
 ! A108  A(24,17,33)            80.3837         estimate D2E/DX2                !
 ! A109  A(24,17,36)            80.4893         estimate D2E/DX2                !
 ! A110  A(7,18,16)             81.5381         estimate D2E/DX2                !
 ! A111  A(7,18,19)             86.9733         estimate D2E/DX2                !
 ! A112  A(7,18,20)            134.8589         estimate D2E/DX2                !
 ! A113  A(7,18,39)             90.9858         estimate D2E/DX2                !
 ! A114  A(7,18,40)             79.8764         estimate D2E/DX2                !
 ! A115  A(7,18,62)            136.4213         estimate D2E/DX2                !
 ! A116  A(16,18,19)           135.1539         estimate D2E/DX2                !
 ! A117  A(16,18,20)            83.1776         estimate D2E/DX2                !
 ! A118  A(16,18,39)            91.2956         estimate D2E/DX2                !
 ! A119  A(16,18,40)           135.5049         estimate D2E/DX2                !
 ! A120  A(16,18,62)            82.1701         estimate D2E/DX2                !
 ! A121  A(19,18,20)            74.8398         estimate D2E/DX2                !
 ! A122  A(19,18,39)           132.3016         estimate D2E/DX2                !
 ! A123  A(19,18,40)            83.6532         estimate D2E/DX2                !
 ! A124  A(19,18,62)           131.204          estimate D2E/DX2                !
 ! A125  A(20,18,39)           131.6341         estimate D2E/DX2                !
 ! A126  A(20,18,40)           136.2935         estimate D2E/DX2                !
 ! A127  A(20,18,62)            82.3427         estimate D2E/DX2                !
 ! A128  A(40,18,62)            84.1472         estimate D2E/DX2                !
 ! A129  A(18,19,42)            83.0275         estimate D2E/DX2                !
 ! A130  A(18,19,65)            79.8282         estimate D2E/DX2                !
 ! A131  A(42,19,65)            93.2569         estimate D2E/DX2                !
 ! A132  A(18,20,42)            82.0519         estimate D2E/DX2                !
 ! A133  A(18,20,65)            81.1012         estimate D2E/DX2                !
 ! A134  A(42,20,65)            95.3297         estimate D2E/DX2                !
 ! A135  A(2,21,5)              82.4517         estimate D2E/DX2                !
 ! A136  A(2,21,22)             95.3928         estimate D2E/DX2                !
 ! A137  A(2,21,23)             88.5457         estimate D2E/DX2                !
 ! A138  A(2,21,48)             98.1407         estimate D2E/DX2                !
 ! A139  A(2,21,49)            139.4457         estimate D2E/DX2                !
 ! A140  A(2,21,63)            133.3418         estimate D2E/DX2                !
 ! A141  A(5,21,22)            133.0437         estimate D2E/DX2                !
 ! A142  A(5,21,23)            138.1786         estimate D2E/DX2                !
 ! A143  A(5,21,48)             88.2304         estimate D2E/DX2                !
 ! A144  A(5,21,49)             79.6222         estimate D2E/DX2                !
 ! A145  A(5,21,63)             99.6453         estimate D2E/DX2                !
 ! A146  A(22,21,23)            88.3182         estimate D2E/DX2                !
 ! A147  A(22,21,48)           137.9852         estimate D2E/DX2                !
 ! A148  A(22,21,49)           123.1961         estimate D2E/DX2                !
 ! A149  A(23,21,49)            81.307          estimate D2E/DX2                !
 ! A150  A(23,21,63)           115.6051         estimate D2E/DX2                !
 ! A151  A(48,21,63)           128.4316         estimate D2E/DX2                !
 ! A152  A(49,21,63)            85.6426         estimate D2E/DX2                !
 ! A153  A(21,22,51)            88.0608         estimate D2E/DX2                !
 ! A154  A(10,24,17)           135.7113         estimate D2E/DX2                !
 ! A155  A(10,24,25)            82.3777         estimate D2E/DX2                !
 ! A156  A(10,24,26)            82.535          estimate D2E/DX2                !
 ! A157  A(10,24,28)            82.1225         estimate D2E/DX2                !
 ! A158  A(10,24,29)           136.0197         estimate D2E/DX2                !
 ! A159  A(10,24,30)           131.4477         estimate D2E/DX2                !
 ! A160  A(17,24,25)            80.2001         estimate D2E/DX2                !
 ! A161  A(17,24,26)            82.189          estimate D2E/DX2                !
 ! A162  A(17,24,28)           134.7277         estimate D2E/DX2                !
 ! A163  A(17,24,29)            82.1312         estimate D2E/DX2                !
 ! A164  A(17,24,30)            88.3683         estimate D2E/DX2                !
 ! A165  A(25,24,26)           135.6441         estimate D2E/DX2                !
 ! A166  A(25,24,28)            82.7086         estimate D2E/DX2                !
 ! A167  A(25,24,29)           134.3464         estimate D2E/DX2                !
 ! A168  A(25,24,30)            88.2514         estimate D2E/DX2                !
 ! A169  A(26,24,28)           135.5847         estimate D2E/DX2                !
 ! A170  A(26,24,29)            82.2047         estimate D2E/DX2                !
 ! A171  A(26,24,30)           131.5716         estimate D2E/DX2                !
 ! A172  A(28,24,29)            80.6087         estimate D2E/DX2                !
 ! A173  A(24,25,33)            80.4188         estimate D2E/DX2                !
 ! A174  A(24,25,36)            80.519          estimate D2E/DX2                !
 ! A175  A(9,26,13)             81.5083         estimate D2E/DX2                !
 ! A176  A(9,26,24)             81.7675         estimate D2E/DX2                !
 ! A177  A(13,26,24)            80.9079         estimate D2E/DX2                !
 ! A178  A(11,27,15)            80.8848         estimate D2E/DX2                !
 ! A179  A(11,27,28)            81.7615         estimate D2E/DX2                !
 ! A180  A(11,27,29)           134.3934         estimate D2E/DX2                !
 ! A181  A(11,27,55)            83.1116         estimate D2E/DX2                !
 ! A182  A(11,27,56)           137.6244         estimate D2E/DX2                !
 ! A183  A(15,27,28)           133.8223         estimate D2E/DX2                !
 ! A184  A(15,27,29)            81.6813         estimate D2E/DX2                !
 ! A185  A(15,27,55)           136.9372         estimate D2E/DX2                !
 ! A186  A(15,27,56)            83.7242         estimate D2E/DX2                !
 ! A187  A(28,27,29)            80.7026         estimate D2E/DX2                !
 ! A188  A(28,27,55)            82.2078         estimate D2E/DX2                !
 ! A189  A(28,27,56)           134.3762         estimate D2E/DX2                !
 ! A190  A(29,27,55)           134.9468         estimate D2E/DX2                !
 ! A191  A(29,27,56)            81.1421         estimate D2E/DX2                !
 ! A192  A(55,27,56)            81.7891         estimate D2E/DX2                !
 ! A193  A(24,28,27)            82.7546         estimate D2E/DX2                !
 ! A194  A(27,28,30)            83.7369         estimate D2E/DX2                !
 ! A195  A(24,29,27)            82.8655         estimate D2E/DX2                !
 ! A196  A(27,29,30)            83.7766         estimate D2E/DX2                !
 ! A197  A(24,30,31)           147.0091         estimate D2E/DX2                !
 ! A198  A(24,30,32)            92.4177         estimate D2E/DX2                !
 ! A199  A(24,30,33)            61.8315         estimate D2E/DX2                !
 ! A200  A(24,30,34)            92.4358         estimate D2E/DX2                !
 ! A201  A(24,30,64)           146.2945         estimate D2E/DX2                !
 ! A202  A(28,30,29)            82.3023         estimate D2E/DX2                !
 ! A203  A(28,30,31)           131.4657         estimate D2E/DX2                !
 ! A204  A(28,30,32)           140.1749         estimate D2E/DX2                !
 ! A205  A(28,30,33)            93.5622         estimate D2E/DX2                !
 ! A206  A(28,30,34)            84.0303         estimate D2E/DX2                !
 ! A207  A(28,30,64)            95.9625         estimate D2E/DX2                !
 ! A208  A(29,30,31)            96.7651         estimate D2E/DX2                !
 ! A209  A(29,30,32)            83.4226         estimate D2E/DX2                !
 ! A210  A(29,30,33)            92.9493         estimate D2E/DX2                !
 ! A211  A(29,30,34)           139.8457         estimate D2E/DX2                !
 ! A212  A(29,30,64)           131.487          estimate D2E/DX2                !
 ! A213  A(31,30,32)            87.044          estimate D2E/DX2                !
 ! A214  A(31,30,33)           134.7649         estimate D2E/DX2                !
 ! A215  A(31,30,34)           120.184          estimate D2E/DX2                !
 ! A216  A(32,30,34)            83.3939         estimate D2E/DX2                !
 ! A217  A(32,30,64)           120.9601         estimate D2E/DX2                !
 ! A218  A(33,30,64)           135.3861         estimate D2E/DX2                !
 ! A219  A(34,30,64)            87.3603         estimate D2E/DX2                !
 ! A220  A(30,31,57)            88.0566         estimate D2E/DX2                !
 ! A221  A(17,33,25)            86.1061         estimate D2E/DX2                !
 ! A222  A(17,33,30)            90.9079         estimate D2E/DX2                !
 ! A223  A(17,33,32)            81.1678         estimate D2E/DX2                !
 ! A224  A(17,33,34)           136.6501         estimate D2E/DX2                !
 ! A225  A(17,33,59)           118.4493         estimate D2E/DX2                !
 ! A226  A(25,33,30)            90.7633         estimate D2E/DX2                !
 ! A227  A(25,33,32)           136.765          estimate D2E/DX2                !
 ! A228  A(25,33,34)            80.9493         estimate D2E/DX2                !
 ! A229  A(25,33,59)           118.3898         estimate D2E/DX2                !
 ! A230  A(30,33,36)           120.4678         estimate D2E/DX2                !
 ! A231  A(30,33,59)           138.2159         estimate D2E/DX2                !
 ! A232  A(32,33,34)            80.6216         estimate D2E/DX2                !
 ! A233  A(32,33,36)           131.5569         estimate D2E/DX2                !
 ! A234  A(32,33,59)           103.9155         estimate D2E/DX2                !
 ! A235  A(34,33,36)           131.3371         estimate D2E/DX2                !
 ! A236  A(34,33,59)           104.0165         estimate D2E/DX2                !
 ! A237  A(36,33,59)           101.316          estimate D2E/DX2                !
 ! A238  A(17,36,25)            85.9491         estimate D2E/DX2                !
 ! A239  A(17,36,35)           118.4875         estimate D2E/DX2                !
 ! A240  A(17,36,37)           137.2484         estimate D2E/DX2                !
 ! A241  A(17,36,38)            81.1066         estimate D2E/DX2                !
 ! A242  A(25,36,35)           118.4027         estimate D2E/DX2                !
 ! A243  A(25,36,37)            81.0261         estimate D2E/DX2                !
 ! A244  A(25,36,38)           137.2429         estimate D2E/DX2                !
 ! A245  A(33,36,35)           101.3819         estimate D2E/DX2                !
 ! A246  A(33,36,37)           131.3268         estimate D2E/DX2                !
 ! A247  A(33,36,38)           131.414          estimate D2E/DX2                !
 ! A248  A(35,36,37)           103.4433         estimate D2E/DX2                !
 ! A249  A(35,36,38)           103.5054         estimate D2E/DX2                !
 ! A250  A(37,36,38)            81.4583         estimate D2E/DX2                !
 ! A251  A(13,37,36)            82.4238         estimate D2E/DX2                !
 ! A252  A(13,37,39)            81.3141         estimate D2E/DX2                !
 ! A253  A(36,37,39)            83.6375         estimate D2E/DX2                !
 ! A254  A(13,38,36)            82.3864         estimate D2E/DX2                !
 ! A255  A(13,38,39)            81.6239         estimate D2E/DX2                !
 ! A256  A(36,38,39)            83.8602         estimate D2E/DX2                !
 ! A257  A(18,39,37)            92.8101         estimate D2E/DX2                !
 ! A258  A(18,39,38)            91.9257         estimate D2E/DX2                !
 ! A259  A(18,39,41)           124.1376         estimate D2E/DX2                !
 ! A260  A(18,39,68)            66.5441         estimate D2E/DX2                !
 ! A261  A(37,39,38)            81.7216         estimate D2E/DX2                !
 ! A262  A(37,39,40)            80.9418         estimate D2E/DX2                !
 ! A263  A(37,39,41)           132.9196         estimate D2E/DX2                !
 ! A264  A(37,39,62)           139.6117         estimate D2E/DX2                !
 ! A265  A(37,39,68)           134.0527         estimate D2E/DX2                !
 ! A266  A(38,39,40)           138.6727         estimate D2E/DX2                !
 ! A267  A(38,39,41)           120.2747         estimate D2E/DX2                !
 ! A268  A(38,39,62)            81.7025         estimate D2E/DX2                !
 ! A269  A(38,39,68)           136.2694         estimate D2E/DX2                !
 ! A270  A(40,39,41)            98.7634         estimate D2E/DX2                !
 ! A271  A(40,39,62)            87.7977         estimate D2E/DX2                !
 ! A272  A(41,39,62)            86.9912         estimate D2E/DX2                !
 ! A273  A(18,40,68)            83.7938         estimate D2E/DX2                !
 ! A274  A(19,42,20)            75.8012         estimate D2E/DX2                !
 ! A275  A(19,42,43)           139.6994         estimate D2E/DX2                !
 ! A276  A(19,42,44)            83.9785         estimate D2E/DX2                !
 ! A277  A(19,42,45)           135.7725         estimate D2E/DX2                !
 ! A278  A(19,42,61)           103.4968         estimate D2E/DX2                !
 ! A279  A(20,42,43)            83.6154         estimate D2E/DX2                !
 ! A280  A(20,42,44)           138.0386         estimate D2E/DX2                !
 ! A281  A(20,42,45)           135.2669         estimate D2E/DX2                !
 ! A282  A(20,42,61)           104.6818         estimate D2E/DX2                !
 ! A283  A(43,42,44)            89.0353         estimate D2E/DX2                !
 ! A284  A(43,42,61)           115.1745         estimate D2E/DX2                !
 ! A285  A(44,42,61)           115.7172         estimate D2E/DX2                !
 ! A286  A(45,42,61)            97.3157         estimate D2E/DX2                !
 ! A287  A(6,43,42)             79.1181         estimate D2E/DX2                !
 ! A288  A(6,43,45)             78.7214         estimate D2E/DX2                !
 ! A289  A(6,44,42)             79.3485         estimate D2E/DX2                !
 ! A290  A(6,44,45)             78.7483         estimate D2E/DX2                !
 ! A291  A(3,45,42)            136.8576         estimate D2E/DX2                !
 ! A292  A(3,45,43)             85.0541         estimate D2E/DX2                !
 ! A293  A(3,45,44)            140.3217         estimate D2E/DX2                !
 ! A294  A(3,45,46)             77.121          estimate D2E/DX2                !
 ! A295  A(3,45,47)            103.7678         estimate D2E/DX2                !
 ! A296  A(42,45,46)           133.0585         estimate D2E/DX2                !
 ! A297  A(42,45,47)            96.2903         estimate D2E/DX2                !
 ! A298  A(43,45,44)            88.9372         estimate D2E/DX2                !
 ! A299  A(43,45,46)           137.8205         estimate D2E/DX2                !
 ! A300  A(43,45,47)           115.4386         estimate D2E/DX2                !
 ! A301  A(44,45,46)            81.5311         estimate D2E/DX2                !
 ! A302  A(44,45,47)           114.1295         estimate D2E/DX2                !
 ! A303  A(46,45,47)           105.8858         estimate D2E/DX2                !
 ! A304  A(1,46,45)             82.3267         estimate D2E/DX2                !
 ! A305  A(1,46,48)             82.1924         estimate D2E/DX2                !
 ! A306  A(45,46,48)            92.2103         estimate D2E/DX2                !
 ! A307  A(3,48,21)             86.8479         estimate D2E/DX2                !
 ! A308  A(3,48,23)             76.9113         estimate D2E/DX2                !
 ! A309  A(3,48,46)             78.4429         estimate D2E/DX2                !
 ! A310  A(3,48,49)            138.5019         estimate D2E/DX2                !
 ! A311  A(3,48,50)            115.2561         estimate D2E/DX2                !
 ! A312  A(21,48,46)            98.2501         estimate D2E/DX2                !
 ! A313  A(21,48,50)           142.939          estimate D2E/DX2                !
 ! A314  A(23,48,46)           137.8042         estimate D2E/DX2                !
 ! A315  A(23,48,49)            83.0883         estimate D2E/DX2                !
 ! A316  A(23,48,50)           106.8478         estimate D2E/DX2                !
 ! A317  A(46,48,49)            93.5351         estimate D2E/DX2                !
 ! A318  A(46,48,50)           114.5388         estimate D2E/DX2                !
 ! A319  A(49,48,50)           105.1783         estimate D2E/DX2                !
 ! A320  A(14,51,22)            92.7989         estimate D2E/DX2                !
 ! A321  A(14,51,52)            91.8078         estimate D2E/DX2                !
 ! A322  A(14,51,60)           115.379          estimate D2E/DX2                !
 ! A323  A(14,51,63)           133.4771         estimate D2E/DX2                !
 ! A324  A(22,51,52)           134.1933         estimate D2E/DX2                !
 ! A325  A(22,51,54)           145.6674         estimate D2E/DX2                !
 ! A326  A(22,51,60)           102.556          estimate D2E/DX2                !
 ! A327  A(52,51,60)           116.216          estimate D2E/DX2                !
 ! A328  A(52,51,63)            96.7461         estimate D2E/DX2                !
 ! A329  A(54,51,60)            97.8927         estimate D2E/DX2                !
 ! A330  A(54,51,63)           149.5377         estimate D2E/DX2                !
 ! A331  A(60,51,63)           101.3816         estimate D2E/DX2                !
 ! A332  A(12,52,51)            79.6811         estimate D2E/DX2                !
 ! A333  A(12,52,54)            77.7195         estimate D2E/DX2                !
 ! A334  A(14,54,52)            86.7267         estimate D2E/DX2                !
 ! A335  A(14,54,53)           110.7987         estimate D2E/DX2                !
 ! A336  A(14,54,55)           142.8893         estimate D2E/DX2                !
 ! A337  A(14,54,56)            82.301          estimate D2E/DX2                !
 ! A338  A(14,54,57)           131.4114         estimate D2E/DX2                !
 ! A339  A(51,54,53)            90.8814         estimate D2E/DX2                !
 ! A340  A(51,54,55)           133.392          estimate D2E/DX2                !
 ! A341  A(51,54,56)           132.0886         estimate D2E/DX2                !
 ! A342  A(52,54,53)           110.2577         estimate D2E/DX2                !
 ! A343  A(52,54,55)            83.2308         estimate D2E/DX2                !
 ! A344  A(52,54,56)           144.1385         estimate D2E/DX2                !
 ! A345  A(52,54,57)           132.3309         estimate D2E/DX2                !
 ! A346  A(53,54,55)           106.1987         estimate D2E/DX2                !
 ! A347  A(53,54,56)           105.5581         estimate D2E/DX2                !
 ! A348  A(53,54,57)            84.517          estimate D2E/DX2                !
 ! A349  A(55,54,56)            85.2563         estimate D2E/DX2                !
 ! A350  A(27,55,54)            77.0403         estimate D2E/DX2                !
 ! A351  A(27,55,57)            80.4053         estimate D2E/DX2                !
 ! A352  A(27,56,54)            77.0756         estimate D2E/DX2                !
 ! A353  A(27,56,57)            80.4309         estimate D2E/DX2                !
 ! A354  A(31,57,54)           147.5956         estimate D2E/DX2                !
 ! A355  A(31,57,55)           134.4896         estimate D2E/DX2                !
 ! A356  A(31,57,56)            95.1589         estimate D2E/DX2                !
 ! A357  A(31,57,58)            99.961          estimate D2E/DX2                !
 ! A358  A(54,57,58)            99.8808         estimate D2E/DX2                !
 ! A359  A(54,57,64)           147.7414         estimate D2E/DX2                !
 ! A360  A(55,57,56)            91.0428         estimate D2E/DX2                !
 ! A361  A(55,57,58)           116.9021         estimate D2E/DX2                !
 ! A362  A(55,57,64)            95.3464         estimate D2E/DX2                !
 ! A363  A(56,57,58)           117.0993         estimate D2E/DX2                !
 ! A364  A(56,57,64)           133.8731         estimate D2E/DX2                !
 ! A365  A(58,57,64)           100.2905         estimate D2E/DX2                !
 ! A366  A(18,62,68)            83.3784         estimate D2E/DX2                !
 ! A367  A(21,63,51)            87.8497         estimate D2E/DX2                !
 ! A368  A(30,64,57)            87.948          estimate D2E/DX2                !
 ! A369  A(19,65,20)            76.6052         estimate D2E/DX2                !
 ! A370  A(19,65,66)            76.0523         estimate D2E/DX2                !
 ! A371  A(19,65,67)           112.5102         estimate D2E/DX2                !
 ! A372  A(19,65,69)           139.8038         estimate D2E/DX2                !
 ! A373  A(20,65,66)           138.5342         estimate D2E/DX2                !
 ! A374  A(20,65,67)           108.8922         estimate D2E/DX2                !
 ! A375  A(20,65,69)            96.9111         estimate D2E/DX2                !
 ! A376  A(66,65,67)           110.1265         estimate D2E/DX2                !
 ! A377  A(66,65,69)            84.6382         estimate D2E/DX2                !
 ! A378  A(67,65,69)           107.143          estimate D2E/DX2                !
 ! A379  A(65,66,68)            78.6506         estimate D2E/DX2                !
 ! A380  A(65,66,71)           114.0382         estimate D2E/DX2                !
 ! A381  A(68,66,71)            81.0845         estimate D2E/DX2                !
 ! A382  A(39,68,66)           129.7326         estimate D2E/DX2                !
 ! A383  A(39,68,69)           132.183          estimate D2E/DX2                !
 ! A384  A(39,68,70)           122.1746         estimate D2E/DX2                !
 ! A385  A(40,68,41)            91.5239         estimate D2E/DX2                !
 ! A386  A(40,68,62)            86.852          estimate D2E/DX2                !
 ! A387  A(40,68,66)            76.1356         estimate D2E/DX2                !
 ! A388  A(40,68,69)           132.616          estimate D2E/DX2                !
 ! A389  A(40,68,70)           125.675          estimate D2E/DX2                !
 ! A390  A(41,68,62)            80.1094         estimate D2E/DX2                !
 ! A391  A(41,68,66)           148.3979         estimate D2E/DX2                !
 ! A392  A(41,68,69)           128.979          estimate D2E/DX2                !
 ! A393  A(41,68,70)            74.802          estimate D2E/DX2                !
 ! A394  A(62,68,66)           127.0409         estimate D2E/DX2                !
 ! A395  A(62,68,69)            78.7574         estimate D2E/DX2                !
 ! A396  A(62,68,70)           138.6195         estimate D2E/DX2                !
 ! A397  A(66,68,69)            77.4021         estimate D2E/DX2                !
 ! A398  A(66,68,70)            88.8111         estimate D2E/DX2                !
 ! A399  A(69,68,70)            92.0536         estimate D2E/DX2                !
 ! A400  A(65,69,68)            86.7772         estimate D2E/DX2                !
 ! A401  A(68,70,71)            86.9771         estimate D2E/DX2                !
 ! A402  A(66,71,70)            99.6549         estimate D2E/DX2                !
 ! A403  A(66,71,72)           108.425          estimate D2E/DX2                !
 ! A404  A(66,71,73)           119.6772         estimate D2E/DX2                !
 ! A405  A(70,71,72)           107.0727         estimate D2E/DX2                !
 ! A406  A(70,71,73)           111.0797         estimate D2E/DX2                !
 ! A407  A(72,71,73)           109.9406         estimate D2E/DX2                !
 ! A408  L(51,54,57,53,-1)     175.3984         estimate D2E/DX2                !
 ! A409  L(51,54,57,53,-2)     180.6925         estimate D2E/DX2                !
 ! D1    D(3,1,2,12)           172.7964         estimate D2E/DX2                !
 ! D2    D(3,1,2,21)            89.7747         estimate D2E/DX2                !
 ! D3    D(4,1,2,12)           -30.8906         estimate D2E/DX2                !
 ! D4    D(4,1,2,21)          -113.9122         estimate D2E/DX2                !
 ! D5    D(5,1,2,12)            40.3888         estimate D2E/DX2                !
 ! D6    D(5,1,2,21)           -42.6328         estimate D2E/DX2                !
 ! D7    D(8,1,2,12)           -99.1683         estimate D2E/DX2                !
 ! D8    D(8,1,2,21)           177.8101         estimate D2E/DX2                !
 ! D9    D(46,1,2,12)          112.1654         estimate D2E/DX2                !
 ! D10   D(46,1,2,21)           29.1438         estimate D2E/DX2                !
 ! D11   D(2,1,3,45)           170.6378         estimate D2E/DX2                !
 ! D12   D(2,1,3,48)           -98.8451         estimate D2E/DX2                !
 ! D13   D(4,1,3,45)            14.6722         estimate D2E/DX2                !
 ! D14   D(4,1,3,48)           105.1892         estimate D2E/DX2                !
 ! D15   D(5,1,3,45)          -117.6071         estimate D2E/DX2                !
 ! D16   D(5,1,3,48)           -27.09           estimate D2E/DX2                !
 ! D17   D(8,1,3,45)            89.967          estimate D2E/DX2                !
 ! D18   D(8,1,3,48)          -179.5159         estimate D2E/DX2                !
 ! D19   D(46,1,3,45)          -45.7259         estimate D2E/DX2                !
 ! D20   D(46,1,3,48)           44.7912         estimate D2E/DX2                !
 ! D21   D(2,1,4,6)           -108.5578         estimate D2E/DX2                !
 ! D22   D(2,1,4,9)            -24.943          estimate D2E/DX2                !
 ! D23   D(3,1,4,6)             36.4871         estimate D2E/DX2                !
 ! D24   D(3,1,4,9)            120.1019         estimate D2E/DX2                !
 ! D25   D(5,1,4,6)           -178.2298         estimate D2E/DX2                !
 ! D26   D(5,1,4,9)            -94.6151         estimate D2E/DX2                !
 ! D27   D(8,1,4,6)            -40.8525         estimate D2E/DX2                !
 ! D28   D(8,1,4,9)             42.7623         estimate D2E/DX2                !
 ! D29   D(46,1,4,6)            95.1174         estimate D2E/DX2                !
 ! D30   D(46,1,4,9)           178.7321         estimate D2E/DX2                !
 ! D31   D(2,1,5,12)           -40.5277         estimate D2E/DX2                !
 ! D32   D(2,1,5,21)            42.0397         estimate D2E/DX2                !
 ! D33   D(3,1,5,12)          -114.0906         estimate D2E/DX2                !
 ! D34   D(3,1,5,21)           -31.5233         estimate D2E/DX2                !
 ! D35   D(4,1,5,12)            97.1577         estimate D2E/DX2                !
 ! D36   D(4,1,5,21)           179.725          estimate D2E/DX2                !
 ! D37   D(8,1,5,12)            24.8409         estimate D2E/DX2                !
 ! D38   D(8,1,5,21)           107.4082         estimate D2E/DX2                !
 ! D39   D(46,1,5,12)          178.3937         estimate D2E/DX2                !
 ! D40   D(46,1,5,21)          -99.0389         estimate D2E/DX2                !
 ! D41   D(2,1,8,6)            179.6361         estimate D2E/DX2                !
 ! D42   D(2,1,8,9)             95.7568         estimate D2E/DX2                !
 ! D43   D(3,1,8,6)            -95.841          estimate D2E/DX2                !
 ! D44   D(3,1,8,9)           -179.7203         estimate D2E/DX2                !
 ! D45   D(4,1,8,6)             41.2039         estimate D2E/DX2                !
 ! D46   D(4,1,8,9)            -42.6754         estimate D2E/DX2                !
 ! D47   D(5,1,8,6)            114.4063         estimate D2E/DX2                !
 ! D48   D(5,1,8,9)             30.527          estimate D2E/DX2                !
 ! D49   D(46,1,8,6)           -28.2788         estimate D2E/DX2                !
 ! D50   D(46,1,8,9)          -112.1581         estimate D2E/DX2                !
 ! D51   D(2,1,46,45)          109.4541         estimate D2E/DX2                !
 ! D52   D(2,1,46,48)           16.1432         estimate D2E/DX2                !
 ! D53   D(3,1,46,45)           46.0601         estimate D2E/DX2                !
 ! D54   D(3,1,46,48)          -47.2508         estimate D2E/DX2                !
 ! D55   D(4,1,46,45)          -96.0428         estimate D2E/DX2                !
 ! D56   D(4,1,46,48)          170.6463         estimate D2E/DX2                !
 ! D57   D(5,1,46,45)          179.1922         estimate D2E/DX2                !
 ! D58   D(5,1,46,48)           85.8813         estimate D2E/DX2                !
 ! D59   D(8,1,46,45)          -26.1315         estimate D2E/DX2                !
 ! D60   D(8,1,46,48)         -119.4424         estimate D2E/DX2                !
 ! D61   D(1,2,12,5)           -40.7194         estimate D2E/DX2                !
 ! D62   D(1,2,12,11)           28.8728         estimate D2E/DX2                !
 ! D63   D(1,2,12,14)          179.5709         estimate D2E/DX2                !
 ! D64   D(1,2,12,15)           97.5025         estimate D2E/DX2                !
 ! D65   D(1,2,12,52)         -109.5605         estimate D2E/DX2                !
 ! D66   D(21,2,12,5)           41.4535         estimate D2E/DX2                !
 ! D67   D(21,2,12,11)         111.0458         estimate D2E/DX2                !
 ! D68   D(21,2,12,14)         -98.2561         estimate D2E/DX2                !
 ! D69   D(21,2,12,15)         179.6755         estimate D2E/DX2                !
 ! D70   D(21,2,12,52)         -27.3875         estimate D2E/DX2                !
 ! D71   D(1,2,21,5)            43.3184         estimate D2E/DX2                !
 ! D72   D(1,2,21,22)          176.0898         estimate D2E/DX2                !
 ! D73   D(1,2,21,23)          -95.7374         estimate D2E/DX2                !
 ! D74   D(1,2,21,48)          -43.7914         estimate D2E/DX2                !
 ! D75   D(1,2,21,49)          -20.9385         estimate D2E/DX2                !
 ! D76   D(1,2,21,63)          139.4803         estimate D2E/DX2                !
 ! D77   D(12,2,21,5)          -41.7639         estimate D2E/DX2                !
 ! D78   D(12,2,21,22)          91.0075         estimate D2E/DX2                !
 ! D79   D(12,2,21,23)         179.1803         estimate D2E/DX2                !
 ! D80   D(12,2,21,48)        -128.8737         estimate D2E/DX2                !
 ! D81   D(12,2,21,49)        -106.0208         estimate D2E/DX2                !
 ! D82   D(12,2,21,63)          54.3981         estimate D2E/DX2                !
 ! D83   D(1,3,45,42)          -94.4137         estimate D2E/DX2                !
 ! D84   D(1,3,45,43)          -94.6493         estimate D2E/DX2                !
 ! D85   D(1,3,45,44)          -12.3197         estimate D2E/DX2                !
 ! D86   D(1,3,45,46)           46.8679         estimate D2E/DX2                !
 ! D87   D(1,3,45,47)          150.3456         estimate D2E/DX2                !
 ! D88   D(48,3,45,42)        -175.2997         estimate D2E/DX2                !
 ! D89   D(48,3,45,43)        -175.5353         estimate D2E/DX2                !
 ! D90   D(48,3,45,44)         -93.2057         estimate D2E/DX2                !
 ! D91   D(48,3,45,46)         -34.0181         estimate D2E/DX2                !
 ! D92   D(48,3,45,47)          69.4596         estimate D2E/DX2                !
 ! D93   D(1,3,48,21)           51.3471         estimate D2E/DX2                !
 ! D94   D(1,3,48,23)           97.7362         estimate D2E/DX2                !
 ! D95   D(1,3,48,46)          -47.7407         estimate D2E/DX2                !
 ! D96   D(1,3,48,49)           34.4334         estimate D2E/DX2                !
 ! D97   D(1,3,48,50)         -159.5943         estimate D2E/DX2                !
 ! D98   D(45,3,48,21)         134.301          estimate D2E/DX2                !
 ! D99   D(45,3,48,23)        -179.3099         estimate D2E/DX2                !
 ! D100  D(45,3,48,46)          35.2132         estimate D2E/DX2                !
 ! D101  D(45,3,48,49)         117.3872         estimate D2E/DX2                !
 ! D102  D(45,3,48,50)         -76.6404         estimate D2E/DX2                !
 ! D103  D(1,4,6,7)            179.7247         estimate D2E/DX2                !
 ! D104  D(1,4,6,8)             40.7494         estimate D2E/DX2                !
 ! D105  D(1,4,6,16)           110.1849         estimate D2E/DX2                !
 ! D106  D(1,4,6,43)           -26.8313         estimate D2E/DX2                !
 ! D107  D(1,4,6,44)           -98.3464         estimate D2E/DX2                !
 ! D108  D(9,4,6,7)             97.2898         estimate D2E/DX2                !
 ! D109  D(9,4,6,8)            -41.6855         estimate D2E/DX2                !
 ! D110  D(9,4,6,16)            27.75           estimate D2E/DX2                !
 ! D111  D(9,4,6,43)          -109.2662         estimate D2E/DX2                !
 ! D112  D(9,4,6,44)           179.2187         estimate D2E/DX2                !
 ! D113  D(1,4,9,8)            -42.142          estimate D2E/DX2                !
 ! D114  D(1,4,9,10)           179.5079         estimate D2E/DX2                !
 ! D115  D(1,4,9,11)            96.1579         estimate D2E/DX2                !
 ! D116  D(1,4,9,15)            27.653          estimate D2E/DX2                !
 ! D117  D(1,4,9,26)          -110.9747         estimate D2E/DX2                !
 ! D118  D(6,4,9,8)             41.1921         estimate D2E/DX2                !
 ! D119  D(6,4,9,10)           -97.158          estimate D2E/DX2                !
 ! D120  D(6,4,9,11)           179.492          estimate D2E/DX2                !
 ! D121  D(6,4,9,15)           110.9871         estimate D2E/DX2                !
 ! D122  D(6,4,9,26)           -27.6406         estimate D2E/DX2                !
 ! D123  D(1,5,12,2)            40.5566         estimate D2E/DX2                !
 ! D124  D(1,5,12,11)          -95.4248         estimate D2E/DX2                !
 ! D125  D(1,5,12,14)          110.4943         estimate D2E/DX2                !
 ! D126  D(1,5,12,15)          -26.7002         estimate D2E/DX2                !
 ! D127  D(1,5,12,52)          179.998          estimate D2E/DX2                !
 ! D128  D(21,5,12,2)          -40.8365         estimate D2E/DX2                !
 ! D129  D(21,5,12,11)        -176.8179         estimate D2E/DX2                !
 ! D130  D(21,5,12,14)          29.1013         estimate D2E/DX2                !
 ! D131  D(21,5,12,15)        -108.0933         estimate D2E/DX2                !
 ! D132  D(21,5,12,52)          98.605          estimate D2E/DX2                !
 ! D133  D(1,5,21,2)           -43.2575         estimate D2E/DX2                !
 ! D134  D(1,5,21,22)         -133.5993         estimate D2E/DX2                !
 ! D135  D(1,5,21,23)           35.9946         estimate D2E/DX2                !
 ! D136  D(1,5,21,48)           55.1959         estimate D2E/DX2                !
 ! D137  D(1,5,21,49)          100.2028         estimate D2E/DX2                !
 ! D138  D(1,5,21,63)         -176.0821         estimate D2E/DX2                !
 ! D139  D(12,5,21,2)           41.9725         estimate D2E/DX2                !
 ! D140  D(12,5,21,22)         -48.3692         estimate D2E/DX2                !
 ! D141  D(12,5,21,23)         121.2246         estimate D2E/DX2                !
 ! D142  D(12,5,21,48)         140.4259         estimate D2E/DX2                !
 ! D143  D(12,5,21,49)        -174.5672         estimate D2E/DX2                !
 ! D144  D(12,5,21,63)         -90.8521         estimate D2E/DX2                !
 ! D145  D(4,6,7,13)           -95.4713         estimate D2E/DX2                !
 ! D146  D(4,6,7,18)          -178.5435         estimate D2E/DX2                !
 ! D147  D(8,6,7,13)           -26.9982         estimate D2E/DX2                !
 ! D148  D(8,6,7,18)          -110.0703         estimate D2E/DX2                !
 ! D149  D(16,6,7,13)           42.2101         estimate D2E/DX2                !
 ! D150  D(16,6,7,18)          -40.8621         estimate D2E/DX2                !
 ! D151  D(43,6,7,13)          111.8285         estimate D2E/DX2                !
 ! D152  D(43,6,7,18)           28.7563         estimate D2E/DX2                !
 ! D153  D(44,6,7,13)          179.8505         estimate D2E/DX2                !
 ! D154  D(44,6,7,18)           96.7783         estimate D2E/DX2                !
 ! D155  D(4,6,8,1)            -40.6659         estimate D2E/DX2                !
 ! D156  D(4,6,8,9)             41.5498         estimate D2E/DX2                !
 ! D157  D(7,6,8,1)           -109.55           estimate D2E/DX2                !
 ! D158  D(7,6,8,9)            -27.3343         estimate D2E/DX2                !
 ! D159  D(16,6,8,1)          -178.4795         estimate D2E/DX2                !
 ! D160  D(16,6,8,9)           -96.2638         estimate D2E/DX2                !
 ! D161  D(43,6,8,1)            97.8355         estimate D2E/DX2                !
 ! D162  D(43,6,8,9)          -179.9488         estimate D2E/DX2                !
 ! D163  D(44,6,8,1)            30.0932         estimate D2E/DX2                !
 ! D164  D(44,6,8,9)           112.3089         estimate D2E/DX2                !
 ! D165  D(4,6,16,13)           27.4912         estimate D2E/DX2                !
 ! D166  D(4,6,16,18)          110.8588         estimate D2E/DX2                !
 ! D167  D(7,6,16,13)          -42.3482         estimate D2E/DX2                !
 ! D168  D(7,6,16,18)           41.0193         estimate D2E/DX2                !
 ! D169  D(8,6,16,13)           96.5151         estimate D2E/DX2                !
 ! D170  D(8,6,16,18)          179.8826         estimate D2E/DX2                !
 ! D171  D(43,6,16,13)         178.3665         estimate D2E/DX2                !
 ! D172  D(43,6,16,18)         -98.2659         estimate D2E/DX2                !
 ! D173  D(44,6,16,13)        -110.9291         estimate D2E/DX2                !
 ! D174  D(44,6,16,18)         -27.5616         estimate D2E/DX2                !
 ! D175  D(4,6,43,42)         -110.9981         estimate D2E/DX2                !
 ! D176  D(4,6,43,45)          -32.7743         estimate D2E/DX2                !
 ! D177  D(7,6,43,42)           29.0739         estimate D2E/DX2                !
 ! D178  D(7,6,43,45)          107.2977         estimate D2E/DX2                !
 ! D179  D(8,6,43,42)         -178.6131         estimate D2E/DX2                !
 ! D180  D(8,6,43,45)         -100.3893         estimate D2E/DX2                !
 ! D181  D(16,6,43,42)          98.2427         estimate D2E/DX2                !
 ! D182  D(16,6,43,45)         176.4665         estimate D2E/DX2                !
 ! D183  D(44,6,43,42)         -38.7463         estimate D2E/DX2                !
 ! D184  D(44,6,43,45)          39.4775         estimate D2E/DX2                !
 ! D185  D(4,6,44,42)          176.1668         estimate D2E/DX2                !
 ! D186  D(4,6,44,45)           97.8417         estimate D2E/DX2                !
 ! D187  D(7,6,44,42)         -100.822          estimate D2E/DX2                !
 ! D188  D(7,6,44,45)         -179.1471         estimate D2E/DX2                !
 ! D189  D(8,6,44,42)          106.3571         estimate D2E/DX2                !
 ! D190  D(8,6,44,45)           28.032          estimate D2E/DX2                !
 ! D191  D(16,6,44,42)         -32.1589         estimate D2E/DX2                !
 ! D192  D(16,6,44,45)        -110.4841         estimate D2E/DX2                !
 ! D193  D(43,6,44,42)          38.8897         estimate D2E/DX2                !
 ! D194  D(43,6,44,45)         -39.4354         estimate D2E/DX2                !
 ! D195  D(6,7,13,10)           97.402          estimate D2E/DX2                !
 ! D196  D(6,7,13,16)          -42.091          estimate D2E/DX2                !
 ! D197  D(6,7,13,26)           25.7936         estimate D2E/DX2                !
 ! D198  D(6,7,13,37)         -179.0263         estimate D2E/DX2                !
 ! D199  D(6,7,13,38)         -111.7058         estimate D2E/DX2                !
 ! D200  D(18,7,13,10)        -179.1288         estimate D2E/DX2                !
 ! D201  D(18,7,13,16)          41.3782         estimate D2E/DX2                !
 ! D202  D(18,7,13,26)         109.2628         estimate D2E/DX2                !
 ! D203  D(18,7,13,37)         -95.5571         estimate D2E/DX2                !
 ! D204  D(18,7,13,38)         -28.2366         estimate D2E/DX2                !
 ! D205  D(6,7,18,16)           41.0642         estimate D2E/DX2                !
 ! D206  D(6,7,18,19)          -95.4608         estimate D2E/DX2                !
 ! D207  D(6,7,18,20)          -30.4259         estimate D2E/DX2                !
 ! D208  D(6,7,18,39)          132.2275         estimate D2E/DX2                !
 ! D209  D(6,7,18,40)         -179.5483         estimate D2E/DX2                !
 ! D210  D(6,7,18,62)          110.2009         estimate D2E/DX2                !
 ! D211  D(13,7,18,16)         -41.701          estimate D2E/DX2                !
 ! D212  D(13,7,18,19)        -178.226          estimate D2E/DX2                !
 ! D213  D(13,7,18,20)        -113.1911         estimate D2E/DX2                !
 ! D214  D(13,7,18,39)          49.4624         estimate D2E/DX2                !
 ! D215  D(13,7,18,40)          97.6866         estimate D2E/DX2                !
 ! D216  D(13,7,18,62)          27.4357         estimate D2E/DX2                !
 ! D217  D(1,8,9,4)             42.1156         estimate D2E/DX2                !
 ! D218  D(1,8,9,10)           109.8796         estimate D2E/DX2                !
 ! D219  D(1,8,9,11)           -28.7557         estimate D2E/DX2                !
 ! D220  D(1,8,9,15)           -97.6584         estimate D2E/DX2                !
 ! D221  D(1,8,9,26)          -179.8885         estimate D2E/DX2                !
 ! D222  D(6,8,9,4)            -41.5563         estimate D2E/DX2                !
 ! D223  D(6,8,9,10)            26.2077         estimate D2E/DX2                !
 ! D224  D(6,8,9,11)          -112.4276         estimate D2E/DX2                !
 ! D225  D(6,8,9,15)           178.6697         estimate D2E/DX2                !
 ! D226  D(6,8,9,26)            96.4396         estimate D2E/DX2                !
 ! D227  D(4,9,10,13)           96.6471         estimate D2E/DX2                !
 ! D228  D(4,9,10,24)          178.5674         estimate D2E/DX2                !
 ! D229  D(8,9,10,13)           29.3037         estimate D2E/DX2                !
 ! D230  D(8,9,10,24)          111.2241         estimate D2E/DX2                !
 ! D231  D(11,9,10,13)        -178.508          estimate D2E/DX2                !
 ! D232  D(11,9,10,24)         -96.5876         estimate D2E/DX2                !
 ! D233  D(15,9,10,13)        -110.374          estimate D2E/DX2                !
 ! D234  D(15,9,10,24)         -28.4536         estimate D2E/DX2                !
 ! D235  D(26,9,10,13)         -41.0679         estimate D2E/DX2                !
 ! D236  D(26,9,10,24)          40.8525         estimate D2E/DX2                !
 ! D237  D(4,9,11,12)          -98.154          estimate D2E/DX2                !
 ! D238  D(4,9,11,27)          179.1671         estimate D2E/DX2                !
 ! D239  D(8,9,11,12)          -28.6005         estimate D2E/DX2                !
 ! D240  D(8,9,11,27)         -111.2794         estimate D2E/DX2                !
 ! D241  D(10,9,11,12)         179.6459         estimate D2E/DX2                !
 ! D242  D(10,9,11,27)          96.967          estimate D2E/DX2                !
 ! D243  D(15,9,11,12)          41.6202         estimate D2E/DX2                !
 ! D244  D(15,9,11,27)         -41.0587         estimate D2E/DX2                !
 ! D245  D(26,9,11,12)         109.0289         estimate D2E/DX2                !
 ! D246  D(26,9,11,27)          26.3501         estimate D2E/DX2                !
 ! D247  D(4,9,15,12)           28.257          estimate D2E/DX2                !
 ! D248  D(4,9,15,27)          110.9156         estimate D2E/DX2                !
 ! D249  D(8,9,15,12)           96.8723         estimate D2E/DX2                !
 ! D250  D(8,9,15,27)          179.5309         estimate D2E/DX2                !
 ! D251  D(10,9,15,12)        -110.6679         estimate D2E/DX2                !
 ! D252  D(10,9,15,27)         -28.0093         estimate D2E/DX2                !
 ! D253  D(11,9,15,12)         -41.6085         estimate D2E/DX2                !
 ! D254  D(11,9,15,27)          41.0501         estimate D2E/DX2                !
 ! D255  D(26,9,15,12)         179.8885         estimate D2E/DX2                !
 ! D256  D(26,9,15,27)         -97.4529         estimate D2E/DX2                !
 ! D257  D(4,9,26,13)          -28.3085         estimate D2E/DX2                !
 ! D258  D(4,9,26,24)         -110.2702         estimate D2E/DX2                !
 ! D259  D(8,9,26,13)          -96.4542         estimate D2E/DX2                !
 ! D260  D(8,9,26,24)         -178.4159         estimate D2E/DX2                !
 ! D261  D(10,9,26,13)          41.0835         estimate D2E/DX2                !
 ! D262  D(10,9,26,24)         -40.8782         estimate D2E/DX2                !
 ! D263  D(11,9,26,13)         111.9835         estimate D2E/DX2                !
 ! D264  D(11,9,26,24)          30.0218         estimate D2E/DX2                !
 ! D265  D(15,9,26,13)         178.8885         estimate D2E/DX2                !
 ! D266  D(15,9,26,24)          96.9268         estimate D2E/DX2                !
 ! D267  D(9,10,13,7)          -97.569          estimate D2E/DX2                !
 ! D268  D(9,10,13,16)         -28.8494         estimate D2E/DX2                !
 ! D269  D(9,10,13,26)          41.385          estimate D2E/DX2                !
 ! D270  D(9,10,13,37)         179.1794         estimate D2E/DX2                !
 ! D271  D(9,10,13,38)         113.0241         estimate D2E/DX2                !
 ! D272  D(24,10,13,7)         179.5093         estimate D2E/DX2                !
 ! D273  D(24,10,13,16)       -111.7711         estimate D2E/DX2                !
 ! D274  D(24,10,13,26)        -41.5367         estimate D2E/DX2                !
 ! D275  D(24,10,13,37)         96.2577         estimate D2E/DX2                !
 ! D276  D(24,10,13,38)         30.1024         estimate D2E/DX2                !
 ! D277  D(9,10,24,17)        -111.8257         estimate D2E/DX2                !
 ! D278  D(9,10,24,25)        -179.2987         estimate D2E/DX2                !
 ! D279  D(9,10,24,26)         -41.1322         estimate D2E/DX2                !
 ! D280  D(9,10,24,28)          97.0599         estimate D2E/DX2                !
 ! D281  D(9,10,24,29)          29.4306         estimate D2E/DX2                !
 ! D282  D(9,10,24,30)          99.8647         estimate D2E/DX2                !
 ! D283  D(13,10,24,17)        -29.1923         estimate D2E/DX2                !
 ! D284  D(13,10,24,25)        -96.6654         estimate D2E/DX2                !
 ! D285  D(13,10,24,26)         41.5011         estimate D2E/DX2                !
 ! D286  D(13,10,24,28)        179.6932         estimate D2E/DX2                !
 ! D287  D(13,10,24,29)        112.064          estimate D2E/DX2                !
 ! D288  D(13,10,24,30)       -177.502          estimate D2E/DX2                !
 ! D289  D(9,11,12,2)           26.77           estimate D2E/DX2                !
 ! D290  D(9,11,12,5)           95.8173         estimate D2E/DX2                !
 ! D291  D(9,11,12,14)        -109.3893         estimate D2E/DX2                !
 ! D292  D(9,11,12,15)         -41.867          estimate D2E/DX2                !
 ! D293  D(9,11,12,52)         179.2757         estimate D2E/DX2                !
 ! D294  D(27,11,12,2)         110.897          estimate D2E/DX2                !
 ! D295  D(27,11,12,5)         179.9443         estimate D2E/DX2                !
 ! D296  D(27,11,12,14)        -25.2622         estimate D2E/DX2                !
 ! D297  D(27,11,12,15)         42.26           estimate D2E/DX2                !
 ! D298  D(27,11,12,52)        -96.5973         estimate D2E/DX2                !
 ! D299  D(9,11,27,15)          41.2805         estimate D2E/DX2                !
 ! D300  D(9,11,27,28)         -95.7589         estimate D2E/DX2                !
 ! D301  D(9,11,27,29)         -27.4874         estimate D2E/DX2                !
 ! D302  D(9,11,27,55)        -178.838          estimate D2E/DX2                !
 ! D303  D(9,11,27,56)         111.396          estimate D2E/DX2                !
 ! D304  D(12,11,27,15)        -42.2392         estimate D2E/DX2                !
 ! D305  D(12,11,27,28)       -179.2786         estimate D2E/DX2                !
 ! D306  D(12,11,27,29)       -111.0071         estimate D2E/DX2                !
 ! D307  D(12,11,27,55)         97.6423         estimate D2E/DX2                !
 ! D308  D(12,11,27,56)         27.8763         estimate D2E/DX2                !
 ! D309  D(2,12,14,51)         102.4152         estimate D2E/DX2                !
 ! D310  D(2,12,14,54)        -178.971          estimate D2E/DX2                !
 ! D311  D(5,12,14,51)          33.596          estimate D2E/DX2                !
 ! D312  D(5,12,14,54)         112.2098         estimate D2E/DX2                !
 ! D313  D(11,12,14,51)       -108.3572         estimate D2E/DX2                !
 ! D314  D(11,12,14,54)        -29.7435         estimate D2E/DX2                !
 ! D315  D(15,12,14,51)       -175.7819         estimate D2E/DX2                !
 ! D316  D(15,12,14,54)        -97.1682         estimate D2E/DX2                !
 ! D317  D(52,12,14,51)        -36.2659         estimate D2E/DX2                !
 ! D318  D(52,12,14,54)         42.3478         estimate D2E/DX2                !
 ! D319  D(2,12,15,9)          -94.2452         estimate D2E/DX2                !
 ! D320  D(2,12,15,27)        -178.4587         estimate D2E/DX2                !
 ! D321  D(5,12,15,9)          -27.1438         estimate D2E/DX2                !
 ! D322  D(5,12,15,27)        -111.3573         estimate D2E/DX2                !
 ! D323  D(11,12,15,9)          41.952          estimate D2E/DX2                !
 ! D324  D(11,12,15,27)        -42.2615         estimate D2E/DX2                !
 ! D325  D(14,12,15,9)        -179.0834         estimate D2E/DX2                !
 ! D326  D(14,12,15,27)         96.7031         estimate D2E/DX2                !
[...]
 ,-0.00001477,0.00002186,0.00000248,0.00000431,0.00000399,0.00000186,0.
 00001505,-0.00000325,0.00001197,-0.00006137,-0.00002285,0.00004381,0.0
 0000797,-0.00002099,-0.00001252,-0.00001485,0.00000269,0.00002087,0.00
 088347,0.00016767,-0.00023443,-0.00020146,0.00009868,0.00013392,0.0000
 3601,-0.00015992,-0.00008176,-0.00134483,-0.00009942,0.00068675,-0.000
 61926,0.00133475,0.00117372,-0.00065148,0.00105087,-0.00028573,-0.0001
 5465,0.00070709,0.00011665,-0.00003796,-0.00003712,-0.00004441,0.00023
 574,0.00010818,-0.00007674,0.00002974,-0.00015157,0.00012057,0.0000575
 3,-0.00003356,-0.00001293,-0.00000266,0.00000437,0.00001619,-0.0001285
 9,0.00011831,-0.00007863,0.00006997,-0.00002930,-0.00001788,-0.0000148
 0,-0.00001884,0.00003516,-0.00004564,0.00000336,0.00000774,-0.00000242
 ,0.00000728,0.00000854,0.00003373,-0.00001044,0.00001152,-0.00003913,0
 .00001914,-0.00002664,-0.00000307,0.00000374,0.00000706,-0.00000488,-0
 .00000691,0.00000028,-0.00003930,0.00000392,0.00000673,0.00004176,-0.0
 0000474,-0.00000290,-0.00003175,0.00004823,-0.00007775,0.00004428,-0.0
 0001186,0.00001338,0.00005431,0.00005602,0.00006311,-0.00067602,-0.000
 71932,0.00038503,0.00001027,-0.00000590,-0.00000301,0.00000362,-0.0000
 0255,-0.00000211,-0.00726879,0.00625031,-0.00320304,-0.03074500,0.0291
 0551,-0.03552560,0.00139941,0.00110203,-0.00083910,0.01369580,-0.01063
 571,0.00815135,-0.00144843,-0.00645888,0.00147133,0.01945327,0.0390962
 2,-0.04895209,-0.00337022,0.09533491,0.30916997,0.00000604,0.00000483,
 -0.00001444,0.00000968,-0.00000398,0.00000914,-0.00001260,-0.00000136,
 0.00000152,0.00001873,-0.00001110,0.00001265,0.00000584,-0.00000232,0.
 00000839,-0.00005904,0.00001653,-0.00000920,0.00003436,-0.00002021,0.0
 0002876,0.00002155,-0.00001324,0.00001339,-0.00005087,0.00001633,-0.00
 000546,0.00002442,-0.00000503,0.00000303,0.00001364,-0.00000794,0.0000
 0355,-0.00004787,0.00000747,-0.00000071,-0.00002058,0.00001125,-0.0000
 2976,0.00000211,0.00000557,0.00000626,0.00001562,-0.00000476,0.0000080
 2,0.00005936,-0.00002598,0.00003374,0.00004804,0.00002440,-0.00002640,
 -0.00011021,0.00017875,-0.00010602,0.00007645,0.00003476,0.00013373,-0
 .00020047,-0.00003408,0.00001211,0.00000254,0.00001398,-0.00000357,-0.
 00000753,-0.00000710,-0.00000363,0.00000178,0.00000380,-0.00000878,-0.
 00005383,-0.00001272,0.00002991,0.00004106,-0.00000057,-0.00002928,0.0
 0002693,-0.00000466,0.00000604,-0.00004333,0.00002530,-0.00002980,0.00
 000696,0.00000476,-0.00000326,0.00000719,-0.00000093,-0.00000522,0.000
 02137,-0.00001485,-0.00000006,-0.00001110,-0.00000424,-0.00000618,-0.0
 0001561,0.00000460,-0.00000570,0.00002768,0.00002211,-0.00004362,-0.00
 001399,0.00001083,0.00000732,0.00008101,-0.00000692,0.00001478,-0.0003
 5387,0.00005092,0.00005517,-0.00002276,0.00001842,0.00003000,0.0000153
 4,-0.00001347,-0.00002329,0.00020999,-0.00004013,0.00016726,-0.0000265
 4,0.00001630,0.00025716,-0.00029898,-0.00011349,-0.00019012,-0.0000365
 1,-0.00004371,0.00006547,0.00002364,-0.00000653,0.00001645,0.00002165,
 -0.00002081,0.00000300,-0.00005883,0.00002194,-0.00000118,-0.00002286,
 0.00001107,-0.00000422,0.00004026,0.00001303,-0.00003849,0.00004098,-0
 .00008743,0.00006918,-0.00003626,0.00002113,0.00001425,0.00003104,0.00
 002838,-0.00005264,0.00004922,-0.00001346,0.00001063,-0.00000071,-0.00
 000789,-0.00000120,-0.00004298,0.00000681,-0.00000183,0.00005668,-0.00
 000332,-0.00000646,0.00000221,-0.00001085,-0.00000489,0.00000589,0.000
 00923,0.00000657,0.00004764,-0.00001196,0.00000556,-0.00005767,0.00000
 568,0.00000579,0.00002691,-0.00004400,0.00006975,-0.00005025,0.0000127
 1,-0.00001255,0.00004805,0.00001334,-0.00003158,-0.00004291,-0.0002274
 9,0.00006794,-0.00000517,0.00000780,0.00000291,-0.00000951,0.00000915,
 0.00000121,0.00056917,-0.00053026,0.00014035,-0.00270490,0.00055322,-0
 .00307713,0.00008634,0.00007921,0.00006234,0.00222627,-0.00078119,0.00
 005334,0.00002147,0.00005604,-0.00011727,-0.00550026,-0.00437010,-0.00
 078190,-0.07829265,-0.05914078,-0.07976515,0.06945591,0.00000218,0.000
 01305,-0.00002579,0.00001660,-0.00000597,0.00001141,-0.00002230,-0.000
 00109,0.00000327,0.00002838,-0.00002275,0.00001706,0.00001064,-0.00000
 057,0.00001163,-0.00015030,0.00009421,-0.00013835,0.00003466,-0.000036
 84,-0.00001052,0.00003325,-0.00001633,0.00002328,-0.00009118,0.0000194
 8,0.00000017,0.00003989,-0.00001322,-0.00000776,0.00002286,-0.00000870
 ,0.00000073,-0.00007970,0.00000842,0.00000398,-0.00007953,0.00003180,-
 0.00009545,0.00000388,0.00001079,0.00000849,0.00002562,-0.00000463,0.0
 0000783,0.00006899,-0.00008895,0.00001111,0.00006471,0.00003503,-0.000
 02721,-0.00012213,0.00037913,0.00026009,-0.00028270,-0.00018674,-0.000
 41821,0.00008615,0.00003773,-0.00022151,0.00000272,0.00002296,-0.00000
 651,-0.00001387,-0.00001159,-0.00000530,0.00000058,0.00000856,-0.00001
 337,-0.00007691,-0.00001039,0.00004439,0.00006146,-0.00000997,-0.00004
 557,0.00004662,0.00000208,0.00000272,-0.00007032,0.00003156,-0.0000336
 9,0.00001088,0.00000681,-0.00000936,0.00001286,0.00000142,-0.00001057,
 0.00002823,-0.00001895,-0.00000434,-0.00001541,-0.00000736,-0.00000934
 ,-0.00002189,-0.00000048,-0.00000809,0.00003583,0.00004097,-0.00006707
 ,-0.00001712,0.00001643,0.00001585,0.00014072,-0.00004835,0.00003881,-
 0.00047830,0.00004609,0.00000813,0.00002139,0.00001279,0.00000911,0.00
 000950,0.00006206,-0.00001628,0.00015374,-0.00003999,-0.00005961,-0.00
 019533,0.00013522,0.00000214,0.00009373,0.00016095,-0.00005324,-0.0001
 7158,-0.00007866,0.00021516,-0.00002010,0.00000794,0.00005881,-0.00000
 746,-0.00005664,0.00002711,-0.00007894,0.00001053,-0.00000844,-0.00004
 492,0.00002113,-0.00000589,0.00006148,0.00003225,-0.00006985,0.0000794
 3,-0.00015110,0.00011927,-0.00006433,0.00003478,0.00002421,0.00005074,
 0.00004757,-0.00008725,0.00008088,-0.00001958,0.00001359,-0.00000081,-
 0.00001233,-0.00000418,-0.00006773,0.00001249,-0.00000611,0.00008726,-
 0.00001096,0.00000033,0.00000314,-0.00001507,-0.00000851,0.00000827,0.
 00001459,0.00000822,0.00007614,-0.00001596,0.00000406,-0.00008822,0.00
 000891,0.00000847,0.00003809,-0.00006769,0.00010768,-0.00008148,0.0000
 2096,-0.00002102,0.00015554,0.00005327,-0.00012305,0.00006497,-0.00021
 494,0.00014674,-0.00000997,0.00001299,0.00000544,-0.00001264,0.0000140
 4,0.00000263,0.00076588,0.00040345,0.00130539,-0.00220496,0.00634152,0
 .00158079,-0.00015652,-0.00010394,-0.00022651,0.00021366,-0.00091317,0
 .00063968,0.00043707,0.00007631,0.00046250,-0.00666546,-0.00514049,-0.
 00294801,-0.05858189,-0.08599312,-0.09698140,0.06259022,0.09115549,0.0
 0000665,0.00001522,-0.00002951,0.00001771,-0.00000668,0.00001411,-0.00
 002708,-0.00000084,0.00000261,0.00002869,-0.00002516,0.00001791,0.0000
 1128,-0.00000207,0.00001356,-0.00015994,0.00012629,-0.00013980,0.00002
 357,-0.00004834,-0.00002827,0.00003278,-0.00001814,0.00002637,-0.00010
 228,0.00002706,-0.00000531,0.00003412,-0.00001771,-0.00000208,0.000025
 29,-0.00001286,0.00000318,-0.00008754,0.00001126,0.00000038,-0.0000801
 2,0.00006901,-0.00011706,0.00000440,0.00001143,0.00001074,0.00002830,-
 0.00000664,0.00001129,0.00004135,0.00003557,0.00006307,0.00008604,0.00
 003579,-0.00003362,0.00001191,-0.00027768,0.00013516,0.00010508,0.0000
 3424,-0.00012937,-0.00011928,0.00021757,-0.00009883,0.00000279,0.00002
 590,-0.00000687,-0.00001471,-0.00001304,-0.00000629,0.00000146,0.00000
 865,-0.00001553,-0.00008275,-0.00001551,0.00006110,0.00007348,-0.00000
 852,-0.00005491,0.00004636,-0.00000195,0.00000835,-0.00008064,0.000042
 01,-0.00004869,0.00001101,0.00000696,-0.00000761,0.00001220,0.00000049
 ,-0.00000970,0.00003853,-0.00002780,0.00000119,-0.00001886,-0.00000756
 ,-0.00001038,-0.00002895,0.00000298,-0.00001257,0.00004901,0.00004409,
 -0.00007212,-0.00002344,0.00002167,0.00001511,0.00012280,-0.00001916,0
 .00001421,-0.00069634,0.00003935,0.00011474,-0.00002689,-0.00001177,0.
 00000764,0.00001087,0.00003498,0.00001342,0.00079688,-0.00020373,-0.00
 004149,0.00011541,-0.00007719,-0.00015125,-0.00030694,0.00007420,-0.00
 046809,-0.00008826,-0.00013521,0.00018992,-0.00000065,0.00000476,0.000
 05994,-0.00003931,-0.00006679,0.00002379,-0.00007500,0.00002480,-0.000
 00501,-0.00004671,0.00002204,-0.00000888,0.00006713,0.00003097,-0.0000
 7607,0.00008558,-0.00016641,0.00013116,-0.00007069,0.00003880,0.000026
 69,0.00005635,0.00005244,-0.00009692,0.00009094,-0.00002309,0.00001717
 ,-0.00000087,-0.00001440,-0.00000349,-0.00007789,0.00001341,-0.0000052
 6,0.00010171,-0.00000928,-0.00000616,0.00000410,-0.00001871,-0.0000093
 3,0.00001030,0.00001686,0.00001083,0.00008668,-0.00002024,0.00000849,-
 0.00010312,0.00001033,0.00001012,0.00004660,-0.00007619,0.00012021,-0.
 00009238,0.00002360,-0.00002349,0.00011039,0.00005054,-0.00011638,-0.0
 0009758,-0.00018232,-0.00008196,-0.00001033,0.00001469,0.00000573,-0.0
 0001602,0.00001562,0.00000267,0.00000879,-0.00073789,0.00099461,-0.003
 43034,0.00091021,-0.00314229,0.00007508,-0.00006077,-0.00018015,-0.001
 35402,0.00059862,0.00019640,0.00010859,0.00057516,0.00017750,-0.002658
 15,-0.00289055,0.00951371,-0.07858714,-0.09435066,-0.14582808,0.080515
 99,0.10369451,0.14807189,0.00000689,0.00000566,-0.00001735,0.00001089,
 -0.00000593,0.00001737,-0.00000721,0.00000349,0.00000180,0.00002402,-0
 .00001665,0.00002523,0.00000611,-0.00000800,0.00001608,-0.00007624,0.0
 0000606,-0.00004613,0.00004307,-0.00000471,0.00004747,0.00002273,-0.00
 001628,0.00002332,-0.00005381,0.00002517,-0.00001016,0.00003258,-0.000
 00750,0.00001059,0.00001721,-0.00001258,0.00001257,-0.00005570,0.00001
 176,-0.00002043,-0.00003457,0.00000626,-0.00007305,0.00000150,0.000004
 95,0.00001075,0.00001794,-0.00000752,0.00001760,0.00003006,-0.00005031
 ,0.00004117,0.00006130,0.00002228,-0.00002888,-0.00009991,0.00005007,-
 0.00014322,0.00013217,-0.00012830,0.00002445,-0.00032339,-0.00013825,0
 .00002441,-0.00000421,0.00002439,0.00000560,-0.00000739,-0.00001009,-0
 .00000543,0.00000774,-0.00000031,-0.00002257,-0.00007180,-0.00000986,0
 .00002826,0.00005850,0.00000542,-0.00003961,0.00003080,-0.00000687,0.0
 0001465,-0.00005626,0.00003492,-0.00005612,0.00000903,0.00000427,0.000
 00182,0.00000692,-0.00000703,-0.00000215,0.00003945,-0.00000965,0.0000
 1850,-0.00001691,-0.00000286,-0.00000767,-0.00002700,-0.00000304,-0.00
 001057,0.00003676,0.00001500,-0.00003539,-0.00002226,0.00000847,-0.000
 00697,0.00006621,0.00001088,-0.00002425,-0.00043421,0.00002134,0.00010
 506,-0.00001013,0.00001588,0.00002942,-0.00000049,0.00000308,-0.000011
 61,0.00059904,-0.00011938,0.00009819,-0.00006843,0.00013790,0.00022956
 ,-0.00045947,0.00001631,-0.00018272,0.00001250,-0.00007417,0.00018735,
 0.00002956,-0.00000793,0.00002070,-0.00000155,-0.00003071,0.00000980,-
 0.00008334,-0.00000296,0.00003773,-0.00002341,0.00000748,-0.00001043,0
 .00006784,0.00003299,-0.00007739,0.00002382,-0.00010127,0.00009447,-0.
 00003431,0.00001943,0.00001588,0.00004833,0.00004218,-0.00007720,0.000
 06381,-0.00002140,0.00002316,-0.00000133,-0.00001051,0.00000263,-0.000
 05819,0.00000691,0.00000280,0.00007938,0.00000401,-0.00002820,0.000003
 79,-0.00001794,-0.00000392,0.00000861,0.00001291,0.00001204,0.00006279
 ,-0.00001909,0.00001777,-0.00008013,0.00000804,0.00000870,0.00003174,-
 0.00004333,0.00006820,-0.00006759,0.00001703,-0.00001553,0.00013953,0.
 00002463,-0.00009441,-0.00035194,-0.00034907,-0.00008165,-0.00000323,0
 .00001244,0.00000419,-0.00001480,0.00001322,0.00000155,-0.00208304,-0.
 00021832,0.00049495,-0.00248969,0.00145441,-0.00248256,0.00125273,0.00
 016935,-0.00102088,0.00195554,-0.00061028,0.00116173,-0.00374752,0.000
 54459,-0.00244101,-0.00685268,-0.00269395,0.00296341,-0.14136220,0.075
 01230,0.09041037,0.01467965,0.00420509,0.00549802,0.13936380,-0.000014
 99,-0.00000181,0.00000861,-0.00000244,0.00000397,-0.00001736,-0.000016
 71,-0.00001683,0.00000404,0.00000184,0.00000535,-0.00002366,0.00000223
 ,0.00001217,-0.00001675,-0.00000294,0.00000993,0.00008184,0.00001247,0
 .00005086,-0.00004477,0.00000096,0.00001014,-0.00002200,0.00003140,-0.
 00002173,0.00001691,-0.00001254,0.00001335,-0.00002016,-0.00000518,0.0
 0001349,-0.00001945,0.00001621,-0.00001702,0.00003202,-0.00003937,-0.0
 0006067,0.00012229,0.00000066,0.00000203,-0.00000948,-0.00000677,0.000
 01056,-0.00002192,-0.00000011,-0.00000117,-0.00000547,-0.00005264,-0.0
 0001348,0.00003211,0.00006291,0.00001283,-0.00020978,-0.00012617,0.000
 24863,0.00005081,-0.00028299,0.00016445,-0.00005368,0.00000891,-0.0000
 1424,-0.00001095,-0.00000125,0.00000579,0.00000453,-0.00001202,0.00000
 716,0.00002066,0.00004960,0.00000645,-0.00002082,-0.00005001,-0.000018
 22,0.00003640,-0.00001580,0.00001140,-0.00002474,0.00003057,-0.0000341
 0,0.00005897,-0.00000141,-0.00000179,-0.00000820,0.00000062,0.00000968
 ,-0.00000434,-0.00003850,0.00001630,-0.00002824,0.00001329,-0.00000136
 ,0.00000397,0.00002351,-0.00000527,0.00001391,-0.00004214,0.00000555,0
 .00000287,0.00002135,-0.00000899,0.00001454,-0.00001406,-0.00003660,0.
 00006296,0.00045722,0.00003166,-0.00017649,-0.00000335,0.00000704,0.00
 000658,0.00000913,0.00001155,-0.00002438,-0.00076078,0.00016963,0.0000
 6449,-0.00011239,0.00005758,-0.00002761,-0.00003722,-0.00059097,-0.000
 03867,0.00010293,-0.00010206,-0.00017315,0.00000127,-0.00002114,-0.000
 02384,-0.00005366,0.00001302,0.00002919,0.00003431,0.00005915,-0.00006
 903,-0.00000808,0.00000810,0.00001898,-0.00003493,-0.00002655,0.000049
 01,0.00004290,0.00001512,-0.00002653,-0.00000540,-0.00000183,-0.000003
 07,-0.00002683,-0.00001984,0.00003648,-0.00002560,0.00001634,-0.000023
 02,0.00000168,0.00000640,-0.00000783,0.00003170,0.00000031,-0.00000932
 ,-0.00004851,-0.00001668,0.00004339,-0.00000282,0.00001475,-0.00000039
 ,-0.00000661,-0.00000737,-0.00001197,-0.00003086,0.00001728,-0.0000236
 7,0.00004828,-0.00000446,-0.00000611,-0.00002279,0.00001969,-0.0000294
 8,0.00003104,-0.00000721,0.00000537,-0.00008548,-0.00003547,0.00005793
 ,0.00021849,0.00001361,0.00030552,-0.00000436,-0.00000625,-0.00000043,
 0.00001291,-0.00000677,0.00000078,0.00049124,-0.00037716,-0.00011210,0
 .00308488,-0.00104064,0.00005915,-0.00051593,-0.00038864,0.00023953,0.
 00205601,-0.00029855,-0.00048648,-0.00009130,0.00079764,0.00037754,0.0
 0054024,0.00995314,0.00049353,0.07068974,-0.06708123,-0.05951519,0.001
 73898,-0.00611925,-0.00742719,-0.07725454,0.06457326,-0.00001561,-0.00
 000144,0.00001262,-0.00000521,0.00000553,-0.00002166,-0.00001538,-0.00
 002212,0.00000459,-0.00000881,0.00000861,-0.00002857,0.00000142,0.0000
 1420,-0.00002084,0.00001386,0.00003227,0.00005860,-0.00002372,0.000020
 35,-0.00007563,-0.00001046,0.00002384,-0.00002864,0.00004225,-0.000024
 02,0.00002257,-0.00002171,0.00001517,-0.00002769,-0.00000891,0.0000155
 8,-0.00002265,0.00002870,-0.00002033,0.00003577,-0.00007594,-0.0000382
 3,0.00010950,0.00000045,0.00000111,-0.00001168,-0.00001073,0.00001266,
 -0.00002618,0.00004114,0.00007687,0.00003804,-0.00006869,-0.00002551,0
 .00003891,0.00035803,-0.00016332,0.00019787,0.00008350,0.00043999,0.00
 034940,-0.00039496,-0.00002082,-0.00041386,0.00001087,-0.00001947,-0.0
 0001225,0.00000028,0.00000817,0.00000581,-0.00001423,0.00000726,0.0000
 2569,0.00007179,0.00000793,-0.00002448,-0.00005644,-0.00000888,0.00003
 923,-0.00002509,0.00000975,-0.00003031,0.00004136,-0.00004044,0.000069
 84,-0.00000378,-0.00000284,-0.00000918,-0.00000120,0.00001147,-0.00000
 336,-0.00004540,0.00001744,-0.00002972,0.00001693,-0.00000064,0.000005
 75,0.00002747,-0.00000529,0.00001472,-0.00004532,0.00000282,0.00001142
 ,0.00002654,-0.00001123,0.00001525,-0.00006444,-0.00004381,0.00003882,
 0.00048591,-0.00004143,-0.00017158,0.00006315,-0.00001293,-0.00002034,
 -0.00003383,0.00003770,0.00002915,-0.00077952,0.00002201,-0.00006270,-
 0.00035852,0.00006073,0.00001099,0.00004862,-0.00003097,0.00051802,0.0
 0019960,-0.00006844,-0.00023865,0.00001840,-0.00001422,-0.00002276,-0.
 00010319,-0.00001462,0.00000948,0.00004417,0.00008610,-0.00007959,-0.0
 0000777,0.00000714,0.00001674,-0.00005255,-0.00003457,0.00006302,0.000
 04103,0.00003883,-0.00004656,0.00000018,-0.00000622,-0.00000686,-0.000
 03831,-0.00003053,0.00005584,-0.00003895,0.00002129,-0.00002854,0.0000
 0219,0.00000842,-0.00000852,0.00004378,-0.00000099,-0.00001016,-0.0000
 6528,-0.00001802,0.00005031,-0.00000346,0.00001854,0.00000031,-0.00000
 828,-0.00001013,-0.00001460,-0.00004386,0.00002127,-0.00002757,0.00006
 498,-0.00000605,-0.00000798,-0.00002942,0.00002915,-0.00004431,0.00004
 519,-0.00001076,0.00000861,-0.00017527,-0.00006925,0.00007423,0.000431
 69,0.00038733,0.00041143,-0.00000365,-0.00000890,-0.00000132,0.0000161
 3,-0.00000972,0.00000057,0.00039641,-0.00146042,-0.00095994,0.00328689
 ,-0.00115204,0.00783247,-0.00119605,-0.00048209,0.00049683,-0.00067175
 ,0.00065568,-0.00187255,0.00013569,0.00108730,-0.00016333,0.00664013,0
 .00165876,-0.00295587,0.08407057,-0.06023607,-0.08510382,0.00248830,-0
 .00712737,-0.00902211,-0.09476188,0.06642285,0.09098393\\-0.00000270,0
 .00000038,0.00000170,0.00000095,0.00000068,-0.00000044,0.00000016,-0.0
 0000043,-0.00000066,0.00000066,0.00000132,0.00000049,-0.00000007,0.000
 00021,0.00000015,-0.00000321,-0.00000151,-0.00000238,0.00000081,0.0000
 0037,0.00000369,0.00000116,0.00000043,0.00000063,-0.00000063,-0.000000
 08,-0.00000043,-0.00000085,-0.00000020,-0.00000019,0.00000006,0.000000
 22,0.00000054,-0.00000220,-0.00000139,0.00000302,0.00000050,-0.0000019
 0,-0.00000185,-0.00000065,0.00000075,-0.00000165,-0.00000013,-0.000000
 62,-0.00000029,-0.00000034,-0.00000020,0.00000377,0.00000139,-0.000007
 44,0.00000270,0.00000280,0.00002277,-0.00001001,-0.00001155,-0.0000028
 5,-0.00000158,0.00000133,-0.00000542,0.00001221,-0.00000305,0.00000181
 ,-0.00000096,-0.00000146,-0.00000024,0.00000068,-0.00000119,0.00000030
 ,0.00000110,0.00000520,0.00000074,0.00000156,0.00000276,-0.00000003,0.
 00000443,-0.00000070,-0.00000071,-0.00000049,0.00000301,-0.00000056,-0
 .00000092,0.00000178,-0.00000276,0.00000121,0.00000218,0.00000070,0.00
 000071,-0.00000769,-0.00000492,-0.00000268,0.00000066,-0.00000141,0.00
 000142,-0.00000040,-0.00000068,0.00000020,0.00001282,0.00000221,-0.000
 00114,0.00000152,-0.00000150,0.00000331,-0.00001791,-0.00000189,0.0000
 0358,0.00001416,0.00000669,-0.00001008,0.00000067,0.00000163,-0.000002
 11,-0.00000034,0.00000215,-0.00000223,0.00001299,-0.00000877,-0.000009
 83,-0.00000586,-0.00000504,0.00000900,-0.00001809,-0.00000044,0.000015
 96,-0.00000407,0.00001270,-0.00001805,-0.00000187,0.00000009,0.0000032
 1,0.00000100,0.00000136,0.00000054,-0.00000767,0.00000362,0.00000144,-
 0.00000030,-0.00000127,0.00000136,0.00000335,-0.00000172,0.00000297,-0
 .00000235,0.00000169,-0.00000106,0.00000002,-0.00000044,0.00000138,-0.
 00000002,0.00000005,0.00000206,-0.00000547,-0.00000306,0.00000644,-0.0
 0000021,0.00000111,-0.00000219,0.00000175,0.00000423,-0.00000961,0.000
 00104,-0.00000701,0.00001846,-0.00000098,-0.00000054,-0.00000008,-0.00
 000055,0.00000015,0.00000009,0.00000154,-0.00000408,0.00000348,0.00000
 171,0.00000056,-0.00000247,-0.00000818,-0.00000035,0.00000187,-0.00000
 035,0.00000205,-0.00000450,0.00000601,-0.00000488,0.00000593,-0.000006
 48,0.00000500,-0.00000062,-0.00000193,0.00000029,0.00000042,0.00000166
 ,-0.00000152,0.00000269,-0.00000581,-0.00000778,-0.00002256,0.00000292
 ,0.00001729,-0.00000233,0.00001310,0.00000635,0.00000384,0.00003459,-0
 .00002016,-0.00001299,0.00000179,-0.00000009,0.00001014,-0.00000943,0.
 00001155,-0.00000151,-0.00000476,-0.00000353,0.00000858,-0.00000895,-0
 .00000140,-0.00000474,0.00001036,-0.00000263,-0.00001431\\\@
 The archive entry for this job was punched.


 WE HAVE LEFT UNDONE THOSE THINGS WHICH WE OUGHT TO HAVE DONE,
 AND WE HAVE DONE THOSE THINGS WHICH WE OUGHT NOT TO HAVE DONE.
                   BOOK OF COMMON PRAYER                      
 Job cpu time:       7 days 22 hours 28 minutes 21.1 seconds.
 Elapsed time:       0 days  8 hours  8 minutes 16.3 seconds.
 File lengths (MBytes):  RWF=  21167 Int=      0 D2E=      0 Chk=    180 Scr=      2
 Normal termination of Gaussian 16 at Wed Mar  8 01:58:02 2023.
