 Entering Gaussian System, Link 0=/apps/GAU16/avx2/g16/g16
 Initial command:
 /apps/GAU16/avx2//g16/l1.exe "/localscratch/chegho/Gau-92499.inp" -scrdir="/localscratch/chegho/"
 Entering Link 1 = /apps/GAU16/avx2//g16/l1.exe PID=     92500.
  
 Copyright (c) 1988-2019, Gaussian, Inc.  All Rights Reserved.
  
 This is part of the Gaussian(R) 16 program.  It is based on
 the Gaussian(R) 09 system (copyright 2009, Gaussian, Inc.),
 the Gaussian(R) 03 system (copyright 2003, Gaussian, Inc.),
 the Gaussian(R) 98 system (copyright 1998, Gaussian, Inc.),
 the Gaussian(R) 94 system (copyright 1995, Gaussian, Inc.),
 the Gaussian 92(TM) system (copyright 1992, Gaussian, Inc.),
 the Gaussian 90(TM) system (copyright 1990, Gaussian, Inc.),
 the Gaussian 88(TM) system (copyright 1988, Gaussian, Inc.),
 the Gaussian 86(TM) system (copyright 1986, Carnegie Mellon
 University), and the Gaussian 82(TM) system (copyright 1983,
 Carnegie Mellon University). Gaussian is a federally registered
 trademark of Gaussian, Inc.
  
 This software contains proprietary and confidential information,
 including trade secrets, belonging to Gaussian, Inc.
  
 This software is provided under written license and may be
 used, copied, transmitted, or stored only in accord with that
 written license.
  
 The following legend is applicable only to US Government
 contracts under FAR:
  
                    RESTRICTED RIGHTS LEGEND
  
 Use, reproduction and disclosure by the US Government is
 subject to restrictions as set forth in subparagraphs (a)
 and (c) of the Commercial Computer Software - Restricted
 Rights clause in FAR 52.227-19.
  
 Gaussian, Inc.
 340 Quinnipiac St., Bldg. 40, Wallingford CT 06492
  
  
 ---------------------------------------------------------------
 Warning -- This program may not be used in any manner that
 competes with the business of Gaussian, Inc. or will provide
 assistance to any competitor of Gaussian, Inc.  The licensee
 of this program is prohibited from giving any competitor of
 Gaussian, Inc. access to this program.  By using this program,
 the user acknowledges that Gaussian, Inc. is engaged in the
 business of creating and licensing software in the field of
 computational chemistry and represents and warrants to the
 licensee that it is not a competitor of Gaussian, Inc. and that
 it will not use this program in any manner prohibited above.
 ---------------------------------------------------------------
  

 Cite this work as:
 Gaussian 16, Revision C.01,
 M. J. Frisch, G. W. Trucks, H. B. Schlegel, G. E. Scuseria, 
 M. A. Robb, J. R. Cheeseman, G. Scalmani, V. Barone, 
 G. A. Petersson, H. Nakatsuji, X. Li, M. Caricato, A. V. Marenich, 
 J. Bloino, B. G. Janesko, R. Gomperts, B. Mennucci, H. P. Hratchian, 
 J. V. Ortiz, A. F. Izmaylov, J. L. Sonnenberg, D. Williams-Young, 
 F. Ding, F. Lipparini, F. Egidi, J. Goings, B. Peng, A. Petrone, 
 T. Henderson, D. Ranasinghe, V. G. Zakrzewski, J. Gao, N. Rega, 
 G. Zheng, W. Liang, M. Hada, M. Ehara, K. Toyota, R. Fukuda, 
 J. Hasegawa, M. Ishida, T. Nakajima, Y. Honda, O. Kitao, H. Nakai, 
 T. Vreven, K. Throssell, J. A. Montgomery, Jr., J. E. Peralta, 
 F. Ogliaro, M. J. Bearpark, J. J. Heyd, E. N. Brothers, K. N. Kudin, 
 V. N. Staroverov, T. A. Keith, R. Kobayashi, J. Normand, 
 K. Raghavachari, A. P. Rendell, J. C. Burant, S. S. Iyengar, 
 J. Tomasi, M. Cossi, J. M. Millam, M. Klene, C. Adamo, R. Cammi, 
 J. W. Ochterski, R. L. Martin, K. Morokuma, O. Farkas, 
 J. B. Foresman, and D. J. Fox, Gaussian, Inc., Wallingford CT, 2019.
 
 ******************************************
 Gaussian 16:  ES64L-G16RevC.01  3-Jul-2019
                 7-Mar-2023 
 ******************************************
 %nprocshared=48
 Will use up to   48 processors via shared memory.
 %chk=Mo20S47_Szz_Mo_S_2_i1.chk
 %mem=100GB
 ----------------------------------------------------------
 # opt freq b3lyp/gen nosymm pseudo=read scf=maxcycles=1000
 ----------------------------------------------------------
 1/18=20,19=15,26=3,38=1/1,3;
 2/9=110,12=2,15=1,17=6,18=5,40=1/2;
 3/5=7,11=2,16=1,17=8,25=1,30=1,71=1,74=-5/1,2,3;
 4//1;
 5/5=2,7=1000,38=5/2;
 6/7=2,8=2,9=2,10=2,28=1/1;
 7/30=1/1,2,3,16;
 1/18=20,19=15,26=3/3(2);
 2/9=110,15=1/2;
 99//99;
 2/9=110,15=1/2;
 3/5=7,6=1,11=2,16=1,17=8,25=1,30=1,71=1,74=-5,82=7/1,2,3;
 4/5=5,16=3,69=1/1;
 5/5=2,7=1000,38=5/2;
 7/30=1/1,2,3,16;
 1/18=20,19=15,26=3/3(-5);
 2/9=110,15=1/2;
 6/7=2,8=2,9=2,10=2,19=2,28=1/1;
 99/9=1/99;
 -------------------
 Title Card Required
 -------------------
 Symbolic Z-matrix:
 Charge =  0 Multiplicity = 1
 42                    0.42369   1.28022   12.65202 
 16                    2.43208   2.3108    13.59253 
 16                   -0.60351   1.88044   14.85445 
 16                   -0.39164   0.85964   10.42389 
 16                    2.08152  -0.44288   12.1013 
 42                   -1.96224   2.633     11.01421 
 16                   -2.76723   2.21157   8.77076 
 16                    0.04683   3.56889   11.99138 
 42                    1.06959   2.75444   9.91885 
 16                    0.25951   2.31398   7.66454 
 16                    2.68644   1.01321   9.33514 
 42                    3.50584   1.45851   11.57357 
 42                   -1.27864   4.07988   8.2589 
 16                    5.60824   2.56758   12.57207 
 16                    3.09911   3.73868   10.85527 
 16                   -2.28748   4.93126   10.30682 
 16                    1.26008   6.62973   6.41346 
 42                   -4.29286   4.01212   9.32228 
 16                   -5.93616   2.2432    9.97143 
 16                   -5.36454   4.85483   11.45659 
 42                    2.796     0.08606   14.33802 
 16                    5.05265   0.5446    15.35882 
 16                    1.84518   0.66555   16.34593 
 42                    1.65646   4.22461   7.16519 
 16                    0.80007   3.80473   4.80092 
 16                    0.70602   5.06021   9.22494 
 42                    4.10446   2.91034   8.80826 
 16                    3.25298   2.47602   6.56308 
 16                    3.68887   5.20415   8.09405 
 42                    4.5307    4.42384   5.98627 
 16                    6.94452   5.01566   6.39343 
 16                    4.21508   6.6798    5.33409 
 42                    2.19123   5.72381   4.38801 
 16                    3.77259   3.97001   3.79628 
 16                   -1.41028   6.66372   3.76299 
 42                   -0.68694   5.58582   5.45124 
 16                   -2.1231    3.69346   5.94745 
 16                   -1.68346   6.41791   7.50586 
 42                   -3.69749   5.41267   6.63057 
 16                   -5.05429   3.48531   7.01694 
 16                   -4.11383   6.88095   4.97072 
 42                   -4.89295   2.51969   12.20564 
 16                   -2.9566    3.51811   13.20972 
 16                   -3.53736   0.67415   11.52269 
 42                   -2.70941   1.18924   13.71267 
 16                   -1.14626  -0.65737   13.15581 
 16                   -3.91977   0.46753   15.28479 
 42                   -0.0859   -0.53112   15.30151 
 16                    1.48548  -2.03766   14.76799 
 16                   -1.18709  -1.41389   16.87986 
 42                    6.02887   0.32892   13.09065 
 16                    5.19972  -0.38564   11.01232 
 16                    8.53603   1.28959   10.57303 
 42                    6.44605   1.65257   10.46111 
 16                    5.77151   1.09019   8.15178 
 16                    6.21992   4.00092   9.73694 
 42                    7.1129    2.98536   7.82408 
 16                    9.21469   2.67977   7.78242 
 16                    1.91668   6.79623   2.58449 
 16                    8.05123  -0.1425    13.50293 
 16                   -6.46042   2.05965   13.54141 
 16                   -4.6177    6.34677   8.62597 
 16                    4.83274  -1.36848   14.48339 
 16                    6.64374   3.18304   5.38664 
 42                   -7.36856   4.29588   10.22747 
 16                   -8.        3.39626   7.97893 
 16                   -8.95505   4.01063   11.59731 
 42                   -6.43612   5.40662   7.31214 
 16                   -7.67068   6.30734   9.27389 
 16                   -6.85628   6.43093   5.51594 
 42                   -9.34732   5.78291   7.93124 
 16                   -10.5807   6.2089    6.26416 
 16                   -10.73869   6.14672   9.52737 
 

 GradGradGradGradGradGradGradGradGradGradGradGradGradGradGradGradGradGrad
 Berny optimization.
 Initialization pass.
                           ----------------------------
                           !    Initial Parameters    !
                           ! (Angstroms and Degrees)  !
 --------------------------                            --------------------------
 ! Name  Definition              Value          Derivative Info.                !
 --------------------------------------------------------------------------------
 ! R1    R(1,2)                  2.4455         estimate D2E/DX2                !
 ! R2    R(1,3)                  2.5032         estimate D2E/DX2                !
 ! R3    R(1,4)                  2.4096         estimate D2E/DX2                !
 ! R4    R(1,5)                  2.4537         estimate D2E/DX2                !
 ! R5    R(1,8)                  2.4117         estimate D2E/DX2                !
 ! R6    R(1,46)                 2.5442         estimate D2E/DX2                !
 ! R7    R(2,12)                 2.4404         estimate D2E/DX2                !
 ! R8    R(2,21)                 2.3744         estimate D2E/DX2                !
 ! R9    R(3,45)                 2.4932         estimate D2E/DX2                !
 ! R10   R(3,48)                 2.5067         estimate D2E/DX2                !
 ! R11   R(4,6)                  2.4413         estimate D2E/DX2                !
 ! R12   R(4,9)                  2.4455         estimate D2E/DX2                !
 ! R13   R(5,12)                 2.4336         estimate D2E/DX2                !
 ! R14   R(5,21)                 2.4069         estimate D2E/DX2                !
 ! R15   R(6,7)                  2.4205         estimate D2E/DX2                !
 ! R16   R(6,8)                  2.4222         estimate D2E/DX2                !
 ! R17   R(6,16)                 2.4265         estimate D2E/DX2                !
 ! R18   R(6,43)                 2.5676         estimate D2E/DX2                !
 ! R19   R(6,44)                 2.5645         estimate D2E/DX2                !
 ! R20   R(7,13)                 2.443          estimate D2E/DX2                !
 ! R21   R(7,18)                 2.4236         estimate D2E/DX2                !
 ! R22   R(8,9)                  2.4505         estimate D2E/DX2                !
 ! R23   R(9,10)                 2.4356         estimate D2E/DX2                !
 ! R24   R(9,11)                 2.4468         estimate D2E/DX2                !
 ! R25   R(9,15)                 2.4422         estimate D2E/DX2                !
 ! R26   R(9,26)                 2.4352         estimate D2E/DX2                !
 ! R27   R(10,13)                2.4161         estimate D2E/DX2                !
 ! R28   R(10,24)                2.419          estimate D2E/DX2                !
 ! R29   R(11,12)                2.4249         estimate D2E/DX2                !
 ! R30   R(11,27)                2.4264         estimate D2E/DX2                !
 ! R31   R(12,14)                2.5782         estimate D2E/DX2                !
 ! R32   R(12,15)                2.425          estimate D2E/DX2                !
 ! R33   R(12,52)                2.5661         estimate D2E/DX2                !
 ! R34   R(13,16)                2.4365         estimate D2E/DX2                !
 ! R35   R(13,26)                2.4152         estimate D2E/DX2                !
 ! R36   R(13,37)                2.491          estimate D2E/DX2                !
 ! R37   R(13,38)                2.4894         estimate D2E/DX2                !
 ! R38   R(14,51)                2.3361         estimate D2E/DX2                !
 ! R39   R(14,54)                2.4485         estimate D2E/DX2                !
 ! R40   R(15,27)                2.4263         estimate D2E/DX2                !
 ! R41   R(16,18)                2.4157         estimate D2E/DX2                !
 ! R42   R(17,24)                2.5508         estimate D2E/DX2                !
 ! R43   R(17,33)                2.4063         estimate D2E/DX2                !
 ! R44   R(17,36)                2.4097         estimate D2E/DX2                !
 ! R45   R(18,19)                2.5002         estimate D2E/DX2                !
 ! R46   R(18,20)                2.5326         estimate D2E/DX2                !
 ! R47   R(18,39)                3.0921         estimate D2E/DX2                !
 ! R48   R(18,40)                2.4843         estimate D2E/DX2                !
 ! R49   R(18,62)                2.4578         estimate D2E/DX2                !
 ! R50   R(19,42)                2.4812         estimate D2E/DX2                !
 ! R51   R(19,65)                2.5161         estimate D2E/DX2                !
 ! R52   R(20,42)                2.4973         estimate D2E/DX2                !
 ! R53   R(20,65)                2.4165         estimate D2E/DX2                !
 ! R54   R(21,22)                2.5189         estimate D2E/DX2                !
 ! R55   R(21,23)                2.296          estimate D2E/DX2                !
 ! R56   R(21,48)                3.1007         estimate D2E/DX2                !
 ! R57   R(21,49)                2.5323         estimate D2E/DX2                !
 ! R58   R(21,63)                2.507          estimate D2E/DX2                !
 ! R59   R(22,51)                2.4787         estimate D2E/DX2                !
 ! R60   R(22,63)                2.1153         estimate D2E/DX2                !
 ! R61   R(23,48)                2.5004         estimate D2E/DX2                !
 ! R62   R(24,25)                2.5494         estimate D2E/DX2                !
 ! R63   R(24,26)                2.4175         estimate D2E/DX2                !
 ! R64   R(24,28)                2.4431         estimate D2E/DX2                !
 ! R65   R(24,29)                2.4399         estimate D2E/DX2                !
 ! R66   R(24,30)                3.113          estimate D2E/DX2                !
 ! R67   R(25,33)                2.406          estimate D2E/DX2                !
 ! R68   R(25,36)                2.4096         estimate D2E/DX2                !
 ! R69   R(27,28)                2.4402         estimate D2E/DX2                !
 ! R70   R(27,29)                2.4381         estimate D2E/DX2                !
 ! R71   R(27,55)                2.554          estimate D2E/DX2                !
 ! R72   R(27,56)                2.5548         estimate D2E/DX2                !
 ! R73   R(28,30)                2.3998         estimate D2E/DX2                !
 ! R74   R(29,30)                2.4001         estimate D2E/DX2                !
 ! R75   R(30,31)                2.5184         estimate D2E/DX2                !
 ! R76   R(30,32)                2.3695         estimate D2E/DX2                !
 ! R77   R(30,33)                3.1173         estimate D2E/DX2                !
 ! R78   R(30,34)                2.3615         estimate D2E/DX2                !
 ! R79   R(30,64)                2.5227         estimate D2E/DX2                !
 ! R80   R(31,57)                2.4894         estimate D2E/DX2                !
 ! R81   R(31,64)                2.1125         estimate D2E/DX2                !
 ! R82   R(32,33)                2.43           estimate D2E/DX2                !
 ! R83   R(33,34)                2.4345         estimate D2E/DX2                !
 ! R84   R(33,36)                3.0714         estimate D2E/DX2                !
 ! R85   R(33,59)                2.1162         estimate D2E/DX2                !
 ! R86   R(35,36)                2.1296         estimate D2E/DX2                !
 ! R87   R(36,37)                2.4269         estimate D2E/DX2                !
 ! R88   R(36,38)                2.4304         estimate D2E/DX2                !
 ! R89   R(37,39)                2.4292         estimate D2E/DX2                !
 ! R90   R(38,39)                2.4152         estimate D2E/DX2                !
 ! R91   R(39,40)                2.3885         estimate D2E/DX2                !
 ! R92   R(39,41)                2.2548         estimate D2E/DX2                !
 ! R93   R(39,62)                2.3877         estimate D2E/DX2                !
 ! R94   R(39,68)                2.8222         estimate D2E/DX2                !
 ! R95   R(40,68)                2.385          estimate D2E/DX2                !
 ! R96   R(42,43)                2.3988         estimate D2E/DX2                !
 ! R97   R(42,44)                2.3896         estimate D2E/DX2                !
 ! R98   R(42,45)                2.968          estimate D2E/DX2                !
 ! R99   R(42,61)                2.1102         estimate D2E/DX2                !
 ! R100  R(43,45)                2.3953         estimate D2E/DX2                !
 ! R101  R(44,45)                2.3973         estimate D2E/DX2                !
 ! R102  R(45,46)                2.4826         estimate D2E/DX2                !
 ! R103  R(45,47)                2.1113         estimate D2E/DX2                !
 ! R104  R(46,48)                2.3967         estimate D2E/DX2                !
 ! R105  R(48,49)                2.2413         estimate D2E/DX2                !
 ! R106  R(48,50)                2.1173         estimate D2E/DX2                !
 ! R107  R(51,52)                2.3489         estimate D2E/DX2                !
 ! R108  R(51,54)                2.9733         estimate D2E/DX2                !
 ! R109  R(51,60)                2.1171         estimate D2E/DX2                !
 ! R110  R(51,63)                2.5003         estimate D2E/DX2                !
 ! R111  R(52,54)                2.4518         estimate D2E/DX2                !
 ! R112  R(53,54)                2.1242         estimate D2E/DX2                !
 ! R113  R(54,55)                2.4707         estimate D2E/DX2                !
 ! R114  R(54,56)                2.4679         estimate D2E/DX2                !
 ! R115  R(54,57)                3.029          estimate D2E/DX2                !
 ! R116  R(55,57)                2.3449         estimate D2E/DX2                !
 ! R117  R(56,57)                2.3426         estimate D2E/DX2                !
 ! R118  R(57,58)                2.1243         estimate D2E/DX2                !
 ! R119  R(57,64)                2.49           estimate D2E/DX2                !
 ! R120  R(62,68)                2.4324         estimate D2E/DX2                !
 ! R121  R(65,66)                2.5028         estimate D2E/DX2                !
 ! R122  R(65,67)                2.1154         estimate D2E/DX2                !
 ! R123  R(65,69)                2.2465         estimate D2E/DX2                !
 ! R124  R(66,68)                2.6328         estimate D2E/DX2                !
 ! R125  R(66,71)                2.7411         estimate D2E/DX2                !
 ! R126  R(68,69)                2.4867         estimate D2E/DX2                !
 ! R127  R(68,70)                2.11           estimate D2E/DX2                !
 ! R128  R(68,71)                3.0            estimate D2E/DX2                !
 ! R129  R(69,71)                2.2111         estimate D2E/DX2                !
 ! R130  R(71,72)                2.117          estimate D2E/DX2                !
 ! R131  R(71,73)                2.1485         estimate D2E/DX2                !
 ! A1    A(2,1,3)               84.1214         estimate D2E/DX2                !
 ! A2    A(2,1,4)              134.9976         estimate D2E/DX2                !
 ! A3    A(2,1,5)               80.0597         estimate D2E/DX2                !
 ! A4    A(2,1,8)               80.431          estimate D2E/DX2                !
 ! A5    A(2,1,46)             138.7274         estimate D2E/DX2                !
 ! A6    A(3,1,4)              135.7726         estimate D2E/DX2                !
 ! A7    A(3,1,5)              130.0236         estimate D2E/DX2                !
 ! A8    A(3,1,8)               87.0965         estimate D2E/DX2                !
 ! A9    A(3,1,46)              75.8281         estimate D2E/DX2                !
 ! A10   A(4,1,5)               84.1748         estimate D2E/DX2                !
 ! A11   A(4,1,8)               81.9212         estimate D2E/DX2                !
 ! A12   A(4,1,46)              80.8731         estimate D2E/DX2                !
 ! A13   A(5,1,8)              135.2757         estimate D2E/DX2                !
 ! A14   A(5,1,46)              85.7879         estimate D2E/DX2                !
 ! A15   A(8,1,46)             132.8854         estimate D2E/DX2                !
 ! A16   A(1,2,12)              84.0302         estimate D2E/DX2                !
 ! A17   A(1,2,21)              81.4752         estimate D2E/DX2                !
 ! A18   A(12,2,21)             82.2461         estimate D2E/DX2                !
 ! A19   A(1,3,45)              82.9466         estimate D2E/DX2                !
 ! A20   A(1,3,48)              80.8804         estimate D2E/DX2                !
 ! A21   A(45,3,48)             89.3915         estimate D2E/DX2                !
 ! A22   A(1,4,6)               82.3748         estimate D2E/DX2                !
 ! A23   A(1,4,9)               81.5785         estimate D2E/DX2                !
 ! A24   A(6,4,9)               82.6186         estimate D2E/DX2                !
 ! A25   A(1,5,12)              83.9981         estimate D2E/DX2                !
 ! A26   A(1,5,21)              80.6576         estimate D2E/DX2                !
 ! A27   A(12,5,21)             81.7253         estimate D2E/DX2                !
 ! A28   A(4,6,7)               82.1469         estimate D2E/DX2                !
 ! A29   A(4,6,8)               81.0602         estimate D2E/DX2                !
 ! A30   A(4,6,16)             134.7269         estimate D2E/DX2                !
 ! A31   A(4,6,43)             134.9361         estimate D2E/DX2                !
 ! A32   A(4,6,44)              83.5832         estimate D2E/DX2                !
 ! A33   A(7,6,8)              135.8106         estimate D2E/DX2                !
 ! A34   A(7,6,16)              81.3807         estimate D2E/DX2                !
 ! A35   A(7,6,43)             136.3673         estimate D2E/DX2                !
 ! A36   A(7,6,44)              81.1712         estimate D2E/DX2                !
 ! A37   A(8,6,16)              82.1158         estimate D2E/DX2                !
 ! A38   A(8,6,43)              80.9708         estimate D2E/DX2                !
 ! A39   A(8,6,44)             136.4339         estimate D2E/DX2                !
 ! A40   A(16,6,43)             82.5805         estimate D2E/DX2                !
 ! A41   A(16,6,44)            134.3409         estimate D2E/DX2                !
 ! A42   A(43,6,44)             81.715          estimate D2E/DX2                !
 ! A43   A(6,7,13)              81.8595         estimate D2E/DX2                !
 ! A44   A(6,7,18)              82.4773         estimate D2E/DX2                !
 ! A45   A(13,7,18)             82.1307         estimate D2E/DX2                !
 ! A46   A(1,8,6)               82.7301         estimate D2E/DX2                !
 ! A47   A(1,8,9)               81.434          estimate D2E/DX2                !
 ! A48   A(6,8,9)               82.9096         estimate D2E/DX2                !
 ! A49   A(4,9,8)               80.4137         estimate D2E/DX2                !
 ! A50   A(4,9,10)              81.506          estimate D2E/DX2                !
 ! A51   A(4,9,11)              83.8417         estimate D2E/DX2                !
 ! A52   A(4,9,15)             136.8534         estimate D2E/DX2                !
 ! A53   A(4,9,26)             134.6892         estimate D2E/DX2                !
 ! A54   A(8,9,10)             134.7574         estimate D2E/DX2                !
 ! A55   A(8,9,11)             135.5693         estimate D2E/DX2                !
 ! A56   A(8,9,15)              83.6044         estimate D2E/DX2                !
 ! A57   A(8,9,26)              82.1829         estimate D2E/DX2                !
 ! A58   A(10,9,11)             82.5467         estimate D2E/DX2                !
 ! A59   A(10,9,15)            134.7615         estimate D2E/DX2                !
 ! A60   A(10,9,26)             81.8268         estimate D2E/DX2                !
 ! A61   A(11,9,15)             80.1616         estimate D2E/DX2                !
 ! A62   A(11,9,26)            134.7882         estimate D2E/DX2                !
 ! A63   A(15,9,26)             81.4742         estimate D2E/DX2                !
 ! A64   A(9,10,13)             81.4817         estimate D2E/DX2                !
 ! A65   A(9,10,24)             81.7293         estimate D2E/DX2                !
 ! A66   A(13,10,24)            80.8592         estimate D2E/DX2                !
 ! A67   A(9,11,12)             82.6688         estimate D2E/DX2                !
 ! A68   A(9,11,27)             83.199          estimate D2E/DX2                !
 ! A69   A(12,11,27)            81.9168         estimate D2E/DX2                !
 ! A70   A(2,12,5)              80.5579         estimate D2E/DX2                !
 ! A71   A(2,12,11)            132.7761         estimate D2E/DX2                !
 ! A72   A(2,12,14)             83.5783         estimate D2E/DX2                !
 ! A73   A(2,12,15)             80.9597         estimate D2E/DX2                !
 ! A74   A(2,12,52)            136.2495         estimate D2E/DX2                !
 ! A75   A(5,12,11)             81.8903         estimate D2E/DX2                !
 ! A76   A(5,12,14)            136.8339         estimate D2E/DX2                !
 ! A77   A(5,12,15)            134.4842         estimate D2E/DX2                !
 ! A78   A(5,12,52)             82.662          estimate D2E/DX2                !
 ! A79   A(11,12,14)           135.4012         estimate D2E/DX2                !
 ! A80   A(11,12,15)            80.9419         estimate D2E/DX2                !
 ! A81   A(11,12,52)            83.6379         estimate D2E/DX2                !
 ! A82   A(14,12,15)            81.1994         estimate D2E/DX2                !
 ! A83   A(14,12,52)            81.6962         estimate D2E/DX2                !
 ! A84   A(15,12,52)           136.1914         estimate D2E/DX2                !
 ! A85   A(7,13,10)             83.1371         estimate D2E/DX2                !
 ! A86   A(7,13,16)             80.7252         estimate D2E/DX2                !
 ! A87   A(7,13,26)            136.6612         estimate D2E/DX2                !
 ! A88   A(7,13,37)             82.4855         estimate D2E/DX2                !
 ! A89   A(7,13,38)            133.0415         estimate D2E/DX2                !
 ! A90   A(10,13,16)           136.5314         estimate D2E/DX2                !
 ! A91   A(10,13,26)            82.6415         estimate D2E/DX2                !
 ! A92   A(10,13,37)            82.7713         estimate D2E/DX2                !
 ! A93   A(10,13,38)           135.6874         estimate D2E/DX2                !
 ! A94   A(16,13,26)            82.0806         estimate D2E/DX2                !
 ! A95   A(16,13,37)           133.9287         estimate D2E/DX2                !
 ! A96   A(16,13,38)            81.8798         estimate D2E/DX2                !
 ! A97   A(26,13,37)           135.4536         estimate D2E/DX2                !
 ! A98   A(26,13,38)            82.7271         estimate D2E/DX2                !
 ! A99   A(37,13,38)            79.0401         estimate D2E/DX2                !
 ! A100  A(12,14,51)            79.6633         estimate D2E/DX2                !
 ! A101  A(12,14,54)            77.5478         estimate D2E/DX2                !
 ! A102  A(9,15,12)             82.7625         estimate D2E/DX2                !
 ! A103  A(9,15,27)             83.2961         estimate D2E/DX2                !
 ! A104  A(12,15,27)            81.9172         estimate D2E/DX2                !
 ! A105  A(6,16,13)             81.8698         estimate D2E/DX2                !
 ! A106  A(6,16,18)             82.5139         estimate D2E/DX2                !
 ! A107  A(13,16,18)            82.427          estimate D2E/DX2                !
 ! A108  A(24,17,33)            80.3837         estimate D2E/DX2                !
 ! A109  A(24,17,36)            80.4893         estimate D2E/DX2                !
 ! A110  A(7,18,16)             81.5381         estimate D2E/DX2                !
 ! A111  A(7,18,19)             86.9733         estimate D2E/DX2                !
 ! A112  A(7,18,20)            134.8589         estimate D2E/DX2                !
 ! A113  A(7,18,39)             90.9858         estimate D2E/DX2                !
 ! A114  A(7,18,40)             79.8764         estimate D2E/DX2                !
 ! A115  A(7,18,62)            136.4213         estimate D2E/DX2                !
 ! A116  A(16,18,19)           135.1539         estimate D2E/DX2                !
 ! A117  A(16,18,20)            83.1776         estimate D2E/DX2                !
 ! A118  A(16,18,39)            91.2956         estimate D2E/DX2                !
 ! A119  A(16,18,40)           135.5049         estimate D2E/DX2                !
 ! A120  A(16,18,62)            82.1701         estimate D2E/DX2                !
 ! A121  A(19,18,20)            74.8398         estimate D2E/DX2                !
 ! A122  A(19,18,39)           132.3016         estimate D2E/DX2                !
 ! A123  A(19,18,40)            83.6532         estimate D2E/DX2                !
 ! A124  A(19,18,62)           131.204          estimate D2E/DX2                !
 ! A125  A(20,18,39)           131.6341         estimate D2E/DX2                !
 ! A126  A(20,18,40)           136.2935         estimate D2E/DX2                !
 ! A127  A(20,18,62)            82.3427         estimate D2E/DX2                !
 ! A128  A(40,18,62)            84.1472         estimate D2E/DX2                !
 ! A129  A(18,19,42)            83.0275         estimate D2E/DX2                !
 ! A130  A(18,19,65)            79.8282         estimate D2E/DX2                !
 ! A131  A(42,19,65)            93.2569         estimate D2E/DX2                !
 ! A132  A(18,20,42)            82.0519         estimate D2E/DX2                !
 ! A133  A(18,20,65)            81.1012         estimate D2E/DX2                !
 ! A134  A(42,20,65)            95.3297         estimate D2E/DX2                !
 ! A135  A(2,21,5)              82.4517         estimate D2E/DX2                !
 ! A136  A(2,21,22)             95.3928         estimate D2E/DX2                !
 ! A137  A(2,21,23)             88.5457         estimate D2E/DX2                !
 ! A138  A(2,21,48)             98.1407         estimate D2E/DX2                !
 ! A139  A(2,21,49)            139.4457         estimate D2E/DX2                !
 ! A140  A(2,21,63)            133.3418         estimate D2E/DX2                !
 ! A141  A(5,21,22)            133.0437         estimate D2E/DX2                !
 ! A142  A(5,21,23)            138.1786         estimate D2E/DX2                !
 ! A143  A(5,21,48)             88.2304         estimate D2E/DX2                !
 ! A144  A(5,21,49)             79.6222         estimate D2E/DX2                !
 ! A145  A(5,21,63)             99.6453         estimate D2E/DX2                !
 ! A146  A(22,21,23)            88.3182         estimate D2E/DX2                !
 ! A147  A(22,21,48)           137.9852         estimate D2E/DX2                !
 ! A148  A(22,21,49)           123.1961         estimate D2E/DX2                !
 ! A149  A(23,21,49)            81.307          estimate D2E/DX2                !
 ! A150  A(23,21,63)           115.6051         estimate D2E/DX2                !
 ! A151  A(48,21,63)           128.4316         estimate D2E/DX2                !
 ! A152  A(49,21,63)            85.6426         estimate D2E/DX2                !
 ! A153  A(21,22,51)            88.0608         estimate D2E/DX2                !
 ! A154  A(10,24,17)           135.7113         estimate D2E/DX2                !
 ! A155  A(10,24,25)            82.3777         estimate D2E/DX2                !
 ! A156  A(10,24,26)            82.535          estimate D2E/DX2                !
 ! A157  A(10,24,28)            82.1225         estimate D2E/DX2                !
 ! A158  A(10,24,29)           136.0197         estimate D2E/DX2                !
 ! A159  A(10,24,30)           131.4477         estimate D2E/DX2                !
 ! A160  A(17,24,25)            80.2001         estimate D2E/DX2                !
 ! A161  A(17,24,26)            82.189          estimate D2E/DX2                !
 ! A162  A(17,24,28)           134.7277         estimate D2E/DX2                !
 ! A163  A(17,24,29)            82.1312         estimate D2E/DX2                !
 ! A164  A(17,24,30)            88.3683         estimate D2E/DX2                !
 ! A165  A(25,24,26)           135.6441         estimate D2E/DX2                !
 ! A166  A(25,24,28)            82.7086         estimate D2E/DX2                !
 ! A167  A(25,24,29)           134.3464         estimate D2E/DX2                !
 ! A168  A(25,24,30)            88.2514         estimate D2E/DX2                !
 ! A169  A(26,24,28)           135.5847         estimate D2E/DX2                !
 ! A170  A(26,24,29)            82.2047         estimate D2E/DX2                !
 ! A171  A(26,24,30)           131.5716         estimate D2E/DX2                !
 ! A172  A(28,24,29)            80.6087         estimate D2E/DX2                !
 ! A173  A(24,25,33)            80.4188         estimate D2E/DX2                !
 ! A174  A(24,25,36)            80.519          estimate D2E/DX2                !
 ! A175  A(9,26,13)             81.5083         estimate D2E/DX2                !
 ! A176  A(9,26,24)             81.7675         estimate D2E/DX2                !
 ! A177  A(13,26,24)            80.9079         estimate D2E/DX2                !
 ! A178  A(11,27,15)            80.8848         estimate D2E/DX2                !
 ! A179  A(11,27,28)            81.7615         estimate D2E/DX2                !
 ! A180  A(11,27,29)           134.3934         estimate D2E/DX2                !
 ! A181  A(11,27,55)            83.1116         estimate D2E/DX2                !
 ! A182  A(11,27,56)           137.6244         estimate D2E/DX2                !
 ! A183  A(15,27,28)           133.8223         estimate D2E/DX2                !
 ! A184  A(15,27,29)            81.6813         estimate D2E/DX2                !
 ! A185  A(15,27,55)           136.9372         estimate D2E/DX2                !
 ! A186  A(15,27,56)            83.7242         estimate D2E/DX2                !
 ! A187  A(28,27,29)            80.7026         estimate D2E/DX2                !
 ! A188  A(28,27,55)            82.2078         estimate D2E/DX2                !
 ! A189  A(28,27,56)           134.3762         estimate D2E/DX2                !
 ! A190  A(29,27,55)           134.9468         estimate D2E/DX2                !
 ! A191  A(29,27,56)            81.1421         estimate D2E/DX2                !
 ! A192  A(55,27,56)            81.7891         estimate D2E/DX2                !
 ! A193  A(24,28,27)            82.7546         estimate D2E/DX2                !
 ! A194  A(27,28,30)            83.7369         estimate D2E/DX2                !
 ! A195  A(24,29,27)            82.8655         estimate D2E/DX2                !
 ! A196  A(27,29,30)            83.7766         estimate D2E/DX2                !
 ! A197  A(24,30,31)           147.0091         estimate D2E/DX2                !
 ! A198  A(24,30,32)            92.4177         estimate D2E/DX2                !
 ! A199  A(24,30,33)            61.8315         estimate D2E/DX2                !
 ! A200  A(24,30,34)            92.4358         estimate D2E/DX2                !
 ! A201  A(24,30,64)           146.2945         estimate D2E/DX2                !
 ! A202  A(28,30,29)            82.3023         estimate D2E/DX2                !
 ! A203  A(28,30,31)           131.4657         estimate D2E/DX2                !
 ! A204  A(28,30,32)           140.1749         estimate D2E/DX2                !
 ! A205  A(28,30,33)            93.5622         estimate D2E/DX2                !
 ! A206  A(28,30,34)            84.0303         estimate D2E/DX2                !
 ! A207  A(28,30,64)            95.9625         estimate D2E/DX2                !
 ! A208  A(29,30,31)            96.7651         estimate D2E/DX2                !
 ! A209  A(29,30,32)            83.4226         estimate D2E/DX2                !
 ! A210  A(29,30,33)            92.9493         estimate D2E/DX2                !
 ! A211  A(29,30,34)           139.8457         estimate D2E/DX2                !
 ! A212  A(29,30,64)           131.487          estimate D2E/DX2                !
 ! A213  A(31,30,32)            87.044          estimate D2E/DX2                !
 ! A214  A(31,30,33)           134.7649         estimate D2E/DX2                !
 ! A215  A(31,30,34)           120.184          estimate D2E/DX2                !
 ! A216  A(32,30,34)            83.3939         estimate D2E/DX2                !
 ! A217  A(32,30,64)           120.9601         estimate D2E/DX2                !
 ! A218  A(33,30,64)           135.3861         estimate D2E/DX2                !
 ! A219  A(34,30,64)            87.3603         estimate D2E/DX2                !
 ! A220  A(30,31,57)            88.0566         estimate D2E/DX2                !
 ! A221  A(17,33,25)            86.1061         estimate D2E/DX2                !
 ! A222  A(17,33,30)            90.9079         estimate D2E/DX2                !
 ! A223  A(17,33,32)            81.1678         estimate D2E/DX2                !
 ! A224  A(17,33,34)           136.6501         estimate D2E/DX2                !
 ! A225  A(17,33,59)           118.4493         estimate D2E/DX2                !
 ! A226  A(25,33,30)            90.7633         estimate D2E/DX2                !
 ! A227  A(25,33,32)           136.765          estimate D2E/DX2                !
 ! A228  A(25,33,34)            80.9493         estimate D2E/DX2                !
 ! A229  A(25,33,59)           118.3898         estimate D2E/DX2                !
 ! A230  A(30,33,36)           120.4678         estimate D2E/DX2                !
 ! A231  A(30,33,59)           138.2159         estimate D2E/DX2                !
 ! A232  A(32,33,34)            80.6216         estimate D2E/DX2                !
 ! A233  A(32,33,36)           131.5569         estimate D2E/DX2                !
 ! A234  A(32,33,59)           103.9155         estimate D2E/DX2                !
 ! A235  A(34,33,36)           131.3371         estimate D2E/DX2                !
 ! A236  A(34,33,59)           104.0165         estimate D2E/DX2                !
 ! A237  A(36,33,59)           101.316          estimate D2E/DX2                !
 ! A238  A(17,36,25)            85.9491         estimate D2E/DX2                !
 ! A239  A(17,36,35)           111.8225         estimate D2E/DX2                !
 ! A240  A(17,36,37)           137.2484         estimate D2E/DX2                !
 ! A241  A(17,36,38)            81.1066         estimate D2E/DX2                !
 ! A242  A(25,36,35)           111.7016         estimate D2E/DX2                !
 ! A243  A(25,36,37)            81.0261         estimate D2E/DX2                !
 ! A244  A(25,36,38)           137.2429         estimate D2E/DX2                !
 ! A245  A(33,36,35)            91.2104         estimate D2E/DX2                !
 ! A246  A(33,36,37)           131.3268         estimate D2E/DX2                !
 ! A247  A(33,36,38)           131.414          estimate D2E/DX2                !
 ! A248  A(35,36,37)           110.8397         estimate D2E/DX2                !
 ! A249  A(35,36,38)           110.9543         estimate D2E/DX2                !
 ! A250  A(37,36,38)            81.4583         estimate D2E/DX2                !
 ! A251  A(13,37,36)            82.4238         estimate D2E/DX2                !
 ! A252  A(13,37,39)            81.3141         estimate D2E/DX2                !
 ! A253  A(36,37,39)            83.6375         estimate D2E/DX2                !
 ! A254  A(13,38,36)            82.3864         estimate D2E/DX2                !
 ! A255  A(13,38,39)            81.6239         estimate D2E/DX2                !
 ! A256  A(36,38,39)            83.8602         estimate D2E/DX2                !
 ! A257  A(18,39,37)            92.8101         estimate D2E/DX2                !
 ! A258  A(18,39,38)            91.9257         estimate D2E/DX2                !
 ! A259  A(18,39,41)           154.1833         estimate D2E/DX2                !
 ! A260  A(18,39,68)            66.5441         estimate D2E/DX2                !
 ! A261  A(37,39,38)            81.7216         estimate D2E/DX2                !
 ! A262  A(37,39,40)            80.9418         estimate D2E/DX2                !
 ! A263  A(37,39,41)           111.932          estimate D2E/DX2                !
 ! A264  A(37,39,62)           139.6117         estimate D2E/DX2                !
 ! A265  A(37,39,68)           134.0527         estimate D2E/DX2                !
 ! A266  A(38,39,40)           138.6727         estimate D2E/DX2                !
 ! A267  A(38,39,41)            98.6114         estimate D2E/DX2                !
 ! A268  A(38,39,62)            81.7025         estimate D2E/DX2                !
 ! A269  A(38,39,68)           136.2694         estimate D2E/DX2                !
 ! A270  A(40,39,41)           122.6592         estimate D2E/DX2                !
 ! A271  A(40,39,62)            87.7977         estimate D2E/DX2                !
 ! A272  A(41,39,62)           106.8151         estimate D2E/DX2                !
 ! A273  A(41,39,68)            90.0            estimate D2E/DX2                !
 ! A274  A(18,40,68)            83.7938         estimate D2E/DX2                !
 ! A275  A(19,42,20)            75.8012         estimate D2E/DX2                !
 ! A276  A(19,42,43)           139.6994         estimate D2E/DX2                !
 ! A277  A(19,42,44)            83.9785         estimate D2E/DX2                !
 ! A278  A(19,42,45)           135.7725         estimate D2E/DX2                !
 ! A279  A(19,42,61)           103.4968         estimate D2E/DX2                !
 ! A280  A(20,42,43)            83.6154         estimate D2E/DX2                !
 ! A281  A(20,42,44)           138.0386         estimate D2E/DX2                !
 ! A282  A(20,42,45)           135.2669         estimate D2E/DX2                !
 ! A283  A(20,42,61)           104.6818         estimate D2E/DX2                !
 ! A284  A(43,42,44)            89.0353         estimate D2E/DX2                !
 ! A285  A(43,42,61)           115.1745         estimate D2E/DX2                !
 ! A286  A(44,42,61)           115.7172         estimate D2E/DX2                !
 ! A287  A(45,42,61)            97.3157         estimate D2E/DX2                !
 ! A288  A(6,43,42)             79.1181         estimate D2E/DX2                !
 ! A289  A(6,43,45)             78.7214         estimate D2E/DX2                !
 ! A290  A(6,44,42)             79.3485         estimate D2E/DX2                !
 ! A291  A(6,44,45)             78.7483         estimate D2E/DX2                !
 ! A292  A(3,45,42)            136.8576         estimate D2E/DX2                !
 ! A293  A(3,45,43)             85.0541         estimate D2E/DX2                !
 ! A294  A(3,45,44)            140.3217         estimate D2E/DX2                !
 ! A295  A(3,45,46)             77.121          estimate D2E/DX2                !
 ! A296  A(3,45,47)            103.7678         estimate D2E/DX2                !
 ! A297  A(42,45,46)           133.0585         estimate D2E/DX2                !
 ! A298  A(42,45,47)            96.2903         estimate D2E/DX2                !
 ! A299  A(43,45,44)            88.9372         estimate D2E/DX2                !
 ! A300  A(43,45,46)           137.8205         estimate D2E/DX2                !
 ! A301  A(43,45,47)           115.4386         estimate D2E/DX2                !
 ! A302  A(44,45,46)            81.5311         estimate D2E/DX2                !
 ! A303  A(44,45,47)           114.1295         estimate D2E/DX2                !
 ! A304  A(46,45,47)           105.8858         estimate D2E/DX2                !
 ! A305  A(1,46,45)             82.3267         estimate D2E/DX2                !
 ! A306  A(1,46,48)             82.1924         estimate D2E/DX2                !
 ! A307  A(45,46,48)            92.2103         estimate D2E/DX2                !
 ! A308  A(3,48,21)             86.8479         estimate D2E/DX2                !
 ! A309  A(3,48,23)             76.9113         estimate D2E/DX2                !
 ! A310  A(3,48,46)             78.4429         estimate D2E/DX2                !
 ! A311  A(3,48,49)            138.5019         estimate D2E/DX2                !
 ! A312  A(3,48,50)            115.2561         estimate D2E/DX2                !
 ! A313  A(21,48,46)            98.2501         estimate D2E/DX2                !
 ! A314  A(21,48,50)           142.939          estimate D2E/DX2                !
 ! A315  A(23,48,46)           137.8042         estimate D2E/DX2                !
 ! A316  A(23,48,49)            83.0883         estimate D2E/DX2                !
 ! A317  A(23,48,50)           106.8478         estimate D2E/DX2                !
 ! A318  A(46,48,49)            93.5351         estimate D2E/DX2                !
 ! A319  A(46,48,50)           114.5388         estimate D2E/DX2                !
 ! A320  A(49,48,50)           105.1783         estimate D2E/DX2                !
 ! A321  A(14,51,22)            92.7989         estimate D2E/DX2                !
 ! A322  A(14,51,52)            91.8078         estimate D2E/DX2                !
 ! A323  A(14,51,60)           115.379          estimate D2E/DX2                !
 ! A324  A(14,51,63)           133.4771         estimate D2E/DX2                !
 ! A325  A(22,51,52)           134.1933         estimate D2E/DX2                !
 ! A326  A(22,51,54)           145.6674         estimate D2E/DX2                !
 ! A327  A(22,51,60)           102.556          estimate D2E/DX2                !
 ! A328  A(52,51,60)           116.216          estimate D2E/DX2                !
 ! A329  A(52,51,63)            96.7461         estimate D2E/DX2                !
 ! A330  A(54,51,60)            97.8927         estimate D2E/DX2                !
 ! A331  A(54,51,63)           149.5377         estimate D2E/DX2                !
 ! A332  A(60,51,63)           101.3816         estimate D2E/DX2                !
 ! A333  A(12,52,51)            79.6811         estimate D2E/DX2                !
 ! A334  A(12,52,54)            77.7195         estimate D2E/DX2                !
 ! A335  A(14,54,52)            86.7267         estimate D2E/DX2                !
 ! A336  A(14,54,53)           110.7987         estimate D2E/DX2                !
 ! A337  A(14,54,55)           142.8893         estimate D2E/DX2                !
 ! A338  A(14,54,56)            82.301          estimate D2E/DX2                !
 ! A339  A(14,54,57)           131.4114         estimate D2E/DX2                !
 ! A340  A(51,54,53)            90.8814         estimate D2E/DX2                !
 ! A341  A(51,54,55)           133.392          estimate D2E/DX2                !
 ! A342  A(51,54,56)           132.0886         estimate D2E/DX2                !
 ! A343  A(52,54,53)           110.2577         estimate D2E/DX2                !
 ! A344  A(52,54,55)            83.2308         estimate D2E/DX2                !
 ! A345  A(52,54,56)           144.1385         estimate D2E/DX2                !
 ! A346  A(52,54,57)           132.3309         estimate D2E/DX2                !
 ! A347  A(53,54,55)           106.1987         estimate D2E/DX2                !
 ! A348  A(53,54,56)           105.5581         estimate D2E/DX2                !
 ! A349  A(53,54,57)            84.517          estimate D2E/DX2                !
 ! A350  A(55,54,56)            85.2563         estimate D2E/DX2                !
 ! A351  A(27,55,54)            77.0403         estimate D2E/DX2                !
 ! A352  A(27,55,57)            80.4053         estimate D2E/DX2                !
 ! A353  A(27,56,54)            77.0756         estimate D2E/DX2                !
 ! A354  A(27,56,57)            80.4309         estimate D2E/DX2                !
 ! A355  A(31,57,54)           147.5956         estimate D2E/DX2                !
 ! A356  A(31,57,55)           134.4896         estimate D2E/DX2                !
 ! A357  A(31,57,56)            95.1589         estimate D2E/DX2                !
 ! A358  A(31,57,58)            99.961          estimate D2E/DX2                !
 ! A359  A(54,57,58)            99.8808         estimate D2E/DX2                !
 ! A360  A(54,57,64)           147.7414         estimate D2E/DX2                !
 ! A361  A(55,57,56)            91.0428         estimate D2E/DX2                !
 ! A362  A(55,57,58)           116.9021         estimate D2E/DX2                !
 ! A363  A(55,57,64)            95.3464         estimate D2E/DX2                !
 ! A364  A(56,57,58)           117.0993         estimate D2E/DX2                !
 ! A365  A(56,57,64)           133.8731         estimate D2E/DX2                !
 ! A366  A(58,57,64)           100.2905         estimate D2E/DX2                !
 ! A367  A(18,62,68)            83.3784         estimate D2E/DX2                !
 ! A368  A(21,63,51)            87.8497         estimate D2E/DX2                !
 ! A369  A(30,64,57)            87.948          estimate D2E/DX2                !
 ! A370  A(19,65,20)            76.6052         estimate D2E/DX2                !
 ! A371  A(19,65,66)            76.0523         estimate D2E/DX2                !
 ! A372  A(19,65,67)           112.5102         estimate D2E/DX2                !
 ! A373  A(19,65,69)           139.8038         estimate D2E/DX2                !
 ! A374  A(20,65,66)           138.5342         estimate D2E/DX2                !
 ! A375  A(20,65,67)           108.8922         estimate D2E/DX2                !
 ! A376  A(20,65,69)            96.9111         estimate D2E/DX2                !
 ! A377  A(66,65,67)           110.1265         estimate D2E/DX2                !
 ! A378  A(66,65,69)            84.6382         estimate D2E/DX2                !
 ! A379  A(67,65,69)           107.143          estimate D2E/DX2                !
 ! A380  A(65,66,68)            78.6506         estimate D2E/DX2                !
 ! A381  A(65,66,71)            80.0187         estimate D2E/DX2                !
 ! A382  A(39,68,66)           129.7326         estimate D2E/DX2                !
 ! A383  A(39,68,69)           132.183          estimate D2E/DX2                !
 ! A384  A(39,68,70)            89.2325         estimate D2E/DX2                !
 ! A385  A(40,68,62)            86.852          estimate D2E/DX2                !
 ! A386  A(40,68,66)            76.1356         estimate D2E/DX2                !
 ! A387  A(40,68,69)           132.616          estimate D2E/DX2                !
 ! A388  A(40,68,70)           113.6461         estimate D2E/DX2                !
 ! A389  A(40,68,71)           133.5379         estimate D2E/DX2                !
 ! A390  A(62,68,66)           127.0409         estimate D2E/DX2                !
 ! A391  A(62,68,69)            78.7574         estimate D2E/DX2                !
 ! A392  A(62,68,70)           114.9            estimate D2E/DX2                !
 ! A393  A(62,68,71)           124.4372         estimate D2E/DX2                !
 ! A394  A(66,68,69)            77.4021         estimate D2E/DX2                !
 ! A395  A(66,68,70)           117.904          estimate D2E/DX2                !
 ! A396  A(69,68,70)           113.3824         estimate D2E/DX2                !
 ! A397  A(70,68,71)            85.5005         estimate D2E/DX2                !
 ! A398  A(65,69,68)            86.7772         estimate D2E/DX2                !
 ! A399  A(65,69,71)            98.4744         estimate D2E/DX2                !
 ! A400  A(66,71,69)            79.8182         estimate D2E/DX2                !
 ! A401  A(66,71,72)           118.3764         estimate D2E/DX2                !
 ! A402  A(66,71,73)           116.9256         estimate D2E/DX2                !
 ! A403  A(68,71,72)           115.3462         estimate D2E/DX2                !
 ! A404  A(68,71,73)           143.4171         estimate D2E/DX2                !
 ! A405  A(69,71,72)           150.7184         estimate D2E/DX2                !
 ! A406  A(69,71,73)            89.9878         estimate D2E/DX2                !
 ! A407  A(72,71,73)           100.0            estimate D2E/DX2                !
 ! A408  L(51,54,57,53,-1)     175.3984         estimate D2E/DX2                !
 ! A409  L(39,68,71,70,-1)     174.733          estimate D2E/DX2                !
 ! A410  L(51,54,57,53,-2)     180.6925         estimate D2E/DX2                !
 ! A411  L(39,68,71,70,-2)     185.466          estimate D2E/DX2                !
 ! D1    D(3,1,2,12)           172.7964         estimate D2E/DX2                !
 ! D2    D(3,1,2,21)            89.7747         estimate D2E/DX2                !
 ! D3    D(4,1,2,12)           -30.8906         estimate D2E/DX2                !
 ! D4    D(4,1,2,21)          -113.9122         estimate D2E/DX2                !
 ! D5    D(5,1,2,12)            40.3888         estimate D2E/DX2                !
 ! D6    D(5,1,2,21)           -42.6328         estimate D2E/DX2                !
 ! D7    D(8,1,2,12)           -99.1683         estimate D2E/DX2                !
 ! D8    D(8,1,2,21)           177.8101         estimate D2E/DX2                !
 ! D9    D(46,1,2,12)          112.1654         estimate D2E/DX2                !
 ! D10   D(46,1,2,21)           29.1438         estimate D2E/DX2                !
 ! D11   D(2,1,3,45)           170.6378         estimate D2E/DX2                !
 ! D12   D(2,1,3,48)           -98.8451         estimate D2E/DX2                !
 ! D13   D(4,1,3,45)            14.6722         estimate D2E/DX2                !
 ! D14   D(4,1,3,48)           105.1892         estimate D2E/DX2                !
 ! D15   D(5,1,3,45)          -117.6071         estimate D2E/DX2                !
 ! D16   D(5,1,3,48)           -27.09           estimate D2E/DX2                !
 ! D17   D(8,1,3,45)            89.967          estimate D2E/DX2                !
 ! D18   D(8,1,3,48)          -179.5159         estimate D2E/DX2                !
 ! D19   D(46,1,3,45)          -45.7259         estimate D2E/DX2                !
 ! D20   D(46,1,3,48)           44.7912         estimate D2E/DX2                !
 ! D21   D(2,1,4,6)           -108.5578         estimate D2E/DX2                !
 ! D22   D(2,1,4,9)            -24.943          estimate D2E/DX2                !
 ! D23   D(3,1,4,6)             36.4871         estimate D2E/DX2                !
 ! D24   D(3,1,4,9)            120.1019         estimate D2E/DX2                !
 ! D25   D(5,1,4,6)           -178.2298         estimate D2E/DX2                !
 ! D26   D(5,1,4,9)            -94.6151         estimate D2E/DX2                !
 ! D27   D(8,1,4,6)            -40.8525         estimate D2E/DX2                !
 ! D28   D(8,1,4,9)             42.7623         estimate D2E/DX2                !
 ! D29   D(46,1,4,6)            95.1174         estimate D2E/DX2                !
 ! D30   D(46,1,4,9)           178.7321         estimate D2E/DX2                !
 ! D31   D(2,1,5,12)           -40.5277         estimate D2E/DX2                !
 ! D32   D(2,1,5,21)            42.0397         estimate D2E/DX2                !
 ! D33   D(3,1,5,12)          -114.0906         estimate D2E/DX2                !
 ! D34   D(3,1,5,21)           -31.5233         estimate D2E/DX2                !
 ! D35   D(4,1,5,12)            97.1577         estimate D2E/DX2                !
 ! D36   D(4,1,5,21)           179.725          estimate D2E/DX2                !
 ! D37   D(8,1,5,12)            24.8409         estimate D2E/DX2                !
 ! D38   D(8,1,5,21)           107.4082         estimate D2E/DX2                !
 ! D39   D(46,1,5,12)          178.3937         estimate D2E/DX2                !
 ! D40   D(46,1,5,21)          -99.0389         estimate D2E/DX2                !
 ! D41   D(2,1,8,6)            179.6361         estimate D2E/DX2                !
 ! D42   D(2,1,8,9)             95.7568         estimate D2E/DX2                !
 ! D43   D(3,1,8,6)            -95.841          estimate D2E/DX2                !
 ! D44   D(3,1,8,9)           -179.7203         estimate D2E/DX2                !
 ! D45   D(4,1,8,6)             41.2039         estimate D2E/DX2                !
 ! D46   D(4,1,8,9)            -42.6754         estimate D2E/DX2                !
 ! D47   D(5,1,8,6)            114.4063         estimate D2E/DX2                !
 ! D48   D(5,1,8,9)             30.527          estimate D2E/DX2                !
 ! D49   D(46,1,8,6)           -28.2788         estimate D2E/DX2                !
 ! D50   D(46,1,8,9)          -112.1581         estimate D2E/DX2                !
 ! D51   D(2,1,46,45)          109.4541         estimate D2E/DX2                !
 ! D52   D(2,1,46,48)           16.1432         estimate D2E/DX2                !
 ! D53   D(3,1,46,45)           46.0601         estimate D2E/DX2                !
 ! D54   D(3,1,46,48)          -47.2508         estimate D2E/DX2                !
 ! D55   D(4,1,46,45)          -96.0428         estimate D2E/DX2                !
 ! D56   D(4,1,46,48)          170.6463         estimate D2E/DX2                !
 ! D57   D(5,1,46,45)          179.1922         estimate D2E/DX2                !
 ! D58   D(5,1,46,48)           85.8813         estimate D2E/DX2                !
 ! D59   D(8,1,46,45)          -26.1315         estimate D2E/DX2                !
 ! D60   D(8,1,46,48)         -119.4424         estimate D2E/DX2                !
 ! D61   D(1,2,12,5)           -40.7194         estimate D2E/DX2                !
 ! D62   D(1,2,12,11)           28.8728         estimate D2E/DX2                !
 ! D63   D(1,2,12,14)          179.5709         estimate D2E/DX2                !
 ! D64   D(1,2,12,15)           97.5025         estimate D2E/DX2                !
 ! D65   D(1,2,12,52)         -109.5605         estimate D2E/DX2                !
 ! D66   D(21,2,12,5)           41.4535         estimate D2E/DX2                !
 ! D67   D(21,2,12,11)         111.0458         estimate D2E/DX2                !
 ! D68   D(21,2,12,14)         -98.2561         estimate D2E/DX2                !
 ! D69   D(21,2,12,15)         179.6755         estimate D2E/DX2                !
 ! D70   D(21,2,12,52)         -27.3875         estimate D2E/DX2                !
 ! D71   D(1,2,21,5)            43.3184         estimate D2E/DX2                !
 ! D72   D(1,2,21,22)          176.0898         estimate D2E/DX2                !
 ! D73   D(1,2,21,23)          -95.7374         estimate D2E/DX2                !
 ! D74   D(1,2,21,48)          -43.7914         estimate D2E/DX2                !
 ! D75   D(1,2,21,49)          -20.9385         estimate D2E/DX2                !
 ! D76   D(1,2,21,63)          139.4803         estimate D2E/DX2                !
 ! D77   D(12,2,21,5)          -41.7639         estimate D2E/DX2                !
 ! D78   D(12,2,21,22)          91.0075         estimate D2E/DX2                !
 ! D79   D(12,2,21,23)         179.1803         estimate D2E/DX2                !
 ! D80   D(12,2,21,48)        -128.8737         estimate D2E/DX2                !
 ! D81   D(12,2,21,49)        -106.0208         estimate D2E/DX2                !
 ! D82   D(12,2,21,63)          54.3981         estimate D2E/DX2                !
 ! D83   D(1,3,45,42)          -94.4137         estimate D2E/DX2                !
 ! D84   D(1,3,45,43)          -94.6493         estimate D2E/DX2                !
 ! D85   D(1,3,45,44)          -12.3197         estimate D2E/DX2                !
 ! D86   D(1,3,45,46)           46.8679         estimate D2E/DX2                !
 ! D87   D(1,3,45,47)          150.3456         estimate D2E/DX2                !
 ! D88   D(48,3,45,42)        -175.2997         estimate D2E/DX2                !
 ! D89   D(48,3,45,43)        -175.5353         estimate D2E/DX2                !
 ! D90   D(48,3,45,44)         -93.2057         estimate D2E/DX2                !
 ! D91   D(48,3,45,46)         -34.0181         estimate D2E/DX2                !
 ! D92   D(48,3,45,47)          69.4596         estimate D2E/DX2                !
 ! D93   D(1,3,48,21)           51.3471         estimate D2E/DX2                !
 ! D94   D(1,3,48,23)           97.7362         estimate D2E/DX2                !
 ! D95   D(1,3,48,46)          -47.7407         estimate D2E/DX2                !
 ! D96   D(1,3,48,49)           34.4334         estimate D2E/DX2                !
 ! D97   D(1,3,48,50)         -159.5943         estimate D2E/DX2                !
 ! D98   D(45,3,48,21)         134.301          estimate D2E/DX2                !
 ! D99   D(45,3,48,23)        -179.3099         estimate D2E/DX2                !
 ! D100  D(45,3,48,46)          35.2132         estimate D2E/DX2                !
 ! D101  D(45,3,48,49)         117.3872         estimate D2E/DX2                !
 ! D102  D(45,3,48,50)         -76.6404         estimate D2E/DX2                !
 ! D103  D(1,4,6,7)            179.7247         estimate D2E/DX2                !
 ! D104  D(1,4,6,8)             40.7494         estimate D2E/DX2                !
 ! D105  D(1,4,6,16)           110.1849         estimate D2E/DX2                !
 ! D106  D(1,4,6,43)           -26.8313         estimate D2E/DX2                !
 ! D107  D(1,4,6,44)           -98.3464         estimate D2E/DX2                !
 ! D108  D(9,4,6,7)             97.2898         estimate D2E/DX2                !
 ! D109  D(9,4,6,8)            -41.6855         estimate D2E/DX2                !
 ! D110  D(9,4,6,16)            27.75           estimate D2E/DX2                !
 ! D111  D(9,4,6,43)          -109.2662         estimate D2E/DX2                !
 ! D112  D(9,4,6,44)           179.2187         estimate D2E/DX2                !
 ! D113  D(1,4,9,8)            -42.142          estimate D2E/DX2                !
 ! D114  D(1,4,9,10)           179.5079         estimate D2E/DX2                !
 ! D115  D(1,4,9,11)            96.1579         estimate D2E/DX2                !
 ! D116  D(1,4,9,15)            27.653          estimate D2E/DX2                !
 ! D117  D(1,4,9,26)          -110.9747         estimate D2E/DX2                !
 ! D118  D(6,4,9,8)             41.1921         estimate D2E/DX2                !
 ! D119  D(6,4,9,10)           -97.158          estimate D2E/DX2                !
 ! D120  D(6,4,9,11)           179.492          estimate D2E/DX2                !
 ! D121  D(6,4,9,15)           110.9871         estimate D2E/DX2                !
 ! D122  D(6,4,9,26)           -27.6406         estimate D2E/DX2                !
 ! D123  D(1,5,12,2)            40.5566         estimate D2E/DX2                !
 ! D124  D(1,5,12,11)          -95.4248         estimate D2E/DX2                !
 ! D125  D(1,5,12,14)          110.4943         estimate D2E/DX2                !
 ! D126  D(1,5,12,15)          -26.7002         estimate D2E/DX2                !
 ! D127  D(1,5,12,52)          179.998          estimate D2E/DX2                !
 ! D128  D(21,5,12,2)          -40.8365         estimate D2E/DX2                !
 ! D129  D(21,5,12,11)        -176.8179         estimate D2E/DX2                !
 ! D130  D(21,5,12,14)          29.1013         estimate D2E/DX2                !
 ! D131  D(21,5,12,15)        -108.0933         estimate D2E/DX2                !
 ! D132  D(21,5,12,52)          98.605          estimate D2E/DX2                !
 ! D133  D(1,5,21,2)           -43.2575         estimate D2E/DX2                !
 ! D134  D(1,5,21,22)         -133.5993         estimate D2E/DX2                !
 ! D135  D(1,5,21,23)           35.9946         estimate D2E/DX2                !
 ! D136  D(1,5,21,48)           55.1959         estimate D2E/DX2                !
 ! D137  D(1,5,21,49)          100.2028         estimate D2E/DX2                !
 ! D138  D(1,5,21,63)         -176.0821         estimate D2E/DX2                !
 ! D139  D(12,5,21,2)           41.9725         estimate D2E/DX2                !
 ! D140  D(12,5,21,22)         -48.3692         estimate D2E/DX2                !
 ! D141  D(12,5,21,23)         121.2246         estimate D2E/DX2                !
 ! D142  D(12,5,21,48)         140.4259         estimate D2E/DX2                !
 ! D143  D(12,5,21,49)        -174.5672         estimate D2E/DX2                !
 ! D144  D(12,5,21,63)         -90.8521         estimate D2E/DX2                !
 ! D145  D(4,6,7,13)           -95.4713         estimate D2E/DX2                !
 ! D146  D(4,6,7,18)          -178.5435         estimate D2E/DX2                !
 ! D147  D(8,6,7,13)           -26.9982         estimate D2E/DX2                !
 ! D148  D(8,6,7,18)          -110.0703         estimate D2E/DX2                !
 ! D149  D(16,6,7,13)           42.2101         estimate D2E/DX2                !
 ! D150  D(16,6,7,18)          -40.8621         estimate D2E/DX2                !
 ! D151  D(43,6,7,13)          111.8285         estimate D2E/DX2                !
 ! D152  D(43,6,7,18)           28.7563         estimate D2E/DX2                !
 ! D153  D(44,6,7,13)          179.8505         estimate D2E/DX2                !
 ! D154  D(44,6,7,18)           96.7783         estimate D2E/DX2                !
 ! D155  D(4,6,8,1)            -40.6659         estimate D2E/DX2                !
 ! D156  D(4,6,8,9)             41.5498         estimate D2E/DX2                !
 ! D157  D(7,6,8,1)           -109.55           estimate D2E/DX2                !
 ! D158  D(7,6,8,9)            -27.3343         estimate D2E/DX2                !
 ! D159  D(16,6,8,1)          -178.4795         estimate D2E/DX2                !
 ! D160  D(16,6,8,9)           -96.2638         estimate D2E/DX2                !
 ! D161  D(43,6,8,1)            97.8355         estimate D2E/DX2                !
 ! D162  D(43,6,8,9)          -179.9488         estimate D2E/DX2                !
 ! D163  D(44,6,8,1)            30.0932         estimate D2E/DX2                !
 ! D164  D(44,6,8,9)           112.3089         estimate D2E/DX2                !
 ! D165  D(4,6,16,13)           27.4912         estimate D2E/DX2                !
 ! D166  D(4,6,16,18)          110.8588         estimate D2E/DX2                !
 ! D167  D(7,6,16,13)          -42.3482         estimate D2E/DX2                !
 ! D168  D(7,6,16,18)           41.0193         estimate D2E/DX2                !
 ! D169  D(8,6,16,13)           96.5151         estimate D2E/DX2                !
 ! D170  D(8,6,16,18)          179.8826         estimate D2E/DX2                !
 ! D171  D(43,6,16,13)         178.3665         estimate D2E/DX2                !
 ! D172  D(43,6,16,18)         -98.2659         estimate D2E/DX2                !
 ! D173  D(44,6,16,13)        -110.9291         estimate D2E/DX2                !
 ! D174  D(44,6,16,18)         -27.5616         estimate D2E/DX2                !
 ! D175  D(4,6,43,42)         -110.9981         estimate D2E/DX2                !
 ! D176  D(4,6,43,45)          -32.7743         estimate D2E/DX2                !
 ! D177  D(7,6,43,42)           29.0739         estimate D2E/DX2                !
 ! D178  D(7,6,43,45)          107.2977         estimate D2E/DX2                !
 ! D179  D(8,6,43,42)         -178.6131         estimate D2E/DX2                !
 ! D180  D(8,6,43,45)         -100.3893         estimate D2E/DX2                !
 ! D181  D(16,6,43,42)          98.2427         estimate D2E/DX2                !
 ! D182  D(16,6,43,45)         176.4665         estimate D2E/DX2                !
 ! D183  D(44,6,43,42)         -38.7463         estimate D2E/DX2                !
 ! D184  D(44,6,43,45)          39.4775         estimate D2E/DX2                !
 ! D185  D(4,6,44,42)          176.1668         estimate D2E/DX2                !
 ! D186  D(4,6,44,45)           97.8417         estimate D2E/DX2                !
 ! D187  D(7,6,44,42)         -100.822          estimate D2E/DX2                !
 ! D188  D(7,6,44,45)         -179.1471         estimate D2E/DX2                !
 ! D189  D(8,6,44,42)          106.3571         estimate D2E/DX2                !
 ! D190  D(8,6,44,45)           28.032          estimate D2E/DX2                !
 ! D191  D(16,6,44,42)         -32.1589         estimate D2E/DX2                !
 ! D192  D(16,6,44,45)        -110.4841         estimate D2E/DX2                !
 ! D193  D(43,6,44,42)          38.8897         estimate D2E/DX2                !
 ! D194  D(43,6,44,45)         -39.4354         estimate D2E/DX2                !
 ! D195  D(6,7,13,10)           97.402          estimate D2E/DX2                !
 ! D196  D(6,7,13,16)          -42.091          estimate D2E/DX2                !
 ! D197  D(6,7,13,26)           25.7936         estimate D2E/DX2                !
 ! D198  D(6,7,13,37)         -179.0263         estimate D2E/DX2                !
 ! D199  D(6,7,13,38)         -111.7058         estimate D2E/DX2                !
 ! D200  D(18,7,13,10)        -179.1288         estimate D2E/DX2                !
 ! D201  D(18,7,13,16)          41.3782         estimate D2E/DX2                !
 ! D202  D(18,7,13,26)         109.2628         estimate D2E/DX2                !
 ! D203  D(18,7,13,37)         -95.5571         estimate D2E/DX2                !
 ! D204  D(18,7,13,38)         -28.2366         estimate D2E/DX2                !
 ! D205  D(6,7,18,16)           41.0642         estimate D2E/DX2                !
 ! D206  D(6,7,18,19)          -95.4608         estimate D2E/DX2                !
 ! D207  D(6,7,18,20)          -30.4259         estimate D2E/DX2                !
 ! D208  D(6,7,18,39)          132.2275         estimate D2E/DX2                !
 ! D209  D(6,7,18,40)         -179.5483         estimate D2E/DX2                !
 ! D210  D(6,7,18,62)          110.2009         estimate D2E/DX2                !
 ! D211  D(13,7,18,16)         -41.701          estimate D2E/DX2                !
 ! D212  D(13,7,18,19)        -178.226          estimate D2E/DX2                !
 ! D213  D(13,7,18,20)        -113.1911         estimate D2E/DX2                !
 ! D214  D(13,7,18,39)          49.4624         estimate D2E/DX2                !
 ! D215  D(13,7,18,40)          97.6866         estimate D2E/DX2                !
 ! D216  D(13,7,18,62)          27.4357         estimate D2E/DX2                !
 ! D217  D(1,8,9,4)             42.1156         estimate D2E/DX2                !
 ! D218  D(1,8,9,10)           109.8796         estimate D2E/DX2                !
 ! D219  D(1,8,9,11)           -28.7557         estimate D2E/DX2                !
 ! D220  D(1,8,9,15)           -97.6584         estimate D2E/DX2                !
 ! D221  D(1,8,9,26)          -179.8885         estimate D2E/DX2                !
 ! D222  D(6,8,9,4)            -41.5563         estimate D2E/DX2                !
 ! D223  D(6,8,9,10)            26.2077         estimate D2E/DX2                !
 ! D224  D(6,8,9,11)          -112.4276         estimate D2E/DX2                !
 ! D225  D(6,8,9,15)           178.6697         estimate D2E/DX2                !
 ! D226  D(6,8,9,26)            96.4396         estimate D2E/DX2                !
 ! D227  D(4,9,10,13)           96.6471         estimate D2E/DX2                !
 ! D228  D(4,9,10,24)          178.5674         estimate D2E/DX2                !
 ! D229  D(8,9,10,13)           29.3037         estimate D2E/DX2                !
 ! D230  D(8,9,10,24)          111.2241         estimate D2E/DX2                !
 ! D231  D(11,9,10,13)        -178.508          estimate D2E/DX2                !
 ! D232  D(11,9,10,24)         -96.5876         estimate D2E/DX2                !
 ! D233  D(15,9,10,13)        -110.374          estimate D2E/DX2                !
 ! D234  D(15,9,10,24)         -28.4536         estimate D2E/DX2                !
 ! D235  D(26,9,10,13)         -41.0679         estimate D2E/DX2                !
 ! D236  D(26,9,10,24)          40.8525         estimate D2E/DX2                !
 ! D237  D(4,9,11,12)          -98.154          estimate D2E/DX2                !
 ! D238  D(4,9,11,27)          179.1671         estimate D2E/DX2                !
 ! D239  D(8,9,11,12)          -28.6005         estimate D2E/DX2                !
 ! D240  D(8,9,11,27)         -111.2794         estimate D2E/DX2                !
 ! D241  D(10,9,11,12)         179.6459         estimate D2E/DX2                !
 ! D242  D(10,9,11,27)          96.967          estimate D2E/DX2                !
 ! D243  D(15,9,11,12)          41.6202         estimate D2E/DX2                !
 ! D244  D(15,9,11,27)         -41.0587         estimate D2E/DX2                !
 ! D245  D(26,9,11,12)         109.0289         estimate D2E/DX2                !
 ! D246  D(26,9,11,27)          26.3501         estimate D2E/DX2                !
 ! D247  D(4,9,15,12)           28.257          estimate D2E/DX2                !
 ! D248  D(4,9,15,27)          110.9156         estimate D2E/DX2                !
 ! D249  D(8,9,15,12)           96.8723         estimate D2E/DX2                !
 ! D250  D(8,9,15,27)          179.5309         estimate D2E/DX2                !
 ! D251  D(10,9,15,12)        -110.6679         estimate D2E/DX2                !
 ! D252  D(10,9,15,27)         -28.0093         estimate D2E/DX2                !
 ! D253  D(11,9,15,12)         -41.6085         estimate D2E/DX2                !
 ! D254  D(11,9,15,27)          41.0501         estimate D2E/DX2                !
 ! D255  D(26,9,15,12)         179.8885         estimate D2E/DX2                !
 ! D256  D(26,9,15,27)         -97.4529         estimate D2E/DX2                !
 ! D257  D(4,9,26,13)          -28.3085         estimate D2E/DX2                !
 ! D258  D(4,9,26,24)         -110.2702         estimate D2E/DX2                !
 ! D259  D(8,9,26,13)          -96.4542         estimate D2E/DX2                !
 ! D260  D(8,9,26,24)         -178.4159         estimate D2E/DX2                !
 ! D261  D(10,9,26,13)          41.0835         estimate D2E/DX2                !
 ! D262  D(10,9,26,24)         -40.8782         estimate D2E/DX2                !
 ! D263  D(11,9,26,13)         111.9835         estimate D2E/DX2                !
 ! D264  D(11,9,26,24)          30.0218         estimate D2E/DX2                !
 ! D265  D(15,9,26,13)         178.8885         estimate D2E/DX2                !
 ! D266  D(15,9,26,24)          96.9268         estimate D2E/DX2                !
 ! D267  D(9,10,13,7)          -97.569          estimate D2E/DX2                !
 ! D268  D(9,10,13,16)         -28.8494         estimate D2E/DX2                !
 ! D269  D(9,10,13,26)          41.385          estimate D2E/DX2                !
 ! D270  D(9,10,13,37)         179.1794         estimate D2E/DX2                !
 ! D271  D(9,10,13,38)         113.0241         estimate D2E/DX2                !
 ! D272  D(24,10,13,7)         179.5093         estimate D2E/DX2                !
 ! D273  D(24,10,13,16)       -111.7711         estimate D2E/DX2                !
 ! D274  D(24,10,13,26)        -41.5367         estimate D2E/DX2                !
 ! D275  D(24,10,13,37)         96.2577         estimate D2E/DX2                !
 ! D276  D(24,10,13,38)         30.1024         estimate D2E/DX2                !
 ! D277  D(9,10,24,17)        -111.8257         estimate D2E/DX2                !
 ! D278  D(9,10,24,25)        -179.2987         estimate D2E/DX2                !
 ! D279  D(9,10,24,26)         -41.1322         estimate D2E/DX2                !
 ! D280  D(9,10,24,28)          97.0599         estimate D2E/DX2                !
 ! D281  D(9,10,24,29)          29.4306         estimate D2E/DX2                !
 ! D282  D(9,10,24,30)          99.8647         estimate D2E/DX2                !
 ! D283  D(13,10,24,17)        -29.1923         estimate D2E/DX2                !
 ! D284  D(13,10,24,25)        -96.6654         estimate D2E/DX2                !
 ! D285  D(13,10,24,26)         41.5011         estimate D2E/DX2                !
 ! D286  D(13,10,24,28)        179.6932         estimate D2E/DX2                !
 ! D287  D(13,10,24,29)        112.064          estimate D2E/DX2                !
 ! D288  D(13,10,24,30)       -177.502          estimate D2E/DX2                !
 ! D289  D(9,11,12,2)           26.77           estimate D2E/DX2                !
 ! D290  D(9,11,12,5)           95.8173         estimate D2E/DX2                !
 ! D291  D(9,11,12,14)        -109.3893         estimate D2E/DX2                !
 ! D292  D(9,11,12,15)         -41.867          estimate D2E/DX2                !
 ! D293  D(9,11,12,52)         179.2757         estimate D2E/DX2                !
 ! D294  D(27,11,12,2)         110.897          estimate D2E/DX2                !
 ! D295  D(27,11,12,5)         179.9443         estimate D2E/DX2                !
 ! D296  D(27,11,12,14)        -25.2622         estimate D2E/DX2                !
 ! D297  D(27,11,12,15)         42.26           estimate D2E/DX2                !
 ! D298  D(27,11,12,52)        -96.5973         estimate D2E/DX2                !
 ! D299  D(9,11,27,15)          41.2805         estimate D2E/DX2                !
 ! D300  D(9,11,27,28)         -95.7589         estimate D2E/DX2                !
 ! D301  D(9,11,27,29)         -27.4874         estimate D2E/DX2                !
 ! D302  D(9,11,27,55)        -178.838          estimate D2E/DX2                !
 ! D303  D(9,11,27,56)         111.396          estimate D2E/DX2                !
 ! D304  D(12,11,27,15)        -42.2392         estimate D2E/DX2                !
 ! D305  D(12,11,27,28)       -179.2786         estimate D2E/DX2                !
 ! D306  D(12,11,27,29)       -111.0071         estimate D2E/DX2                !
 ! D307  D(12,11,27,55)         97.6423         estimate D2E/DX2                !
 ! D308  D(12,11,27,56)         27.8763         estimate D2E/DX2                !
 ! D309  D(2,12,14,51)         102.4152         estimate D2E/DX2                !
 ! D310  D(2,12,14,54)        -178.971          estimate D2E/DX2                !
 ! D311  D(5,12,14,51)          33.596          estimate D2E/DX2                !
 ! D312  D(5,12,14,54)         112.2098         estimate D2E/DX2                !
 ! D313  D(11,12,14,51)       -108.3572         estimate D2E/DX2                !
 ! D314  D(11,12,14,54)        -29.7435         estimate D2E/DX2                !
 ! D315  D(15,12,14,51)       -175.7819         estimate D2E/DX2                !
 ! D316  D(15,12,14,54)        -97.1682         estimate D2E/DX2                !
 ! D317  D(52,12,14,51)        -36.2659         estimate D2E/DX2                !
 ! D318  D(52,12,14,54)         42.3478         estimate D2E/DX2                !
 ! D319  D(2,12,15,9)          -94.2452         estimate D2E/DX2                !
 ! D320  D(2,12,15,27)        -178.4587         estimate D2E/DX2                !
 ! D321  D(5,12,15,9)          -27.1438         estimate D2E/DX2                !
 ! D322  D(5,12,15,27)        -111.3573         estimate D2E/DX2                !
 ! D323  D(11,12,15,9)          41.952          estimate D2E/DX2                !
 ! D324  D(11,12,15,27)        -42.2615         estimate D2E/DX2                !
[...]
 484,-0.00006011,0.00009086,-0.00001424,0.00002257,0.00000795,-0.000018
 68,0.00004139,-0.00003520,-0.00014567,-0.00004092,0.00013033,-0.000027
 31,0.00000941,-0.00005411,-0.00008826,0.00013769,-0.00022007,0.0000729
 5,-0.00016025,0.00027499,-0.00018153,0.00061660,0.00000297,-0.00033758
 ,-0.00022709,-0.00045271,-0.00001118,-0.00122860,0.00108700,0.00161622
 ,0.00037923,0.00064236,-0.00021918,0.00091368,-0.00133270,0.00269548,-
 0.00272770,0.00328614,-0.00013446,0.00058446,0.00010951,-0.00031682,-0
 .00026975,-0.00037931,-0.00068067,0.00020298,-0.00027880,0.00012001,-0
 .00001529,-0.00003954,-0.00003087,0.00006002,-0.00008708,-0.00032364,0
 .00018879,-0.00016786,0.00012948,-0.00004200,-0.00001143,0.00001478,-0
 .00001912,0.00003097,-0.00009952,-0.00001385,0.00005133,-0.00000394,0.
 00000242,0.00004076,0.00002383,-0.00002910,0.00004889,0.00000701,0.000
 08107,-0.00015309,0.00000640,-0.00002359,0.00001277,0.00001253,0.00000
 017,0.00002546,-0.00007683,-0.00003550,0.00008657,0.00000901,-0.000002
 31,0.00000281,0.00002449,0.00003997,-0.00008097,0.00006538,-0.00002219
 ,0.00002916,0.00031076,0.00093103,-0.00153389,0.00070049,-0.00110801,-
 0.00135197,0.00004235,-0.00000992,-0.00001652,-0.00002190,-0.00001353,
 -0.00001171,-0.00303203,0.00894895,0.00330594,0.01418280,-0.03104727,-
 0.02319156,-0.00311738,0.00650962,-0.00858005,-0.00367827,0.00377756,0
 .01121421,-0.03296294,-0.02973883,-0.03210324,0.00251885,0.00419524,-0
 .00718252,-0.00161017,-0.08503871,0.31993054,0.00000993,-0.00000401,-0
 .00000763,0.00001273,0.00000065,0.00000148,-0.00003982,-0.00000743,0.0
 0000446,0.00002668,-0.00000790,0.00000101,0.00001114,0.00000394,-0.000
 00198,-0.00013289,0.00001646,0.00000818,0.00007285,0.00003833,-0.00004
 922,0.00003086,-0.00000254,0.00000438,-0.00004931,0.00001072,-0.000003
 52,0.00002582,0.00000224,-0.00002000,0.00001556,-0.00000008,-0.0000097
 5,-0.00005743,-0.00000402,0.00001627,0.00002579,-0.00002001,0.00002423
 ,0.00000236,0.00000949,0.00000146,0.00001620,0.00000494,-0.00000535,0.
 00006437,0.00000552,-0.00007089,0.00001264,0.00001072,0.00000165,-0.00
 020951,0.00003595,0.00000009,0.00002085,-0.00020827,0.00001139,0.00007
 461,0.00014658,0.00013935,0.00000012,0.00000833,-0.00001249,-0.0000113
 6,-0.00000531,-0.00000058,-0.00001363,0.00000984,0.00000026,-0.0000218
 3,-0.00001198,0.00002602,0.00000821,-0.00000886,-0.00000983,0.00002757
 ,0.00000865,-0.00001561,-0.00002876,0.00000353,0.00000128,0.00000810,0
 .00000220,-0.00001015,0.00000864,0.00000569,-0.00000849,0.00000460,0.0
 0000614,-0.00001222,-0.00000481,-0.00000652,-0.00000449,-0.00000621,-0
 .00001058,0.00000458,0.00000646,0.00002939,-0.00005564,-0.00000374,0.0
 0000352,0.00001213,0.00003252,-0.00004713,0.00007457,-0.00002190,0.000
 04494,-0.00007458,0.00001617,0.00000497,0.00000425,0.00001214,-0.00000
 813,-0.00001245,-0.00027064,0.00034652,-0.00047638,0.00012999,0.000043
 49,0.00015515,0.00021340,-0.00020824,0.00029957,-0.00069664,0.00046049
 ,-0.00057329,0.00003916,-0.00011030,0.00000485,0.00007062,0.00003081,0
 .00008053,0.00012764,-0.00004469,0.00007866,-0.00003591,0.00000757,0.0
 0000154,0.00003414,-0.00000583,-0.00000431,0.00007341,-0.00008780,0.00
 007868,-0.00004481,0.00001710,0.00000910,0.00002212,0.00002270,-0.0000
 4202,0.00005229,-0.00000721,-0.00000047,-0.00000024,-0.00000549,-0.000
 00729,-0.00003599,0.00001110,-0.00001105,0.00004056,-0.00001731,0.0000
 2150,0.00000133,-0.00000481,-0.00000675,0.00000310,0.00000777,0.,0.000
 04124,-0.00000281,-0.00000746,-0.00004166,0.00000466,0.00000391,0.0000
 0690,-0.00003675,0.00006407,-0.00004736,0.00001324,-0.00001398,0.00012
 290,-0.00013531,0.00019193,0.00004827,-0.00021062,-0.00004779,-0.00001
 034,0.00000729,0.00000487,-0.00000223,0.00000828,0.00000377,0.00104388
 ,-0.00026366,-0.00002257,-0.00163479,0.00066021,0.00050439,0.00076889,
 -0.00054831,0.00063726,-0.00345187,0.00237485,-0.00308252,-0.00125581,
 0.00156010,-0.00058015,-0.00379278,-0.00137878,0.00352125,-0.06796810,
 0.05257125,-0.07565702,0.06342433,-0.00001220,0.00000653,0.00000710,-0
 .00001638,-0.00000094,-0.00000273,0.00004926,0.00000709,-0.00000766,-0
 .00003287,0.00001079,0.00000520,-0.00001435,-0.00000476,0.00000163,0.0
 0018953,-0.00001849,-0.00004865,-0.00006319,-0.00003113,0.00008985,-0.
 00003608,-0.00000090,-0.00000260,0.00006788,-0.00001429,0.00000718,-0.
 00003587,-0.00000235,0.00002315,-0.00002153,0.00000122,0.00001274,0.00
 007581,0.00000278,-0.00001744,0.00000962,-0.00001867,0.00001643,-0.000
 00358,-0.00001274,-0.00000269,-0.00002161,-0.00000636,0.00000637,-0.00
 008512,-0.00003150,0.00007295,-0.00001000,-0.00001448,0.00000154,0.000
 15157,0.00015533,-0.00033627,-0.00015438,-0.00012801,0.00003905,-0.000
 11452,0.00040198,-0.00004569,0.00000081,-0.00001124,0.00001670,0.00001
 466,0.00000723,0.00000099,0.00001767,-0.00001349,0.00000022,0.00003830
 ,0.00001705,-0.00005051,-0.00001053,0.00001179,0.00001522,-0.00003642,
 -0.00001042,0.00001861,0.00004132,-0.00000384,-0.00000198,-0.00001015,
 -0.00000217,0.00001433,-0.00001209,-0.00000879,0.00001228,-0.00000422,
 -0.00000923,0.00002001,0.00000634,0.00000881,0.00000649,0.00000783,0.0
 0001471,-0.00000638,-0.00000946,-0.00003709,0.00006597,0.00000284,-0.0
 0000165,-0.00001711,-0.00003717,0.00005585,-0.00008483,0.00003966,-0.0
 0006145,0.00009175,-0.00001061,-0.00000229,-0.00000965,-0.00002348,0.0
 0002267,-0.00004238,0.00027548,-0.00013091,0.00038331,-0.00006080,-0.0
 0003885,0.00016208,0.00003244,0.00004372,-0.00008387,0.00069986,-0.000
 60600,0.00080853,-0.00004681,0.00016081,-0.00001418,-0.00007511,-0.000
 03308,-0.00012689,-0.00018953,0.00008917,-0.00011994,0.00004669,-0.000
 00997,-0.00000285,-0.00004806,-0.00000379,0.00002584,-0.00009903,0.000
 11744,-0.00010615,0.00006038,-0.00002311,-0.00001281,-0.00002950,-0.00
 003191,0.00005848,-0.00006897,0.00000945,0.00000055,0.00000021,0.00000
 812,0.00000928,0.00004824,-0.00001514,0.00001530,-0.00005465,0.0000233
 0,-0.00002877,-0.00000147,0.00000636,0.00000921,-0.00000380,-0.0000108
 8,0.00000024,-0.00005486,0.00000405,0.00000911,0.00005515,-0.00000611,
 -0.00000531,-0.00000792,0.00004706,-0.00008183,0.00006312,-0.00001763,
 0.00001861,-0.00003648,0.00014073,-0.00025553,-0.00029073,-0.00022386,
 -0.00025350,0.00001307,-0.00000990,-0.00000639,0.00000286,-0.00001149,
 -0.00000500,0.00178318,-0.00099956,0.00042583,0.00199241,-0.00140385,0
 .00380466,-0.00097344,0.00082205,-0.00151517,-0.00043208,-0.00046005,0
 .00062765,0.00459565,0.00671455,-0.00005030,0.00117877,0.00085303,-0.0
 0275693,0.04939764,-0.07858256,0.09293908,-0.05201531,0.07628898,0.000
 01803,-0.00001114,-0.00001094,0.00002478,0.00000097,0.00000431,-0.0000
 7475,-0.00001267,0.00001204,0.00004708,-0.00001430,-0.00000780,0.00002
 132,0.00000699,-0.00000223,-0.00029267,0.00000689,0.00006977,0.0001106
 0,0.00003187,-0.00012496,0.00005638,0.00000424,0.00000400,-0.00010317,
 0.00002389,-0.00001065,0.00005288,0.00000282,-0.00003531,0.00003206,-0
 .00000169,-0.00001884,-0.00011428,-0.00000286,0.00002514,-0.00002927,0
 .00002639,-0.00004445,0.00000534,0.00001938,0.00000426,0.00003367,0.00
 000982,-0.00000939,0.00010718,0.00006769,-0.00011685,0.00001976,0.0000
 2350,-0.00000074,-0.00020404,-0.00029857,0.00057891,0.00034941,0.00028
 105,0.00038973,0.00017450,-0.00036069,-0.00019975,-0.00000104,0.000017
 01,-0.00002540,-0.00002219,-0.00001108,-0.00000151,-0.00002722,0.00002
 066,-0.00000024,-0.00006161,-0.00003425,0.00007560,0.00001008,-0.00001
 354,-0.00002245,0.00005666,0.00001362,-0.00002781,-0.00006282,0.000006
 60,0.00000480,0.00001628,0.00000387,-0.00002272,0.00001758,0.00001367,
 -0.00001767,0.00000584,0.00001651,-0.00003054,-0.00000966,-0.00001353,
 -0.00000985,-0.00000959,-0.00002165,0.00001218,0.00001400,0.00005179,-
 0.00009975,-0.00000523,0.00000458,0.00002578,0.00005532,-0.00007977,0.
 00012661,-0.00006372,0.00008884,-0.00014052,0.00002589,-0.00003801,0.0
 0004959,0.00002117,-0.00002458,0.00002969,-0.00035424,0.00035796,-0.00
 037874,0.00020726,-0.00046228,-0.00026186,-0.00012824,-0.00000273,0.00
 004892,-0.00100767,0.00090408,-0.00124562,0.00005813,-0.00024357,0.000
 03398,0.00012561,0.00005276,0.00019418,0.00029582,-0.00012376,0.000197
 13,-0.00007150,0.00001373,0.00000142,0.00007354,0.00000879,-0.00004443
 ,0.00015019,-0.00017934,0.00016011,-0.00009174,0.00003539,0.00001995,0
 .00004492,0.00004890,-0.00008930,0.00010432,-0.00001438,-0.00000100,-0
 .00000015,-0.00001244,-0.00001397,-0.00007315,0.00002301,-0.00002333,0
 .00008280,-0.00003537,0.00004340,0.00000208,-0.00000970,-0.00001424,0.
 00000575,0.00001642,-0.00000038,0.00008309,-0.00000638,-0.00001365,-0.
 00008341,0.00000921,0.00000809,0.00001172,-0.00007041,0.00012324,-0.00
 009557,0.00002669,-0.00002817,0.00001756,-0.00022229,0.00037285,0.0002
 3734,0.00031308,0.00000459,-0.00001963,0.00001494,0.00000959,-0.000004
 28,0.00001760,0.00000742,-0.00362967,0.00110649,-0.00115494,-0.0035856
 7,0.00585806,0.00528381,0.00138909,-0.00166201,0.00223096,0.00182180,-
 0.00032423,-0.00023590,-0.00418026,-0.00064669,-0.00319918,-0.00100451
 ,-0.00189415,0.00319193,-0.07002435,0.09188776,-0.15533745,0.07382284,
 -0.10044554,0.16210545,0.00000951,-0.00000200,-0.00000975,0.00000696,-
 0.00000600,0.00002487,-0.00000403,0.00002372,-0.00000484,0.00000882,-0
 .00001971,0.00002967,-0.00000117,-0.00001654,0.00002013,0.00004756,0.0
 0004875,-0.00008792,0.00003025,-0.00008079,0.00012472,0.00000944,-0.00
 001856,0.00003404,-0.00007283,0.00003488,-0.00004623,0.00002151,-0.000
 01341,-0.00000096,0.00000840,-0.00001541,0.00002204,-0.00003684,0.0000
 3022,-0.00004340,-0.00002987,-0.00000835,0.00002228,0.00000024,0.00000
 028,0.00001355,0.00001003,-0.00001324,0.00002567,0.00002848,-0.0000671
 7,0.00014278,0.00006055,0.00000928,-0.00001805,-0.00022940,0.00015582,
 -0.00026801,0.00031612,0.00002040,0.00031271,0.00018952,-0.00033084,0.
 00017043,-0.00000851,0.00003653,0.00000765,-0.00000155,-0.00000996,-0.
 00000747,0.00001861,-0.00000376,-0.00002999,-0.00010697,0.00000374,0.0
 0002596,0.00005873,-0.00000386,-0.00002628,0.00002346,0.00000322,0.000
 00788,-0.00004082,0.00004758,-0.00007457,0.00000477,-0.00000143,0.0000
 0909,0.00000478,-0.00000986,0.00000705,0.00005122,-0.00002170,0.000027
 18,-0.00001839,-0.00000161,-0.00000586,-0.00002154,0.00000050,-0.00000
 994,-0.00005621,0.00002481,-0.00002843,-0.00001983,0.00001178,-0.00000
 353,0.00000884,-0.00000672,0.00000934,-0.00003943,-0.00000643,0.000022
 89,-0.00012546,0.00022033,-0.00004452,-0.00016237,-0.00003213,-0.00018
 642,0.00036273,-0.00020296,0.00024274,0.00026295,0.00013999,-0.0000584
 7,0.00005247,0.00017796,-0.00032909,-0.00032335,-0.00038224,0.00080198
 ,0.00003075,0.00002217,0.00000160,0.00002809,-0.00001806,-0.00001066,-
 0.00014669,-0.00002803,0.00007930,-0.00001627,0.00000409,-0.00002462,0
 .00007411,0.00004679,-0.00009841,-0.00002810,-0.00009708,0.00009074,-0
 .00002733,0.00001458,0.00001618,0.00006660,0.00005044,-0.00009335,0.00
 005300,-0.00002374,0.00002987,-0.00000312,-0.00001153,0.00000920,-0.00
 006370,0.00000726,0.00000407,0.00009335,0.00000910,-0.00004260,0.00000
 596,-0.00002458,-0.00000822,0.00001372,0.00001861,0.00001469,0.0000402
 1,-0.00002774,0.00003735,-0.00008005,0.00000776,0.00001050,0.00002282,
 -0.00004010,0.00006521,-0.00006390,0.00001558,-0.00001313,0.00036885,0
 .00013677,-0.00034828,0.00020951,-0.00007277,-0.00016591,0.00000367,0.
 00001026,0.00000080,-0.00001733,0.00001083,0.00000132,-0.00604374,0.00
 028105,0.00118428,-0.00186477,0.00354946,-0.00007737,-0.00429838,0.004
 17856,-0.00643256,-0.00377456,-0.00082856,0.00265359,-0.00276168,-0.00
 047345,-0.00099335,0.00126671,0.00058599,-0.00154580,-0.13501874,-0.03
 530419,0.10171409,0.01307926,-0.00569389,0.00562561,0.13855436,-0.0000
 0541,0.00000417,0.,-0.00000522,-0.00000451,0.00000810,0.00003084,0.000
 02753,-0.00001093,-0.00001437,-0.00000037,0.00002267,-0.00000711,-0.00
 000876,0.00001145,0.00009437,0.00005614,-0.00010278,-0.00001606,-0.000
 05607,0.00010268,-0.00002067,-0.00001487,0.00001383,0.00000440,-0.0000
 0188,0.00000203,-0.00000913,-0.00000357,0.00002242,-0.00000673,-0.0000
 0797,0.00001697,0.00002796,0.00001580,-0.00003144,0.00002196,-0.000029
 16,0.00001778,-0.00000109,-0.00000676,0.00000492,-0.00000652,-0.000009
 94,0.00001637,-0.00004172,-0.00000742,0.00016246,0.00001957,0.00000277
 ,-0.00001115,-0.00003502,0.00005554,-0.00043824,0.00009995,-0.00011607
 ,-0.00005099,-0.00010931,0.00022631,0.00048210,-0.00000363,0.00000992,
 0.00001431,0.00000773,-0.00000011,-0.00000308,0.00001910,-0.00000873,-
 0.00001337,-0.00003704,0.00001206,-0.00000829,0.00001978,0.00000436,-0
 .00001155,-0.00001292,-0.00000899,0.00001914,0.00000168,0.00001865,-0.
 00003420,-0.00000431,-0.00000227,0.00001107,-0.00000513,-0.00000905,0.
 00000921,0.00002334,-0.00001195,0.00001963,-0.00000467,0.00000439,0.00
 000071,-0.00000580,0.00000768,-0.00000737,-0.00003816,-0.00000887,0.00
 002192,-0.00000775,0.00000355,-0.00001005,-0.00001661,0.00002474,-0.00
 003796,-0.00001707,-0.00002748,0.00005547,-0.00007776,0.00011282,-0.00
 001377,-0.00008317,-0.00002560,-0.00009535,0.00037202,-0.00020530,0.00
 031838,0.00042561,0.00045751,-0.00000075,-0.00015841,0.00014475,-0.000
 20145,0.00124263,-0.00057819,0.00074950,-0.00005962,0.00017189,-0.0000
 0602,-0.00009503,-0.00001867,-0.00009936,-0.00020962,0.00002124,-0.000
 06374,0.00001944,0.00000157,-0.00001324,-0.00000937,0.00002503,-0.0000
 2456,-0.00006860,0.00002953,-0.00003138,0.00002269,-0.00000674,-0.0000
 0008,0.00000801,0.00000061,-0.00000082,-0.00001412,-0.00000519,0.00001
 328,-0.00000081,-0.00000122,0.00000929,-0.00000251,-0.00000452,0.00000
 938,0.00001064,0.00001671,-0.00003400,0.00000189,-0.00000686,0.0000020
 3,0.00000369,0.00000198,0.00000626,-0.00000906,-0.00001040,0.00002072,
 -0.00000819,0.00000067,0.00000156,0.00000856,0.00000275,-0.00000678,0.
 00000568,-0.00000265,0.00000429,-0.00048172,0.00023802,-0.00019975,0.0
 0017411,-0.00024251,-0.00031922,0.00000903,-0.00000116,-0.00000323,-0.
 00000633,-0.00000136,-0.00000228,0.00452661,0.00066327,-0.00438367,-0.
 00060584,0.00758962,-0.00013648,-0.00445286,-0.00025074,-0.00072517,-0
 .00374563,-0.00046125,0.00177220,-0.00269536,0.00000726,0.00289044,0.0
 0046570,0.00031384,-0.00119825,-0.02530668,-0.02916651,0.03185711,-0.0
 0312418,-0.00298771,0.00585607,0.03397933,0.02404872,0.00000575,-0.000
 00495,0.00000580,0.00000655,0.00001125,-0.00002344,-0.00004916,-0.0000
 4280,0.00002041,0.00002406,0.00000653,-0.00004710,0.00001341,0.0000207
 6,-0.00002604,-0.00018055,-0.00010091,0.00022311,0.00007321,0.00020421
 ,-0.00021214,0.00003164,0.00003495,-0.00003759,0.00001734,-0.00000524,
 0.00001352,0.00001281,0.00001667,-0.00003662,0.00000934,0.00001877,-0.
 00003842,-0.00003693,-0.00003837,0.00006905,-0.00003233,0.00002756,-0.
 00005334,0.00000203,0.00001181,-0.00001323,0.00000768,0.00002138,-0.00
 003736,0.00003174,0.00009733,-0.00026467,-0.00005471,-0.00000735,0.000
 02714,0.00007458,-0.00050685,0.00065449,0.00012640,0.00063702,-0.00016
 790,-0.00015950,-0.00010823,-0.00038517,0.00000919,-0.00003011,-0.0000
 2843,-0.00001304,0.00000358,0.00000777,-0.00004037,0.00001712,0.000033
 95,0.00010163,-0.00002054,0.00000722,-0.00005510,-0.00000559,0.0000286
 5,0.00001293,0.00002133,-0.00003268,0.00001022,-0.00004943,0.00008518,
 0.00000622,0.00000352,-0.00002361,0.00000676,0.00001812,-0.00001898,-0
 .00005769,0.00003168,-0.00004162,0.00001455,-0.00000713,0.00000062,0.0
 0001858,-0.00001377,0.00001693,0.00008473,0.00000170,-0.00003260,0.000
 01940,-0.00000924,0.00001897,0.00002635,-0.00004036,0.00006432,0.00004
 533,0.00005165,-0.00010507,0.00015571,-0.00027777,0.00003891,0.0002214
 7,0.00004957,0.00022248,-0.00076187,0.00051417,-0.00059318,-0.00066575
 ,-0.00071016,0.00001670,0.00026425,-0.00031381,0.00046677,-0.00205980,
 0.00131243,-0.00149455,0.00010186,-0.00027104,0.00002944,0.00017183,0.
 00007872,0.00020688,0.00040860,-0.00007819,0.00005504,-0.00002655,0.00
 000048,0.00004488,-0.00000560,-0.00005003,0.00008275,0.00012938,-0.000
 02212,0.00002570,-0.00003051,0.00000798,-0.00000542,-0.00003579,-0.000
 01711,0.00003273,0.00000728,0.00001710,-0.00003340,0.00000235,0.000005
 97,-0.00001953,0.00002571,0.00000563,-0.00001805,-0.00004982,-0.000032
 58,0.00007480,-0.00000518,0.00002037,-0.00000043,-0.00001131,-0.000009
 42,-0.00001617,0.00000270,0.00002725,-0.00004945,0.00004119,-0.0000037
 8,-0.00000626,-0.00002261,0.00000946,-0.00000933,0.00001122,-0.0000004
 9,-0.00000328,0.00075007,-0.00040787,0.00051045,-0.00050947,0.00055681
 ,0.00077017,-0.00001735,-0.00000150,0.00000568,0.00001685,-0.00000122,
 0.00000375,-0.00632615,-0.00296901,0.00634111,0.00455552,-0.00347129,-
 0.00222132,0.00878796,-0.00357972,0.00190300,0.00781879,0.00081378,-0.
 00417477,0.00559885,0.00409919,0.00624601,-0.00132741,-0.00124069,0.00
 234715,0.08407866,0.03518389,-0.10570182,0.00109699,0.00670397,-0.0124
 2689,-0.10250507,-0.03621504,0.10769833\\0.00000577,-0.00000429,0.0000
 0884,-0.00000249,0.00000078,-0.00000200,-0.00000255,0.00000620,0.00000
 586,-0.00000411,0.00000606,-0.00000235,-0.00000564,-0.00000021,-0.0000
 0268,0.00000407,-0.00000227,0.00000952,-0.00000244,0.00000640,-0.00000
 060,-0.00000456,0.00000098,-0.00000416,-0.00000254,-0.00000411,0.00000
 743,-0.00000273,-0.00000420,-0.00000148,-0.00000194,0.00000109,-0.0000
 0072,0.00000956,0.00000256,-0.00000448,0.00001050,0.00000248,-0.000011
 24,-0.00000283,-0.00000368,0.00000636,-0.00000285,0.00000015,-0.000002
 17,-0.00000212,-0.00000252,-0.00000539,0.00000434,-0.00000178,-0.00000
 449,0.00000436,0.00000698,-0.00000721,-0.00000842,0.00000160,-0.000001
 99,-0.00000839,0.00000108,0.00000298,-0.00000087,0.00001463,-0.0000127
 7,-0.00000022,-0.00000681,0.00000919,-0.00000290,0.00000036,0.00000181
 ,0.00000029,-0.00000385,0.00000511,0.00000625,0.00000284,-0.00000277,-
 0.00000056,0.00000534,0.00000417,-0.00000058,0.00000470,-0.00000897,0.
 00000242,-0.00000379,-0.00000461,0.00000451,0.00000490,-0.00000007,-0.
 00001207,-0.00000968,0.00001660,-0.00000118,-0.00000218,-0.00000249,0.
 00000250,0.00000297,-0.00000226,0.00000834,-0.00000393,0.00000773,0.00
 000387,-0.00000149,-0.00000424,0.00000177,-0.00000138,-0.00000170,-0.0
 0002024,0.00000056,0.00000651,-0.00000106,-0.00000924,-0.00000810,0.00
 000555,0.00001638,-0.00000325,-0.00000226,0.00000219,-0.00000287,-0.00
 000191,0.00000015,0.00000097,0.00001249,-0.00000442,0.00000566,-0.0000
 0396,-0.00000170,-0.00000420,-0.00000640,0.00000320,-0.00000301,-0.000
 00905,-0.00000754,0.00000022,-0.00000170,0.00001509,-0.00002907,-0.000
 00696,-0.00000797,0.00000940,0.00001238,-0.00000731,0.00001123,0.00000
 142,0.00000360,0.00000400,-0.00000052,-0.00000479,0.00000370,0.0000038
 0,-0.00000800,0.00000125,0.00001722,0.00001145,-0.00000717,-0.00000308
 ,-0.00000570,0.00000908,-0.00000975,-0.00001374,0.00002862,0.00000802,
 0.00001678,-0.00004498,0.00000382,-0.00000763,0.00000439,0.00000674,-0
 .00000051,0.00000801,-0.00001493,0.00001087,-0.00001336,-0.00000431,-0
 .00000715,0.00001349,-0.00000608,0.00000061,0.00000012,-0.00000189,-0.
 00000658,0.00001399,0.00001435,-0.00000258,0.00000319,-0.00000142,-0.0
 0000482,0.00000161,-0.00000457,-0.00000524,-0.00000037,-0.00000160,0.0
 0000043,0.00000102,0.00001932,0.00002301,0.00002383,-0.00000848,-0.000
 00189,-0.00003692,0.00000758,-0.00000850,-0.00000587,0.00000304,-0.000
 00779,0.00000574,-0.00001125,0.00000826,0.00000255,0.00001139,-0.00000
 300,-0.00000591,-0.00000957,-0.00001414,0.00001100,0.00000771,-0.00000
 297,-0.00000232,-0.00000041,0.00001470,0.00000306\\\@
 The archive entry for this job was punched.


 AND THIS OUR LIFE, EXEMPT FROM PUBLIC HAUNT,
 FINDS TONGUES IN TREES, BOOKS IN THE RUNNING BROOKS,
 SERMONS IN STONES, AND GOOD IN EVERYTHING.
 I WOULD NOT CHANGE IT. -- W. SHAKESPEARE
 AS YOU LIKE IT, ACT II, SCENE 1.
 Job cpu time:       9 days 12 hours 22 minutes 22.7 seconds.
 Elapsed time:       0 days  4 hours 46 minutes 14.3 seconds.
 File lengths (MBytes):  RWF=  21167 Int=      0 D2E=      0 Chk=    180 Scr=      2
 Normal termination of Gaussian 16 at Wed Mar  8 01:36:27 2023.
