       N       E                     dE             d eps       ncg     rms          rms(c)
DAV:   1     0.186266879856E+05    0.18627E+05   -0.79316E+05  6176   0.106E+03
DAV:   2     0.250225051345E+03   -0.18376E+05   -0.17616E+05  7760   0.279E+02
DAV:   3    -0.303627747420E+04   -0.32865E+04   -0.32666E+04  6928   0.123E+02
DAV:   4    -0.313246533591E+04   -0.96188E+02   -0.95772E+02  6992   0.241E+01
DAV:   5    -0.313466209641E+04   -0.21968E+01   -0.21931E+01  7488   0.332E+00    0.194E+02
DAV:   6    -0.152294450599E+04    0.16117E+04   -0.30997E+03  6560   0.445E+01    0.895E+01
DAV:   7    -0.166379793449E+04   -0.14085E+03   -0.27873E+02  6944   0.127E+01    0.583E+01
DAV:   8    -0.168625992683E+04   -0.22462E+02   -0.39505E+01  7104   0.565E+00    0.447E+01
DAV:   9    -0.183019952415E+04   -0.14394E+03   -0.40808E+01  7216   0.558E+00    0.377E+01
DAV:  10    -0.199185970878E+04   -0.16166E+03   -0.41683E+01  7152   0.531E+00    0.326E+01
DAV:  11    -0.219117827792E+04   -0.19932E+03   -0.66145E+01  6928   0.604E+00    0.272E+01
DAV:  12    -0.244526549804E+04   -0.25409E+03   -0.11534E+02  6784   0.785E+00    0.219E+01
DAV:  13    -0.273017651051E+04   -0.28491E+03   -0.20313E+02  6704   0.954E+00    0.165E+01
DAV:  14    -0.286689038029E+04   -0.13671E+03   -0.10489E+02  6864   0.631E+00    0.120E+01
DAV:  15    -0.291455786565E+04   -0.47667E+02   -0.25539E+01  6928   0.323E+00    0.959E+00
DAV:  16    -0.293365978641E+04   -0.19102E+02   -0.54348E+00  6864   0.171E+00    0.769E+00
DAV:  17    -0.294557177350E+04   -0.11912E+02   -0.28914E+00  6800   0.127E+00    0.628E+00
DAV:  18    -0.295242480429E+04   -0.68530E+01   -0.15122E+00  6768   0.964E-01    0.523E+00
DAV:  19    -0.295698185333E+04   -0.45570E+01   -0.10743E+00  6768   0.766E-01    0.408E+00
DAV:  20    -0.296137780876E+04   -0.43960E+01   -0.11448E+00  6688   0.697E-01    0.289E+00
DAV:  21    -0.296457313700E+04   -0.31953E+01   -0.67876E-01  6576   0.532E-01    0.167E+00
DAV:  22    -0.296508293380E+04   -0.50980E+00   -0.15858E-01  6608   0.312E-01    0.109E+00
DAV:  23    -0.296683426884E+04   -0.17513E+01   -0.65057E-02  6704   0.271E-01    0.676E-01
DAV:  24    -0.296879227354E+04   -0.19580E+01   -0.37668E-02  6656   0.190E-01    0.431E-01
DAV:  25    -0.297020207575E+04   -0.14098E+01   -0.23651E-02  6976   0.143E-01    0.267E-01
DAV:  26    -0.297102445364E+04   -0.82238E+00   -0.11544E-02  6976   0.100E-01    0.152E-01
DAV:  27    -0.297133632896E+04   -0.31188E+00   -0.50213E-03  7184   0.711E-02    0.928E-02
DAV:  28    -0.297141071778E+04   -0.74389E-01   -0.13348E-03  6960   0.384E-02    0.612E-02
DAV:  29    -0.297143381893E+04   -0.23101E-01   -0.51203E-04  6944   0.237E-02    0.359E-02
DAV:  30    -0.297144347626E+04   -0.96573E-02   -0.26394E-04  6992   0.171E-02    0.238E-02
DAV:  31    -0.297144861217E+04   -0.51359E-02   -0.99910E-05  6304   0.111E-02    0.161E-02
DAV:  32    -0.297145077147E+04   -0.21593E-02   -0.43043E-05  6128   0.762E-03    0.104E-02
DAV:  33    -0.297145301183E+04   -0.22404E-02   -0.29023E-05  5920   0.596E-03    0.753E-03
DAV:  34    -0.297145508097E+04   -0.20691E-02   -0.25138E-05  5888   0.501E-03    0.489E-03
DAV:  35    -0.297145587011E+04   -0.78913E-03   -0.10709E-05  5184   0.375E-03    0.317E-03
DAV:  36    -0.297145653433E+04   -0.66423E-03   -0.10855E-05  5312   0.311E-03    0.187E-03
DAV:  37    -0.297145670234E+04   -0.16800E-03   -0.31482E-06  5040   0.178E-03    0.130E-03
DAV:  38    -0.297145679533E+04   -0.92998E-04   -0.17798E-06  5056   0.126E-03    0.731E-04
DAV:  39    -0.297145682075E+04   -0.25420E-04   -0.76161E-07  5040   0.796E-04    0.572E-04
DAV:  40    -0.297145683845E+04   -0.17698E-04   -0.29840E-07  4976   0.470E-04    0.360E-04
DAV:  41    -0.297145684852E+04   -0.10071E-04   -0.14184E-07  4976   0.351E-04    0.245E-04
DAV:  42    -0.297145685232E+04   -0.37935E-05   -0.48131E-08  4960   0.234E-04
   1 F= -.30084979E+04 E0= -.30084979E+04  d E =-.300850E+04  mag=    -0.0000
       N       E                     dE             d eps       ncg     rms          rms(c)
DAV:   1    -0.297145182679E+04    0.50217E-02   -0.92670E-01  5856   0.887E-01    0.389E-01
DAV:   2    -0.297145358360E+04   -0.17568E-02   -0.26688E-02  7008   0.145E-01    0.145E-01
DAV:   3    -0.297145309322E+04    0.49039E-03   -0.89838E-04  7072   0.407E-02    0.812E-02
DAV:   4    -0.297145291137E+04    0.18184E-03   -0.49780E-04  6960   0.344E-02    0.309E-02
DAV:   5    -0.297145290939E+04    0.19873E-05   -0.28025E-04  7104   0.200E-02    0.365E-02
DAV:   6    -0.297145289569E+04    0.13697E-04   -0.35465E-05  6304   0.776E-03    0.226E-02
DAV:   7    -0.297145288924E+04    0.64498E-05   -0.33903E-06  4992   0.396E-03
   2 F= -.30084941E+04 E0= -.30084941E+04  d E =0.384446E-02  mag=    -0.0000
       N       E                     dE             d eps       ncg     rms          rms(c)
DAV:   1    -0.297145680205E+04   -0.39064E-02   -0.50523E-01  5824   0.655E-01    0.284E-01
DAV:   2    -0.297145777480E+04   -0.97275E-03   -0.14498E-02  7024   0.106E-01    0.108E-01
DAV:   3    -0.297145752423E+04    0.25057E-03   -0.47930E-04  7008   0.287E-02    0.623E-02
DAV:   4    -0.297145746874E+04    0.55490E-04   -0.34388E-04  6912   0.236E-02    0.437E-02
DAV:   5    -0.297145744770E+04    0.21047E-04   -0.18195E-04  7040   0.134E-02    0.256E-02
DAV:   6    -0.297145744041E+04    0.72880E-05   -0.15769E-05  5440   0.574E-03
   3 F= -.30084986E+04 E0= -.30084986E+04  d E =-.619004E-03  mag=    -0.0000
       N       E                     dE             d eps       ncg     rms          rms(c)
DAV:   1    -0.297145680106E+04    0.64663E-03   -0.29845E-01  5760   0.503E-01    0.161E-01
DAV:   2    -0.297145737621E+04   -0.57514E-03   -0.72048E-03  7056   0.743E-02    0.701E-02
DAV:   3    -0.297145730014E+04    0.76069E-04   -0.16339E-04  7008   0.152E-02    0.424E-02
DAV:   4    -0.297145727561E+04    0.24531E-04   -0.12523E-04  6816   0.141E-02    0.221E-02
DAV:   5    -0.297145727345E+04    0.21528E-05   -0.50322E-05  6752   0.749E-03
   4 F= -.30084985E+04 E0= -.30084985E+04  d E =0.362985E-04  mag=    -0.0000
       N       E                     dE             d eps       ncg     rms          rms(c)
DAV:   1    -0.297145753412E+04   -0.25851E-03   -0.87655E-02  5760   0.273E-01    0.833E-02
DAV:   2    -0.297145770429E+04   -0.17018E-03   -0.20911E-03  6992   0.398E-02    0.384E-02
DAV:   3    -0.297145768249E+04    0.21806E-04   -0.44483E-05  6736   0.759E-03    0.235E-02
DAV:   4    -0.297145767680E+04    0.56851E-05   -0.31929E-05  6000   0.648E-03    0.146E-02
DAV:   5    -0.297145767543E+04    0.13689E-05   -0.12367E-05  5232   0.369E-03
   5 F= -.30084989E+04 E0= -.30084989E+04  d E =-.294946E-03  mag=    -0.0000
       N       E                     dE             d eps       ncg     rms          rms(c)
DAV:   1    -0.297145777518E+04   -0.98380E-04   -0.10781E-01  5760   0.300E-01    0.883E-02
DAV:   2    -0.297145797554E+04   -0.20035E-03   -0.24712E-03  6880   0.432E-02    0.393E-02
DAV:   3    -0.297145795284E+04    0.22700E-04   -0.51588E-05  6944   0.841E-03    0.247E-02
DAV:   4    -0.297145794294E+04    0.98956E-05   -0.31302E-05  6240   0.793E-03    0.101E-02
DAV:   5    -0.297145794304E+04   -0.94820E-07   -0.15446E-05  5232   0.454E-03
   6 F= -.30084993E+04 E0= -.30084993E+04  d E =-.397418E-03  mag=    -0.0000
       N       E                     dE             d eps       ncg     rms          rms(c)
DAV:   1    -0.297145793824E+04    0.47014E-05   -0.16717E-04  6304   0.119E-02    0.717E-03
DAV:   2    -0.297145793827E+04   -0.30966E-07   -0.47963E-06  4832   0.225E-03    0.314E-03
DAV:   3    -0.297145793823E+04    0.39872E-07   -0.56206E-07  4768   0.131E-03    0.194E-03
DAV:   4    -0.297145793827E+04   -0.35216E-07   -0.33877E-07  4800   0.922E-04    0.160E-03
DAV:   5    -0.297145793835E+04   -0.83179E-07   -0.60204E-08  4768   0.987E-04
   7 F= -.30084993E+04 E0= -.30084993E+04  d E =-.397793E-03  mag=    -0.0000
       N       E                     dE             d eps       ncg     rms          rms(c)
DAV:   1    -0.297145815319E+04   -0.21493E-03   -0.71529E-02  5760   0.242E-01    0.698E-02
DAV:   2    -0.297145829074E+04   -0.13755E-03   -0.16525E-03  6880   0.347E-02    0.324E-02
DAV:   3    -0.297145827838E+04    0.12358E-04   -0.33215E-05  6208   0.634E-03    0.209E-02
DAV:   4    -0.297145827558E+04    0.28044E-05   -0.20659E-05  5312   0.539E-03    0.149E-02
DAV:   5    -0.297145827389E+04    0.16828E-05   -0.14050E-05  5216   0.392E-03
   8 F= -.30084997E+04 E0= -.30084997E+04  d E =-.417054E-03  mag=    -0.0000
       N       E                     dE             d eps       ncg     rms          rms(c)
DAV:   1    -0.297145825653E+04    0.19048E-04   -0.29733E-02  5760   0.156E-01    0.469E-02
DAV:   2    -0.297145831312E+04   -0.56590E-04   -0.69267E-04  6912   0.225E-02    0.211E-02
DAV:   3    -0.297145830796E+04    0.51527E-05   -0.14251E-05  5248   0.439E-03    0.135E-02
DAV:   4    -0.297145830684E+04    0.11199E-05   -0.89862E-06  4928   0.366E-03    0.101E-02
DAV:   5    -0.297145830610E+04    0.74477E-06   -0.65393E-06  4864   0.297E-03
   9 F= -.30084998E+04 E0= -.30084998E+04  d E =-.501829E-03  mag=    -0.0000
       N       E                     dE             d eps       ncg     rms          rms(c)
DAV:   1    -0.297145851962E+04   -0.21278E-03   -0.60554E-02  5760   0.221E-01    0.683E-02
DAV:   2    -0.297145863778E+04   -0.11816E-03   -0.14437E-03  6816   0.324E-02    0.314E-02
DAV:   3    -0.297145862685E+04    0.10927E-04   -0.30130E-05  6032   0.610E-03    0.201E-02
DAV:   4    -0.297145862520E+04    0.16546E-05   -0.18444E-05  5248   0.499E-03    0.153E-02
DAV:   5    -0.297145862367E+04    0.15281E-05   -0.12933E-05  5136   0.400E-03
  10 F= -.30085001E+04 E0= -.30085001E+04  d E =-.389687E-03  mag=    -0.0000
