 Entering Gaussian System, Link 0=g16
 Initial command:
 /home/chesagar/softwares/G16_AVX2//g16/l1.exe "/home/chesagar/scratch/Gau-7971.inp" -scrdir="/home/chesagar/scratch/"
 Entering Link 1 = /home/chesagar/softwares/G16_AVX2//g16/l1.exe PID=      7973.
  
 Copyright (c) 1988-2019, Gaussian, Inc.  All Rights Reserved.
  
 This is part of the Gaussian(R) 16 program.  It is based on
 the Gaussian(R) 09 system (copyright 2009, Gaussian, Inc.),
 the Gaussian(R) 03 system (copyright 2003, Gaussian, Inc.),
 the Gaussian(R) 98 system (copyright 1998, Gaussian, Inc.),
 the Gaussian(R) 94 system (copyright 1995, Gaussian, Inc.),
 the Gaussian 92(TM) system (copyright 1992, Gaussian, Inc.),
 the Gaussian 90(TM) system (copyright 1990, Gaussian, Inc.),
 the Gaussian 88(TM) system (copyright 1988, Gaussian, Inc.),
 the Gaussian 86(TM) system (copyright 1986, Carnegie Mellon
 University), and the Gaussian 82(TM) system (copyright 1983,
 Carnegie Mellon University). Gaussian is a federally registered
 trademark of Gaussian, Inc.
  
 This software contains proprietary and confidential information,
 including trade secrets, belonging to Gaussian, Inc.
  
 This software is provided under written license and may be
 used, copied, transmitted, or stored only in accord with that
 written license.
  
 The following legend is applicable only to US Government
 contracts under FAR:
  
                    RESTRICTED RIGHTS LEGEND
  
 Use, reproduction and disclosure by the US Government is
 subject to restrictions as set forth in subparagraphs (a)
 and (c) of the Commercial Computer Software - Restricted
 Rights clause in FAR 52.227-19.
  
 Gaussian, Inc.
 340 Quinnipiac St., Bldg. 40, Wallingford CT 06492
  
  
 ---------------------------------------------------------------
 Warning -- This program may not be used in any manner that
 competes with the business of Gaussian, Inc. or will provide
 assistance to any competitor of Gaussian, Inc.  The licensee
 of this program is prohibited from giving any competitor of
 Gaussian, Inc. access to this program.  By using this program,
 the user acknowledges that Gaussian, Inc. is engaged in the
 business of creating and licensing software in the field of
 computational chemistry and represents and warrants to the
 licensee that it is not a competitor of Gaussian, Inc. and that
 it will not use this program in any manner prohibited above.
 ---------------------------------------------------------------
  

 Cite this work as:
 Gaussian 16, Revision C.01,
 M. J. Frisch, G. W. Trucks, H. B. Schlegel, G. E. Scuseria, 
 M. A. Robb, J. R. Cheeseman, G. Scalmani, V. Barone, 
 G. A. Petersson, H. Nakatsuji, X. Li, M. Caricato, A. V. Marenich, 
 J. Bloino, B. G. Janesko, R. Gomperts, B. Mennucci, H. P. Hratchian, 
 J. V. Ortiz, A. F. Izmaylov, J. L. Sonnenberg, D. Williams-Young, 
 F. Ding, F. Lipparini, F. Egidi, J. Goings, B. Peng, A. Petrone, 
 T. Henderson, D. Ranasinghe, V. G. Zakrzewski, J. Gao, N. Rega, 
 G. Zheng, W. Liang, M. Hada, M. Ehara, K. Toyota, R. Fukuda, 
 J. Hasegawa, M. Ishida, T. Nakajima, Y. Honda, O. Kitao, H. Nakai, 
 T. Vreven, K. Throssell, J. A. Montgomery, Jr., J. E. Peralta, 
 F. Ogliaro, M. J. Bearpark, J. J. Heyd, E. N. Brothers, K. N. Kudin, 
 V. N. Staroverov, T. A. Keith, R. Kobayashi, J. Normand, 
 K. Raghavachari, A. P. Rendell, J. C. Burant, S. S. Iyengar, 
 J. Tomasi, M. Cossi, J. M. Millam, M. Klene, C. Adamo, R. Cammi, 
 J. W. Ochterski, R. L. Martin, K. Morokuma, O. Farkas, 
 J. B. Foresman, and D. J. Fox, Gaussian, Inc., Wallingford CT, 2019.
 
 ******************************************
 Gaussian 16:  ES64L-G16RevC.01  3-Jul-2019
                22-Feb-2023 
 ******************************************
 %nprocshared=46
 Will use up to   46 processors via shared memory.
 %chk=Mo19S45_Mozz_MoCO.chk
 %mem=100GB
 ----------------------------------------------------------
 # opt freq b3lyp/gen nosymm pseudo=read scf=maxcycles=1000
 ----------------------------------------------------------
 1/18=20,19=15,26=3,38=1/1,3;
 2/9=110,12=2,15=1,17=6,18=5,40=1/2;
 3/5=7,11=2,16=1,17=8,25=1,30=1,71=1,74=-5/1,2,3;
 4//1;
 5/5=2,7=1000,38=5/2;
 6/7=2,8=2,9=2,10=2,28=1/1;
 7/30=1/1,2,3,16;
 1/18=20,19=15,26=3/3(2);
 2/9=110,15=1/2;
 99//99;
 2/9=110,15=1/2;
 3/5=7,6=1,11=2,16=1,17=8,25=1,30=1,71=1,74=-5,82=7/1,2,3;
 4/5=5,16=3,69=1/1;
 5/5=2,7=1000,38=5/2;
 7/30=1/1,2,3,16;
 1/18=20,19=15,26=3/3(-5);
 2/9=110,15=1/2;
 6/7=2,8=2,9=2,10=2,19=2,28=1/1;
 99/9=1/99;
 -------------------
 Title Card Required
 -------------------
 Symbolic Z-matrix:
 Charge =  0 Multiplicity = 1
 42                    0.33091   1.05132   12.51141 
 16                    2.30497   2.01094   13.58537 
 16                   -0.7714    1.65738   14.69876 
 16                   -0.38202   0.75927   10.21408 
 16                    2.00919  -0.58309   11.83287 
 42                   -2.03117   2.37694   10.91003 
 16                   -2.818     2.17308   8.6058 
 16                   -0.11527   3.36647   12.01226 
 42                    0.95494   2.77401   9.90253 
 16                    0.17288   2.55771   7.58772 
 16                    2.61943   1.12183   9.21795 
 42                    3.39905   1.38803   11.49993 
 42                   -1.4905    4.17594   8.2926 
 16                    5.44312   2.36788   12.67456 
 16                    2.94209   3.70945   10.98317 
 16                   -2.51405   4.72122   10.42561 
 16                    1.01704   6.95869   6.81028 
 42                   -4.45288   3.74448   9.41749 
 16                   -5.71064   1.63271   9.57845 
 16                   -5.55233   4.30032   11.39467 
 42                    2.66535  -0.30293   14.1323 
 16                    4.9041   -0.0309    15.25647 
 16                    1.71983   0.3488    16.20593 
 42                    1.54207   4.52867   7.31698 
 16                    0.87793   4.49797   4.9074 
 16                    0.47236   5.1156    9.3999 
 42                    4.00401   3.08808   8.8894 
 16                    3.15609   2.83272   6.6196 
 16                    3.56447   5.41829   8.376 
 42                    4.49852   4.76199   6.25268 
 16                    6.91257   5.29021   6.6599 
 16                    4.23478   7.24775   5.88649 
 42                    2.37156   6.5175    4.87432 
 16                    3.86198   4.70064   4.04462 
 16                   -1.33926   7.19509   4.0709 
 42                   -0.95923   5.94676   5.73392 
 16                   -2.26686   3.91099   5.8428 
 16                   -2.00406   6.66354   7.79465 
 42                   -3.72517   5.61723   6.58679 
 16                   -5.64817   4.14504   7.25848 
 16                   -4.56577   6.79752   5.05182 
 42                   -5.10982   1.93458   11.77527 
 16                   -3.19697   2.88359   13.03909 
 16                   -3.35139   0.28299   11.32211 
 42                   -2.65146   0.59245   13.65597 
 16                   -1.03816  -1.031     12.92267 
 16                   -3.7522   -0.30883   15.39302 
 42                   -0.19729  -0.67459   15.17037 
 16                    1.44655  -2.29432   14.44994 
 16                   -0.98807  -1.72857   16.83544 
 42                    5.90745   0.08947   12.98489 
 16                    5.0964   -0.40151   10.83986 
 16                    8.37531   1.19497   10.81006 
 42                    6.33611   1.69924   10.47029 
 16                    5.69511   1.28611   8.14839 
 16                    6.10398   4.08368   9.98055 
 42                    7.03802   3.19439   8.01557 
 16                    9.12517   2.83984   8.04935 
 16                    2.10471   7.8423    3.24057 
 16                    7.90944  -0.46506   13.4474 
 16                   -7.05166   1.20003   12.53734 
 16                   -5.34591   5.87319   8.44563 
 16                    4.70406  -1.77964   14.08961 
 16                    6.57352   3.49172   5.59983 
 42                   -5.73152   0.91924   14.67863 
 6                    -7.55406   0.15198   14.94049 
 8                    -8.58709  -0.34301   15.07656 
 

 GradGradGradGradGradGradGradGradGradGradGradGradGradGradGradGradGradGrad
 Berny optimization.
 Initialization pass.
                           ----------------------------
                           !    Initial Parameters    !
                           ! (Angstroms and Degrees)  !
 --------------------------                            --------------------------
 ! Name  Definition              Value          Derivative Info.                !
 --------------------------------------------------------------------------------
 ! R1    R(1,2)                  2.4436         estimate D2E/DX2                !
 ! R2    R(1,3)                  2.5233         estimate D2E/DX2                !
 ! R3    R(1,4)                  2.4231         estimate D2E/DX2                !
 ! R4    R(1,5)                  2.4389         estimate D2E/DX2                !
 ! R5    R(1,8)                  2.41           estimate D2E/DX2                !
 ! R6    R(1,46)                 2.5258         estimate D2E/DX2                !
 ! R7    R(2,12)                 2.436          estimate D2E/DX2                !
 ! R8    R(2,21)                 2.4048         estimate D2E/DX2                !
 ! R9    R(3,45)                 2.3992         estimate D2E/DX2                !
 ! R10   R(3,48)                 2.4475         estimate D2E/DX2                !
 ! R11   R(4,6)                  2.4127         estimate D2E/DX2                !
 ! R12   R(4,9)                  2.438          estimate D2E/DX2                !
 ! R13   R(5,12)                 2.4347         estimate D2E/DX2                !
 ! R14   R(5,21)                 2.4076         estimate D2E/DX2                !
 ! R15   R(6,7)                  2.4434         estimate D2E/DX2                !
 ! R16   R(6,8)                  2.4217         estimate D2E/DX2                !
 ! R17   R(6,16)                 2.442          estimate D2E/DX2                !
 ! R18   R(6,43)                 2.4797         estimate D2E/DX2                !
 ! R19   R(6,44)                 2.5095         estimate D2E/DX2                !
 ! R20   R(7,13)                 2.4232         estimate D2E/DX2                !
 ! R21   R(7,18)                 2.4085         estimate D2E/DX2                !
 ! R22   R(8,9)                  2.4387         estimate D2E/DX2                !
 ! R23   R(9,10)                 2.4529         estimate D2E/DX2                !
 ! R24   R(9,11)                 2.4431         estimate D2E/DX2                !
 ! R25   R(9,15)                 2.4478         estimate D2E/DX2                !
 ! R26   R(9,26)                 2.4431         estimate D2E/DX2                !
 ! R27   R(10,13)                2.4254         estimate D2E/DX2                !
 ! R28   R(10,24)                2.4151         estimate D2E/DX2                !
 ! R29   R(11,12)                2.4261         estimate D2E/DX2                !
 ! R30   R(11,27)                2.4272         estimate D2E/DX2                !
 ! R31   R(12,14)                2.5531         estimate D2E/DX2                !
 ! R32   R(12,15)                2.4217         estimate D2E/DX2                !
 ! R33   R(12,52)                2.5533         estimate D2E/DX2                !
 ! R34   R(13,16)                2.4279         estimate D2E/DX2                !
 ! R35   R(13,26)                2.4417         estimate D2E/DX2                !
 ! R36   R(13,37)                2.5835         estimate D2E/DX2                !
 ! R37   R(13,38)                2.5884         estimate D2E/DX2                !
 ! R38   R(14,51)                2.3459         estimate D2E/DX2                !
 ! R39   R(14,54)                2.4705         estimate D2E/DX2                !
 ! R40   R(15,27)                2.4285         estimate D2E/DX2                !
 ! R41   R(16,18)                2.3936         estimate D2E/DX2                !
 ! R42   R(17,24)                2.5372         estimate D2E/DX2                !
 ! R43   R(17,33)                2.4036         estimate D2E/DX2                !
 ! R44   R(17,36)                2.4674         estimate D2E/DX2                !
 ! R45   R(18,19)                2.4632         estimate D2E/DX2                !
 ! R46   R(18,20)                2.3296         estimate D2E/DX2                !
 ! R47   R(18,40)                2.5001         estimate D2E/DX2                !
 ! R48   R(18,42)                3.0441         estimate D2E/DX2                !
 ! R49   R(18,62)                2.5047         estimate D2E/DX2                !
 ! R50   R(19,42)                2.2974         estimate D2E/DX2                !
 ! R51   R(20,42)                2.4367         estimate D2E/DX2                !
 ! R52   R(21,22)                2.5199         estimate D2E/DX2                !
 ! R53   R(21,23)                2.3704         estimate D2E/DX2                !
 ! R54   R(21,48)                3.0676         estimate D2E/DX2                !
 ! R55   R(21,49)                2.3563         estimate D2E/DX2                !
 ! R56   R(21,63)                2.5177         estimate D2E/DX2                !
 ! R57   R(22,51)                2.4862         estimate D2E/DX2                !
 ! R58   R(22,63)                2.1118         estimate D2E/DX2                !
 ! R59   R(23,48)                2.4073         estimate D2E/DX2                !
 ! R60   R(24,25)                2.4996         estimate D2E/DX2                !
 ! R61   R(24,26)                2.414          estimate D2E/DX2                !
 ! R62   R(24,28)                2.4429         estimate D2E/DX2                !
 ! R63   R(24,29)                2.4501         estimate D2E/DX2                !
 ! R64   R(25,33)                2.5121         estimate D2E/DX2                !
 ! R65   R(25,36)                2.4814         estimate D2E/DX2                !
 ! R66   R(27,28)                2.4364         estimate D2E/DX2                !
 ! R67   R(27,29)                2.4262         estimate D2E/DX2                !
 ! R68   R(27,55)                2.5799         estimate D2E/DX2                !
 ! R69   R(27,56)                2.5674         estimate D2E/DX2                !
 ! R70   R(28,30)                2.3788         estimate D2E/DX2                !
 ! R71   R(29,30)                2.4107         estimate D2E/DX2                !
 ! R72   R(30,31)                2.5045         estimate D2E/DX2                !
 ! R73   R(30,32)                2.5264         estimate D2E/DX2                !
 ! R74   R(30,33)                3.0831         estimate D2E/DX2                !
 ! R75   R(30,34)                2.2988         estimate D2E/DX2                !
 ! R76   R(30,64)                2.519          estimate D2E/DX2                !
 ! R77   R(31,57)                2.4992         estimate D2E/DX2                !
 ! R78   R(31,64)                2.115          estimate D2E/DX2                !
 ! R79   R(32,33)                2.2426         estimate D2E/DX2                !
 ! R80   R(33,34)                2.4921         estimate D2E/DX2                !
 ! R81   R(33,59)                2.1202         estimate D2E/DX2                !
 ! R82   R(35,36)                2.1139         estimate D2E/DX2                !
 ! R83   R(36,37)                2.422          estimate D2E/DX2                !
 ! R84   R(36,38)                2.4191         estimate D2E/DX2                !
 ! R85   R(36,39)                2.9131         estimate D2E/DX2                !
 ! R86   R(37,39)                2.3646         estimate D2E/DX2                !
 ! R87   R(38,39)                2.3486         estimate D2E/DX2                !
 ! R88   R(39,40)                2.5133         estimate D2E/DX2                !
 ! R89   R(39,41)                2.1109         estimate D2E/DX2                !
 ! R90   R(39,62)                2.4794         estimate D2E/DX2                !
 ! R91   R(40,62)                2.1183         estimate D2E/DX2                !
 ! R92   R(42,43)                2.4813         estimate D2E/DX2                !
 ! R93   R(42,44)                2.4546         estimate D2E/DX2                !
 ! R94   R(42,61)                2.2116         estimate D2E/DX2                !
 ! R95   R(43,45)                2.4346         estimate D2E/DX2                !
 ! R96   R(44,45)                2.4561         estimate D2E/DX2                !
 ! R97   R(45,46)                2.4033         estimate D2E/DX2                !
 ! R98   R(45,47)                2.2453         estimate D2E/DX2                !
 ! R99   R(46,48)                2.4262         estimate D2E/DX2                !
 ! R100  R(47,65)                2.4364         estimate D2E/DX2                !
 ! R101  R(48,49)                2.4176         estimate D2E/DX2                !
 ! R102  R(48,50)                2.1234         estimate D2E/DX2                !
 ! R103  R(51,52)                2.3452         estimate D2E/DX2                !
 ! R104  R(51,54)                3.0163         estimate D2E/DX2                !
 ! R105  R(51,60)                2.1282         estimate D2E/DX2                !
 ! R106  R(51,63)                2.4824         estimate D2E/DX2                !
 ! R107  R(52,54)                2.4671         estimate D2E/DX2                !
 ! R108  R(53,54)                2.1279         estimate D2E/DX2                !
 ! R109  R(54,55)                2.4439         estimate D2E/DX2                !
 ! R110  R(54,56)                2.4452         estimate D2E/DX2                !
 ! R111  R(54,57)                2.9587         estimate D2E/DX2                !
 ! R112  R(55,57)                2.3372         estimate D2E/DX2                !
 ! R113  R(56,57)                2.3504         estimate D2E/DX2                !
 ! R114  R(57,58)                2.1173         estimate D2E/DX2                !
 ! R115  R(57,64)                2.4779         estimate D2E/DX2                !
 ! R116  R(61,65)                2.5312         estimate D2E/DX2                !
 ! R117  R(65,66)                1.9947         estimate D2E/DX2                !
 ! R118  R(66,67)                1.1535         estimate D2E/DX2                !
 ! A1    A(2,1,3)               82.9695         estimate D2E/DX2                !
 ! A2    A(2,1,4)              134.5647         estimate D2E/DX2                !
 ! A3    A(2,1,5)               80.1857         estimate D2E/DX2                !
 ! A4    A(2,1,8)               82.1454         estimate D2E/DX2                !
 ! A5    A(2,1,46)             133.6368         estimate D2E/DX2                !
 ! A6    A(3,1,4)              136.2447         estimate D2E/DX2                !
 ! A7    A(3,1,5)              134.6479         estimate D2E/DX2                !
 ! A8    A(3,1,8)               82.4108         estimate D2E/DX2                !
 ! A9    A(3,1,46)              79.6346         estimate D2E/DX2                !
 ! A10   A(4,1,5)               81.8314         estimate D2E/DX2                !
 ! A11   A(4,1,8)               82.2382         estimate D2E/DX2                !
 ! A12   A(4,1,46)              84.0031         estimate D2E/DX2                !
 ! A13   A(5,1,8)              135.5231         estimate D2E/DX2                !
 ! A14   A(5,1,46)              82.2883         estimate D2E/DX2                !
 ! A15   A(8,1,46)             136.4979         estimate D2E/DX2                !
 ! A16   A(1,2,12)              83.4629         estimate D2E/DX2                !
 ! A17   A(1,2,21)              80.9763         estimate D2E/DX2                !
 ! A18   A(12,2,21)             83.186          estimate D2E/DX2                !
 ! A19   A(1,3,45)              81.8911         estimate D2E/DX2                !
 ! A20   A(1,3,48)              80.5441         estimate D2E/DX2                !
 ! A21   A(45,3,48)             81.0627         estimate D2E/DX2                !
 ! A22   A(1,4,6)               81.1884         estimate D2E/DX2                !
 ! A23   A(1,4,9)               81.9639         estimate D2E/DX2                !
 ! A24   A(6,4,9)               81.8141         estimate D2E/DX2                !
 ! A25   A(1,5,12)              83.5881         estimate D2E/DX2                !
 ! A26   A(1,5,21)              81.016          estimate D2E/DX2                !
 ! A27   A(12,5,21)             83.1551         estimate D2E/DX2                !
 ! A28   A(4,6,7)               83.8085         estimate D2E/DX2                !
 ! A29   A(4,6,8)               82.2116         estimate D2E/DX2                !
 ! A30   A(4,6,16)             136.1865         estimate D2E/DX2                !
 ! A31   A(4,6,43)             134.9132         estimate D2E/DX2                !
 ! A32   A(4,6,44)              81.2285         estimate D2E/DX2                !
 ! A33   A(7,6,8)              135.8955         estimate D2E/DX2                !
 ! A34   A(7,6,16)              80.1741         estimate D2E/DX2                !
 ! A35   A(7,6,43)             132.4824         estimate D2E/DX2                !
 ! A36   A(7,6,44)              85.1718         estimate D2E/DX2                !
 ! A37   A(8,6,16)              81.632          estimate D2E/DX2                !
 ! A38   A(8,6,43)              84.1265         estimate D2E/DX2                !
 ! A39   A(8,6,44)             133.033          estimate D2E/DX2                !
 ! A40   A(16,6,43)             83.1777         estimate D2E/DX2                !
 ! A41   A(16,6,44)            136.8502         estimate D2E/DX2                !
 ! A42   A(43,6,44)             77.4175         estimate D2E/DX2                !
 ! A43   A(6,7,13)              82.9069         estimate D2E/DX2                !
 ! A44   A(6,7,18)              81.1607         estimate D2E/DX2                !
 ! A45   A(13,7,18)             82.8864         estimate D2E/DX2                !
 ! A46   A(1,8,6)               81.2695         estimate D2E/DX2                !
 ! A47   A(1,8,9)               82.2156         estimate D2E/DX2                !
 ! A48   A(6,8,9)               81.6148         estimate D2E/DX2                !
 ! A49   A(4,9,8)               81.3473         estimate D2E/DX2                !
 ! A50   A(4,9,10)              82.6969         estimate D2E/DX2                !
 ! A51   A(4,9,11)              81.4055         estimate D2E/DX2                !
 ! A52   A(4,9,15)             134.7966         estimate D2E/DX2                !
 ! A53   A(4,9,26)             135.2383         estimate D2E/DX2                !
 ! A54   A(8,9,10)             134.259          estimate D2E/DX2                !
 ! A55   A(8,9,11)             134.8842         estimate D2E/DX2                !
 ! A56   A(8,9,15)              83.1941         estimate D2E/DX2                !
 ! A57   A(8,9,26)              81.8624         estimate D2E/DX2                !
 ! A58   A(10,9,11)             83.8663         estimate D2E/DX2                !
 ! A59   A(10,9,15)            135.1664         estimate D2E/DX2                !
 ! A60   A(10,9,26)             80.0601         estimate D2E/DX2                !
 ! A61   A(11,9,15)             80.1575         estimate D2E/DX2                !
 ! A62   A(11,9,26)            136.4771         estimate D2E/DX2                !
 ! A63   A(15,9,26)             83.3909         estimate D2E/DX2                !
 ! A64   A(9,10,13)             83.4287         estimate D2E/DX2                !
 ! A65   A(9,10,24)             81.5511         estimate D2E/DX2                !
 ! A66   A(13,10,24)            82.9281         estimate D2E/DX2                !
 ! A67   A(9,11,12)             83.1754         estimate D2E/DX2                !
 ! A68   A(9,11,27)             83.0348         estimate D2E/DX2                !
 ! A69   A(12,11,27)            81.6699         estimate D2E/DX2                !
 ! A70   A(2,12,5)              80.4197         estimate D2E/DX2                !
 ! A71   A(2,12,11)            133.548          estimate D2E/DX2                !
 ! A72   A(2,12,14)             82.39           estimate D2E/DX2                !
 ! A73   A(2,12,15)             81.5358         estimate D2E/DX2                !
 ! A74   A(2,12,52)            134.3559         estimate D2E/DX2                !
 ! A75   A(5,12,11)             81.7411         estimate D2E/DX2                !
 ! A76   A(5,12,14)            134.817          estimate D2E/DX2                !
 ! A77   A(5,12,15)            134.228          estimate D2E/DX2                !
 ! A78   A(5,12,52)             81.2233         estimate D2E/DX2                !
 ! A79   A(11,12,14)           137.0661         estimate D2E/DX2                !
 ! A80   A(11,12,15)            81.0159         estimate D2E/DX2                !
 ! A81   A(11,12,52)            83.8897         estimate D2E/DX2                !
 ! A82   A(14,12,15)            83.1858         estimate D2E/DX2                !
 ! A83   A(14,12,52)            81.7027         estimate D2E/DX2                !
 ! A84   A(15,12,52)           137.9123         estimate D2E/DX2                !
 ! A85   A(7,13,10)             82.0567         estimate D2E/DX2                !
 ! A86   A(7,13,16)             80.8584         estimate D2E/DX2                !
 ! A87   A(7,13,26)            134.4164         estimate D2E/DX2                !
 ! A88   A(7,13,37)             82.7133         estimate D2E/DX2                !
 ! A89   A(7,13,38)            135.2773         estimate D2E/DX2                !
 ! A90   A(10,13,16)           133.9722         estimate D2E/DX2                !
 ! A91   A(10,13,26)            80.6326         estimate D2E/DX2                !
 ! A92   A(10,13,37)            82.0727         estimate D2E/DX2                !
 ! A93   A(10,13,38)           136.1696         estimate D2E/DX2                !
 ! A94   A(16,13,26)            81.6081         estimate D2E/DX2                !
 ! A95   A(16,13,37)           136.8376         estimate D2E/DX2                !
 ! A96   A(16,13,38)            82.5027         estimate D2E/DX2                !
 ! A97   A(26,13,37)           135.3223         estimate D2E/DX2                !
 ! A98   A(26,13,38)            82.9284         estimate D2E/DX2                !
 ! A99   A(37,13,38)            81.7507         estimate D2E/DX2                !
 ! A100  A(12,14,51)            81.1746         estimate D2E/DX2                !
 ! A101  A(12,14,54)            76.9981         estimate D2E/DX2                !
 ! A102  A(9,15,12)             83.1689         estimate D2E/DX2                !
 ! A103  A(9,15,27)             82.9101         estimate D2E/DX2                !
 ! A104  A(12,15,27)            81.7319         estimate D2E/DX2                !
 ! A105  A(6,16,13)             82.8372         estimate D2E/DX2                !
 ! A106  A(6,16,18)             81.4879         estimate D2E/DX2                !
 ! A107  A(13,16,18)            83.0972         estimate D2E/DX2                !
 ! A108  A(24,17,33)            82.4403         estimate D2E/DX2                !
 ! A109  A(24,17,36)            81.9561         estimate D2E/DX2                !
 ! A110  A(33,17,36)            91.4172         estimate D2E/DX2                !
 ! A111  A(7,18,16)             81.8568         estimate D2E/DX2                !
 ! A112  A(7,18,19)             79.0055         estimate D2E/DX2                !
 ! A113  A(7,18,20)            139.6457         estimate D2E/DX2                !
 ! A114  A(7,18,40)             97.934          estimate D2E/DX2                !
 ! A115  A(7,18,42)             91.1236         estimate D2E/DX2                !
 ! A116  A(7,18,62)            131.7401         estimate D2E/DX2                !
 ! A117  A(16,18,19)           137.3851         estimate D2E/DX2                !
 ! A118  A(16,18,20)            85.8399         estimate D2E/DX2                !
 ! A119  A(16,18,40)           133.2821         estimate D2E/DX2                !
 ! A120  A(16,18,42)            95.2331         estimate D2E/DX2                !
 ! A121  A(16,18,62)            96.0508         estimate D2E/DX2                !
 ! A122  A(19,18,20)            84.7276         estimate D2E/DX2                !
 ! A123  A(19,18,40)            87.1147         estimate D2E/DX2                !
 ! A124  A(19,18,62)           124.8847         estimate D2E/DX2                !
 ! A125  A(20,18,40)           117.9735         estimate D2E/DX2                !
 ! A126  A(20,18,62)            87.6078         estimate D2E/DX2                !
 ! A127  A(40,18,42)           131.3728         estimate D2E/DX2                !
 ! A128  A(42,18,62)           136.7945         estimate D2E/DX2                !
 ! A129  A(2,21,5)              81.5994         estimate D2E/DX2                !
 ! A130  A(2,21,22)             97.5117         estimate D2E/DX2                !
 ! A131  A(2,21,23)             82.7978         estimate D2E/DX2                !
 ! A132  A(2,21,48)             93.0777         estimate D2E/DX2                !
 ! A133  A(2,21,49)            140.0262         estimate D2E/DX2                !
 ! A134  A(2,21,63)            132.988          estimate D2E/DX2                !
 ! A135  A(5,21,22)            132.9045         estimate D2E/DX2                !
 ! A136  A(5,21,23)            139.3581         estimate D2E/DX2                !
 ! A137  A(5,21,48)             93.1396         estimate D2E/DX2                !
 ! A138  A(5,21,49)             83.652          estimate D2E/DX2                !
 ! A139  A(5,21,63)             97.8305         estimate D2E/DX2                !
 ! A140  A(22,21,23)            86.2408         estimate D2E/DX2                !
 ! A141  A(22,21,48)           133.7237         estimate D2E/DX2                !
 ! A142  A(22,21,49)           119.3832         estimate D2E/DX2                !
 ! A143  A(23,21,49)            84.7278         estimate D2E/DX2                !
 ! A144  A(23,21,63)           119.9405         estimate D2E/DX2                !
 ! A145  A(48,21,63)           133.6552         estimate D2E/DX2                !
 ! A146  A(49,21,63)            85.7237         estimate D2E/DX2                !
 ! A147  A(21,22,51)            87.4873         estimate D2E/DX2                !
 ! A148  A(10,24,17)           133.3693         estimate D2E/DX2                !
 ! A149  A(10,24,25)            86.9857         estimate D2E/DX2                !
 ! A150  A(10,24,26)            81.4004         estimate D2E/DX2                !
 ! A151  A(10,24,28)            80.7935         estimate D2E/DX2                !
 ! A152  A(10,24,29)           135.7112         estimate D2E/DX2                !
 ! A153  A(17,24,25)            76.365          estimate D2E/DX2                !
 ! A154  A(17,24,26)            81.2431         estimate D2E/DX2                !
 ! A155  A(17,24,28)           138.1266         estimate D2E/DX2                !
 ! A156  A(17,24,29)            84.8004         estimate D2E/DX2                !
 ! A157  A(25,24,26)           135.8093         estimate D2E/DX2                !
 ! A158  A(25,24,28)            83.79           estimate D2E/DX2                !
 ! A159  A(25,24,29)           129.8242         estimate D2E/DX2                !
 ! A160  A(26,24,28)           135.0642         estimate D2E/DX2                !
 ! A161  A(26,24,29)            84.522          estimate D2E/DX2                !
 ! A162  A(28,24,29)            80.2179         estimate D2E/DX2                !
 ! A163  A(24,25,33)            81.0743         estimate D2E/DX2                !
 ! A164  A(24,25,36)            82.4411         estimate D2E/DX2                !
 ! A165  A(33,25,36)            88.5799         estimate D2E/DX2                !
 ! A166  A(9,26,13)             83.295          estimate D2E/DX2                !
 ! A167  A(9,26,24)             81.7756         estimate D2E/DX2                !
 ! A168  A(13,26,24)            82.6088         estimate D2E/DX2                !
 ! A169  A(11,27,15)            80.8588         estimate D2E/DX2                !
 ! A170  A(11,27,28)            80.9484         estimate D2E/DX2                !
 ! A171  A(11,27,29)           134.6955         estimate D2E/DX2                !
 ! A172  A(11,27,55)            81.198          estimate D2E/DX2                !
 ! A173  A(11,27,56)           136.3192         estimate D2E/DX2                !
 ! A174  A(15,27,28)           132.6753         estimate D2E/DX2                !
 ! A175  A(15,27,29)            81.8064         estimate D2E/DX2                !
 ! A176  A(15,27,55)           135.4769         estimate D2E/DX2                !
 ! A177  A(15,27,56)            83.8011         estimate D2E/DX2                !
 ! A178  A(28,27,29)            80.8211         estimate D2E/DX2                !
 ! A179  A(28,27,55)            83.5312         estimate D2E/DX2                !
 ! A180  A(28,27,56)           136.1557         estimate D2E/DX2                !
 ! A181  A(29,27,55)           136.7844         estimate D2E/DX2                !
 ! A182  A(29,27,56)            82.2803         estimate D2E/DX2                !
 ! A183  A(55,27,56)            81.7655         estimate D2E/DX2                !
 ! A184  A(24,28,27)            83.7551         estimate D2E/DX2                !
 ! A185  A(24,28,30)            81.5959         estimate D2E/DX2                !
 ! A186  A(27,28,30)            82.0854         estimate D2E/DX2                !
 ! A187  A(24,29,27)            83.8156         estimate D2E/DX2                !
 ! A188  A(24,29,30)            80.8086         estimate D2E/DX2                !
 ! A189  A(27,29,30)            81.6464         estimate D2E/DX2                !
 ! A190  A(28,30,29)            82.3158         estimate D2E/DX2                !
 ! A191  A(28,30,31)           133.6235         estimate D2E/DX2                !
 ! A192  A(28,30,32)           139.5893         estimate D2E/DX2                !
 ! A193  A(28,30,33)            98.1308         estimate D2E/DX2                !
 ! A194  A(28,30,34)            88.2951         estimate D2E/DX2                !
 ! A195  A(28,30,64)            95.5005         estimate D2E/DX2                !
 ! A196  A(29,30,31)            99.9524         estimate D2E/DX2                !
 ! A197  A(29,30,32)            79.5925         estimate D2E/DX2                !
 ! A198  A(29,30,33)            88.3645         estimate D2E/DX2                !
 ! A199  A(29,30,34)           138.2441         estimate D2E/DX2                !
 ! A200  A(29,30,64)           133.213          estimate D2E/DX2                !
 ! A201  A(31,30,32)            85.2202         estimate D2E/DX2                !
 ! A202  A(31,30,33)           128.1381         estimate D2E/DX2                !
 ! A203  A(31,30,34)           115.3857         estimate D2E/DX2                !
 ! A204  A(32,30,34)            81.844          estimate D2E/DX2                !
 ! A205  A(32,30,64)           122.9968         estimate D2E/DX2                !
 ! A206  A(33,30,64)           137.6919         estimate D2E/DX2                !
 ! A207  A(34,30,64)            88.0341         estimate D2E/DX2                !
 ! A208  A(30,31,57)            87.6911         estimate D2E/DX2                !
 ! A209  A(17,33,25)            78.5734         estimate D2E/DX2                !
 ! A210  A(17,33,30)            97.6545         estimate D2E/DX2                !
 ! A211  A(17,33,32)            92.5739         estimate D2E/DX2                !
 ! A212  A(17,33,34)           137.6458         estimate D2E/DX2                !
 ! A213  A(17,33,59)           115.786          estimate D2E/DX2                !
 ! A214  A(25,33,30)            86.9357         estimate D2E/DX2                !
 ! A215  A(25,33,32)           138.5751         estimate D2E/DX2                !
 ! A216  A(25,33,34)            76.9311         estimate D2E/DX2                !
 ! A217  A(25,33,59)           115.9531         estimate D2E/DX2                !
 ! A218  A(30,33,59)           141.9143         estimate D2E/DX2                !
 ! A219  A(32,33,34)            83.7297         estimate D2E/DX2                !
 ! A220  A(32,33,59)           104.4115         estimate D2E/DX2                !
 ! A221  A(34,33,59)           105.9181         estimate D2E/DX2                !
 ! A222  A(17,36,25)            77.9803         estimate D2E/DX2                !
 ! A223  A(17,36,35)           104.1813         estimate D2E/DX2                !
 ! A224  A(17,36,37)           139.247          estimate D2E/DX2                !
 ! A225  A(17,36,38)            81.5362         estimate D2E/DX2                !
 ! A226  A(17,36,39)           132.7774         estimate D2E/DX2                !
 ! A227  A(25,36,35)           102.4654         estimate D2E/DX2                !
 ! A228  A(25,36,37)            85.6382         estimate D2E/DX2                !
 ! A229  A(25,36,38)           140.9427         estimate D2E/DX2                !
 ! A230  A(25,36,39)           137.2597         estimate D2E/DX2                !
 ! A231  A(35,36,37)           115.7646         estimate D2E/DX2                !
 ! A232  A(35,36,38)           114.6802         estimate D2E/DX2                !
 ! A233  A(35,36,39)            97.2635         estimate D2E/DX2                !
 ! A234  A(37,36,38)            88.7147         estimate D2E/DX2                !
 ! A235  A(13,37,36)            78.1226         estimate D2E/DX2                !
 ! A236  A(13,37,39)            79.221          estimate D2E/DX2                !
 ! A237  A(13,38,36)            78.0781         estimate D2E/DX2                !
 ! A238  A(13,38,39)            79.4079         estimate D2E/DX2                !
 ! A239  A(36,39,40)           150.5733         estimate D2E/DX2                !
 ! A240  A(36,39,41)            95.852          estimate D2E/DX2                !
 ! A241  A(36,39,62)           145.94           estimate D2E/DX2                !
 ! A242  A(37,39,38)            91.7952         estimate D2E/DX2                !
 ! A243  A(37,39,40)            97.6598         estimate D2E/DX2                !
 ! A244  A(37,39,41)           114.851          estimate D2E/DX2                !
 ! A245  A(37,39,62)           135.5206         estimate D2E/DX2                !
 ! A246  A(38,39,40)           133.1749         estimate D2E/DX2                !
 ! A247  A(38,39,41)           114.6267         estimate D2E/DX2                !
 ! A248  A(38,39,62)            92.7208         estimate D2E/DX2                !
 ! A249  A(40,39,41)           102.5434         estimate D2E/DX2                !
 ! A250  A(41,39,62)           103.1286         estimate D2E/DX2                !
 ! A251  A(18,40,39)            87.6408         estimate D2E/DX2                !
 ! A252  A(18,42,43)            90.0422         estimate D2E/DX2                !
 ! A253  A(18,42,44)            95.8806         estimate D2E/DX2                !
 ! A254  A(18,42,61)           130.8334         estimate D2E/DX2                !
 ! A255  A(19,42,20)            86.0271         estimate D2E/DX2                !
 ! A256  A(19,42,43)           137.6374         estimate D2E/DX2                !
 ! A257  A(19,42,44)            85.5497         estimate D2E/DX2                !
 ! A258  A(19,42,61)            93.2233         estimate D2E/DX2                !
 ! A259  A(20,42,43)            81.2704         estimate D2E/DX2                !
 ! A260  A(20,42,44)           138.9833         estimate D2E/DX2                !
 ! A261  A(20,42,61)           102.5236         estimate D2E/DX2                !
 ! A262  A(43,42,44)            78.4112         estimate D2E/DX2                !
 ! A263  A(43,42,61)           128.9327         estimate D2E/DX2                !
 ! A264  A(44,42,61)           117.9783         estimate D2E/DX2                !
 ! A265  A(6,43,42)             81.1974         estimate D2E/DX2                !
 ! A266  A(6,43,45)             85.4076         estimate D2E/DX2                !
 ! A267  A(42,43,45)            86.6673         estimate D2E/DX2                !
 ! A268  A(6,44,42)             81.1273         estimate D2E/DX2                !
 ! A269  A(6,44,45)             84.3174         estimate D2E/DX2                !
 ! A270  A(42,44,45)            86.7866         estimate D2E/DX2                !
 ! A271  A(3,45,43)             82.415          estimate D2E/DX2                !
 ! A272  A(3,45,44)            133.8077         estimate D2E/DX2                !
 ! A273  A(3,45,46)             84.6304         estimate D2E/DX2                !
 ! A274  A(3,45,47)            103.0668         estimate D2E/DX2                !
 ! A275  A(43,45,44)            79.2778         estimate D2E/DX2                !
 ! A276  A(43,45,46)           135.1357         estimate D2E/DX2                !
 ! A277  A(43,45,47)           117.6413         estimate D2E/DX2                !
 ! A278  A(44,45,46)            79.4121         estimate D2E/DX2                !
 ! A279  A(44,45,47)           123.0144         estimate D2E/DX2                !
 ! A280  A(46,45,47)           107.0969         estimate D2E/DX2                !
 ! A281  A(1,46,45)             81.7577         estimate D2E/DX2                !
 ! A282  A(1,46,48)             80.9018         estimate D2E/DX2                !
 ! A283  A(45,46,48)            81.4163         estimate D2E/DX2                !
 ! A284  A(45,47,65)            88.2293         estimate D2E/DX2                !
 ! A285  A(3,48,21)             92.1923         estimate D2E/DX2                !
 ! A286  A(3,48,23)             82.2207         estimate D2E/DX2                !
 ! A287  A(3,48,46)             83.1168         estimate D2E/DX2                !
 ! A288  A(3,48,49)            137.7685         estimate D2E/DX2                !
 ! A289  A(3,48,50)            122.4589         estimate D2E/DX2                !
 ! A290  A(21,48,46)            91.5884         estimate D2E/DX2                !
 ! A291  A(21,48,50)           132.301          estimate D2E/DX2                !
 ! A292  A(23,48,46)           137.4765         estimate D2E/DX2                !
 ! A293  A(23,48,49)            82.6178         estimate D2E/DX2                !
 ! A294  A(23,48,50)            99.8039         estimate D2E/DX2                !
 ! A295  A(46,48,49)            82.0195         estimate D2E/DX2                !
 ! A296  A(46,48,50)           121.634          estimate D2E/DX2                !
 ! A297  A(49,48,50)            98.8787         estimate D2E/DX2                !
 ! A298  A(14,51,22)            95.0491         estimate D2E/DX2                !
 ! A299  A(14,51,52)            90.7955         estimate D2E/DX2                !
 ! A300  A(14,51,60)           117.9049         estimate D2E/DX2                !
 ! A301  A(14,51,63)           133.9655         estimate D2E/DX2                !
 ! A302  A(22,51,52)           133.3129         estimate D2E/DX2                !
 ! A303  A(22,51,54)           147.6586         estimate D2E/DX2                !
 ! A304  A(22,51,60)            99.6978         estimate D2E/DX2                !
 ! A305  A(52,51,60)           118.0044         estimate D2E/DX2                !
 ! A306  A(52,51,63)            94.6898         estimate D2E/DX2                !
 ! A307  A(54,51,60)           100.7511         estimate D2E/DX2                !
 ! A308  A(54,51,63)           147.3238         estimate D2E/DX2                !
 ! A309  A(60,51,63)            99.388          estimate D2E/DX2                !
 ! A310  A(12,52,51)            81.1827         estimate D2E/DX2                !
 ! A311  A(12,52,54)            77.0542         estimate D2E/DX2                !
 ! A312  A(14,54,52)            85.1338         estimate D2E/DX2                !
 ! A313  A(14,54,53)           105.5488         estimate D2E/DX2                !
 ! A314  A(14,54,55)           143.0002         estimate D2E/DX2                !
 ! A315  A(14,54,56)            83.1348         estimate D2E/DX2                !
 ! A316  A(14,54,57)           133.5704         estimate D2E/DX2                !
 ! A317  A(51,54,53)            82.9117         estimate D2E/DX2                !
 ! A318  A(51,54,55)           131.6472         estimate D2E/DX2                !
 ! A319  A(51,54,56)           132.3676         estimate D2E/DX2                !
 ! A320  A(52,54,53)           104.823          estimate D2E/DX2                !
 ! A321  A(52,54,55)            82.3328         estimate D2E/DX2                !
 ! A322  A(52,54,56)           144.3535         estimate D2E/DX2                !
 ! A323  A(52,54,57)           132.3607         estimate D2E/DX2                !
 ! A324  A(53,54,55)           111.2839         estimate D2E/DX2                !
 ! A325  A(53,54,56)           110.7342         estimate D2E/DX2                !
 ! A326  A(53,54,57)            91.426          estimate D2E/DX2                !
 ! A327  A(55,54,56)            87.1147         estimate D2E/DX2                !
 ! A328  A(27,55,54)            77.3481         estimate D2E/DX2                !
 ! A329  A(27,55,57)            79.7861         estimate D2E/DX2                !
 ! A330  A(27,56,54)            77.5626         estimate D2E/DX2                !
 ! A331  A(27,56,57)            79.8057         estimate D2E/DX2                !
 ! A332  A(31,57,54)           149.5319         estimate D2E/DX2                !
 ! A333  A(31,57,55)           133.3678         estimate D2E/DX2                !
 ! A334  A(31,57,56)            96.676          estimate D2E/DX2                !
 ! A335  A(31,57,58)           101.4527         estimate D2E/DX2                !
 ! A336  A(54,57,58)            97.8163         estimate D2E/DX2                !
 ! A337  A(54,57,64)           145.5907         estimate D2E/DX2                !
 ! A338  A(55,57,56)            91.8953         estimate D2E/DX2                !
 ! A339  A(55,57,58)           115.3891         estimate D2E/DX2                !
 ! A340  A(55,57,64)            92.6176         estimate D2E/DX2                !
 ! A341  A(56,57,58)           116.2152         estimate D2E/DX2                !
 ! A342  A(56,57,64)           134.0396         estimate D2E/DX2                !
 ! A343  A(58,57,64)           102.7347         estimate D2E/DX2                !
 ! A344  A(42,61,65)            82.5539         estimate D2E/DX2                !
 ! A345  A(18,62,39)            88.2864         estimate D2E/DX2                !
 ! A346  A(21,63,51)            87.6195         estimate D2E/DX2                !
 ! A347  A(30,64,57)            87.8369         estimate D2E/DX2                !
 ! A348  A(47,65,61)           136.6911         estimate D2E/DX2                !
 ! A349  A(47,65,66)           120.6566         estimate D2E/DX2                !
 ! A350  A(61,65,66)            71.1668         estimate D2E/DX2                !
 ! A351  L(51,54,57,53,-1)     174.3377         estimate D2E/DX2                !
 ! A352  L(65,66,67,61,-1)     180.1308         estimate D2E/DX2                !
 ! A353  L(51,54,57,53,-2)     179.398          estimate D2E/DX2                !
 ! A354  L(65,66,67,61,-2)     176.8199         estimate D2E/DX2                !
 ! D1    D(3,1,2,12)           178.7986         estimate D2E/DX2                !
 ! D2    D(3,1,2,21)            94.6945         estimate D2E/DX2                !
 ! D3    D(4,1,2,12)           -27.0395         estimate D2E/DX2                !
 ! D4    D(4,1,2,21)          -111.1436         estimate D2E/DX2                !
 ! D5    D(5,1,2,12)            41.0738         estimate D2E/DX2                !
 ! D6    D(5,1,2,21)           -43.0302         estimate D2E/DX2                !
 ! D7    D(8,1,2,12)           -97.9387         estimate D2E/DX2                !
 ! D8    D(8,1,2,21)           177.9572         estimate D2E/DX2                !
 ! D9    D(46,1,2,12)          110.396          estimate D2E/DX2                !
 ! D10   D(46,1,2,21)           26.292          estimate D2E/DX2                !
 ! D11   D(2,1,3,45)          -176.9012         estimate D2E/DX2                !
 ! D12   D(2,1,3,48)           -94.6802         estimate D2E/DX2                !
 ! D13   D(4,1,3,45)            29.7775         estimate D2E/DX2                !
 ! D14   D(4,1,3,48)           111.9985         estimate D2E/DX2                !
 ! D15   D(5,1,3,45)          -108.1996         estimate D2E/DX2                !
 ! D16   D(5,1,3,48)           -25.9787         estimate D2E/DX2                !
 ! D17   D(8,1,3,45)           100.1342         estimate D2E/DX2                !
 ! D18   D(8,1,3,48)          -177.6449         estimate D2E/DX2                !
 ! D19   D(46,1,3,45)          -40.0646         estimate D2E/DX2                !
 ! D20   D(46,1,3,48)           42.1564         estimate D2E/DX2                !
 ! D21   D(2,1,4,6)           -112.5159         estimate D2E/DX2                !
 ! D22   D(2,1,4,9)            -29.6175         estimate D2E/DX2                !
 ! D23   D(3,1,4,6)             28.7685         estimate D2E/DX2                !
 ! D24   D(3,1,4,9)            111.6669         estimate D2E/DX2                !
 ! D25   D(5,1,4,6)           -179.9912         estimate D2E/DX2                !
 ! D26   D(5,1,4,9)            -97.0929         estimate D2E/DX2                !
 ! D27   D(8,1,4,6)            -41.6534         estimate D2E/DX2                !
 ! D28   D(8,1,4,9)             41.2449         estimate D2E/DX2                !
 ! D29   D(46,1,4,6)            96.9719         estimate D2E/DX2                !
 ! D30   D(46,1,4,9)           179.8702         estimate D2E/DX2                !
 ! D31   D(2,1,5,12)           -41.0878         estimate D2E/DX2                !
 ! D32   D(2,1,5,21)            42.9625         estimate D2E/DX2                !
 ! D33   D(3,1,5,12)          -110.8772         estimate D2E/DX2                !
 ! D34   D(3,1,5,21)           -26.8269         estimate D2E/DX2                !
 ! D35   D(4,1,5,12)            97.0084         estimate D2E/DX2                !
 ! D36   D(4,1,5,21)          -178.9413         estimate D2E/DX2                !
 ! D37   D(8,1,5,12)            26.9417         estimate D2E/DX2                !
 ! D38   D(8,1,5,21)           110.992          estimate D2E/DX2                !
 ! D39   D(46,1,5,12)         -177.9868         estimate D2E/DX2                !
 ! D40   D(46,1,5,21)          -93.9365         estimate D2E/DX2                !
 ! D41   D(2,1,8,6)            178.6504         estimate D2E/DX2                !
 ! D42   D(2,1,8,9)             95.9996         estimate D2E/DX2                !
 ! D43   D(3,1,8,6)            -97.4499         estimate D2E/DX2                !
 ! D44   D(3,1,8,9)            179.8994         estimate D2E/DX2                !
 ! D45   D(4,1,8,6)             41.4517         estimate D2E/DX2                !
 ! D46   D(4,1,8,9)            -41.1991         estimate D2E/DX2                !
 ! D47   D(5,1,8,6)            111.362          estimate D2E/DX2                !
 ! D48   D(5,1,8,9)             28.7112         estimate D2E/DX2                !
 ! D49   D(46,1,8,6)           -31.2831         estimate D2E/DX2                !
 ! D50   D(46,1,8,9)          -113.9338         estimate D2E/DX2                !
 ! D51   D(2,1,46,45)          109.7341         estimate D2E/DX2                !
 ! D52   D(2,1,46,48)           27.1769         estimate D2E/DX2                !
 ! D53   D(3,1,46,45)           39.9973         estimate D2E/DX2                !
 ! D54   D(3,1,46,48)          -42.5599         estimate D2E/DX2                !
 ! D55   D(4,1,46,45)          -99.2503         estimate D2E/DX2                !
 ! D56   D(4,1,46,48)          178.1924         estimate D2E/DX2                !
 ! D57   D(5,1,46,45)          178.2162         estimate D2E/DX2                !
 ! D58   D(5,1,46,48)           95.6589         estimate D2E/DX2                !
 ! D59   D(8,1,46,45)          -27.1868         estimate D2E/DX2                !
 ! D60   D(8,1,46,48)         -109.744          estimate D2E/DX2                !
 ! D61   D(1,2,12,5)           -41.1252         estimate D2E/DX2                !
 ! D62   D(1,2,12,11)           27.6867         estimate D2E/DX2                !
 ! D63   D(1,2,12,14)         -179.1742         estimate D2E/DX2                !
 ! D64   D(1,2,12,15)           96.6307         estimate D2E/DX2                !
 ! D65   D(1,2,12,52)         -108.7016         estimate D2E/DX2                !
 ! D66   D(21,2,12,5)           40.5202         estimate D2E/DX2                !
 ! D67   D(21,2,12,11)         109.3321         estimate D2E/DX2                !
 ! D68   D(21,2,12,14)         -97.5288         estimate D2E/DX2                !
 ! D69   D(21,2,12,15)         178.2761         estimate D2E/DX2                !
 ! D70   D(21,2,12,52)         -27.0562         estimate D2E/DX2                !
 ! D71   D(1,2,21,5)            43.5146         estimate D2E/DX2                !
 ! D72   D(1,2,21,22)          175.9413         estimate D2E/DX2                !
 ! D73   D(1,2,21,23)          -98.8382         estimate D2E/DX2                !
 ! D74   D(1,2,21,48)          -49.2081         estimate D2E/DX2                !
 ! D75   D(1,2,21,49)          -25.9901         estimate D2E/DX2                !
 ! D76   D(1,2,21,63)          136.416          estimate D2E/DX2                !
 ! D77   D(12,2,21,5)          -40.9123         estimate D2E/DX2                !
 ! D78   D(12,2,21,22)          91.5144         estimate D2E/DX2                !
 ! D79   D(12,2,21,23)         176.735          estimate D2E/DX2                !
 ! D80   D(12,2,21,48)        -133.635          estimate D2E/DX2                !
 ! D81   D(12,2,21,49)        -110.4169         estimate D2E/DX2                !
 ! D82   D(12,2,21,63)          51.9892         estimate D2E/DX2                !
 ! D83   D(1,3,45,43)          -95.007          estimate D2E/DX2                !
 ! D84   D(1,3,45,44)          -27.8253         estimate D2E/DX2                !
 ! D85   D(1,3,45,46)           41.9385         estimate D2E/DX2                !
 ! D86   D(1,3,45,47)          148.2773         estimate D2E/DX2                !
 ! D87   D(48,3,45,43)        -176.6361         estimate D2E/DX2                !
 ! D88   D(48,3,45,44)        -109.4545         estimate D2E/DX2                !
 ! D89   D(48,3,45,46)         -39.6907         estimate D2E/DX2                !
 ! D90   D(48,3,45,47)          66.6482         estimate D2E/DX2                !
 ! D91   D(1,3,48,21)           47.5236         estimate D2E/DX2                !
 ! D92   D(1,3,48,23)           96.16           estimate D2E/DX2                !
 ! D93   D(1,3,48,46)          -43.8126         estimate D2E/DX2                !
 ! D94   D(1,3,48,49)           26.2467         estimate D2E/DX2                !
 ! D95   D(1,3,48,50)         -167.1336         estimate D2E/DX2                !
 ! D96   D(45,3,48,21)         130.7145         estimate D2E/DX2                !
 ! D97   D(45,3,48,23)         179.3508         estimate D2E/DX2                !
 ! D98   D(45,3,48,46)          39.3782         estimate D2E/DX2                !
 ! D99   D(45,3,48,49)         109.4375         estimate D2E/DX2                !
 ! D100  D(45,3,48,50)         -83.9428         estimate D2E/DX2                !
 ! D101  D(1,4,6,7)            179.4707         estimate D2E/DX2                !
 ! D102  D(1,4,6,8)             41.4104         estimate D2E/DX2                !
 ! D103  D(1,4,6,16)           110.6335         estimate D2E/DX2                !
 ! D104  D(1,4,6,43)           -32.1974         estimate D2E/DX2                !
 ! D105  D(1,4,6,44)           -94.4815         estimate D2E/DX2                !
 ! D106  D(9,4,6,7)             96.3988         estimate D2E/DX2                !
 ! D107  D(9,4,6,8)            -41.6615         estimate D2E/DX2                !
 ! D108  D(9,4,6,16)            27.5616         estimate D2E/DX2                !
 ! D109  D(9,4,6,43)          -115.2694         estimate D2E/DX2                !
 ! D110  D(9,4,6,44)          -177.5535         estimate D2E/DX2                !
 ! D111  D(1,4,9,8)            -40.7669         estimate D2E/DX2                !
 ! D112  D(1,4,9,10)          -177.7551         estimate D2E/DX2                !
 ! D113  D(1,4,9,11)            97.3842         estimate D2E/DX2                !
 ! D114  D(1,4,9,15)            30.5688         estimate D2E/DX2                !
 ! D115  D(1,4,9,26)          -109.8641         estimate D2E/DX2                !
 ! D116  D(6,4,9,8)             41.4174         estimate D2E/DX2                !
 ! D117  D(6,4,9,10)           -95.5708         estimate D2E/DX2                !
 ! D118  D(6,4,9,11)           179.5684         estimate D2E/DX2                !
 ! D119  D(6,4,9,15)           112.753          estimate D2E/DX2                !
 ! D120  D(6,4,9,26)           -27.6799         estimate D2E/DX2                !
 ! D121  D(1,5,12,2)            41.2088         estimate D2E/DX2                !
 ! D122  D(1,5,12,11)          -95.7219         estimate D2E/DX2                !
 ! D123  D(1,5,12,14)          110.2904         estimate D2E/DX2                !
 ! D124  D(1,5,12,15)          -26.9145         estimate D2E/DX2                !
 ! D125  D(1,5,12,52)          179.2359         estimate D2E/DX2                !
 ! D126  D(21,5,12,2)          -40.4667         estimate D2E/DX2                !
 ! D127  D(21,5,12,11)        -177.3974         estimate D2E/DX2                !
 ! D128  D(21,5,12,14)          28.615          estimate D2E/DX2                !
 ! D129  D(21,5,12,15)        -108.59           estimate D2E/DX2                !
 ! D130  D(21,5,12,52)          97.5604         estimate D2E/DX2                !
 ! D131  D(1,5,21,2)           -43.613          estimate D2E/DX2                !
 ! D132  D(1,5,21,22)         -136.0863         estimate D2E/DX2                !
 ! D133  D(1,5,21,23)           24.8798         estimate D2E/DX2                !
 ! D134  D(1,5,21,48)           49.0381         estimate D2E/DX2                !
 ! D135  D(1,5,21,49)           99.1233         estimate D2E/DX2                !
 ! D136  D(1,5,21,63)         -176.0996         estimate D2E/DX2                !
 ! D137  D(12,5,21,2)           40.9417         estimate D2E/DX2                !
 ! D138  D(12,5,21,22)         -51.5316         estimate D2E/DX2                !
 ! D139  D(12,5,21,23)         109.4345         estimate D2E/DX2                !
 ! D140  D(12,5,21,48)         133.5928         estimate D2E/DX2                !
 ! D141  D(12,5,21,49)        -176.322          estimate D2E/DX2                !
 ! D142  D(12,5,21,63)         -91.5449         estimate D2E/DX2                !
 ! D143  D(4,6,7,13)           -97.5204         estimate D2E/DX2                !
 ! D144  D(4,6,7,18)           178.6186         estimate D2E/DX2                !
 ! D145  D(8,6,7,13)           -25.4464         estimate D2E/DX2                !
 ! D146  D(8,6,7,18)          -109.3074         estimate D2E/DX2                !
 ! D147  D(16,6,7,13)           41.5422         estimate D2E/DX2                !
 ! D148  D(16,6,7,18)          -42.3188         estimate D2E/DX2                !
 ! D149  D(43,6,7,13)          112.7535         estimate D2E/DX2                !
 ! D150  D(43,6,7,18)           28.8926         estimate D2E/DX2                !
 ! D151  D(44,6,7,13)         -179.1963         estimate D2E/DX2                !
 ! D152  D(44,6,7,18)           96.9427         estimate D2E/DX2                !
 ! D153  D(4,6,8,1)            -41.6739         estimate D2E/DX2                !
 ! D154  D(4,6,8,9)             41.6719         estimate D2E/DX2                !
 ! D155  D(7,6,8,1)           -114.3645         estimate D2E/DX2                !
 ! D156  D(7,6,8,9)            -31.0187         estimate D2E/DX2                !
 ! D157  D(16,6,8,1)           179.1894         estimate D2E/DX2                !
 ! D158  D(16,6,8,9)           -97.4649         estimate D2E/DX2                !
 ! D159  D(43,6,8,1)            95.2494         estimate D2E/DX2                !
 ! D160  D(43,6,8,9)           178.5951         estimate D2E/DX2                !
 ! D161  D(44,6,8,1)            28.5553         estimate D2E/DX2                !
 ! D162  D(44,6,8,9)           111.901          estimate D2E/DX2                !
 ! D163  D(4,6,16,13)           28.7559         estimate D2E/DX2                !
 ! D164  D(4,6,16,18)          112.8053         estimate D2E/DX2                !
 ! D165  D(7,6,16,13)          -41.4509         estimate D2E/DX2                !
 ! D166  D(7,6,16,18)           42.5985         estimate D2E/DX2                !
 ! D167  D(8,6,16,13)           98.197          estimate D2E/DX2                !
 ! D168  D(8,6,16,18)         -177.7535         estimate D2E/DX2                !
 ! D169  D(43,6,16,13)        -176.7694         estimate D2E/DX2                !
 ! D170  D(43,6,16,18)         -92.72           estimate D2E/DX2                !
 ! D171  D(44,6,16,13)        -113.4122         estimate D2E/DX2                !
 ! D172  D(44,6,16,18)         -29.3628         estimate D2E/DX2                !
 ! D173  D(4,6,43,42)         -109.3283         estimate D2E/DX2                !
 ! D174  D(4,6,43,45)          -21.998          estimate D2E/DX2                !
 ! D175  D(7,6,43,42)           25.6216         estimate D2E/DX2                !
 ! D176  D(7,6,43,45)          112.9519         estimate D2E/DX2                !
 ! D177  D(8,6,43,42)          177.825          estimate D2E/DX2                !
 ! D178  D(8,6,43,45)          -94.8447         estimate D2E/DX2                !
 ! D179  D(16,6,43,42)          95.5856         estimate D2E/DX2                !
 ! D180  D(16,6,43,45)        -177.0841         estimate D2E/DX2                !
 ! D181  D(44,6,43,42)         -45.6343         estimate D2E/DX2                !
 ! D182  D(44,6,43,45)          41.696          estimate D2E/DX2                !
 ! D183  D(4,6,44,42)         -173.6815         estimate D2E/DX2                !
 ! D184  D(4,6,44,45)           98.6958         estimate D2E/DX2                !
 ! D185  D(7,6,44,42)          -89.2182         estimate D2E/DX2                !
 ! D186  D(7,6,44,45)         -176.8409         estimate D2E/DX2                !
 ! D187  D(8,6,44,42)          115.6869         estimate D2E/DX2                !
 ! D188  D(8,6,44,45)           28.0642         estimate D2E/DX2                !
 ! D189  D(16,6,44,42)         -19.1271         estimate D2E/DX2                !
 ! D190  D(16,6,44,45)        -106.7498         estimate D2E/DX2                !
 ! D191  D(43,6,44,42)          46.2859         estimate D2E/DX2                !
 ! D192  D(43,6,44,45)         -41.3368         estimate D2E/DX2                !
 ! D193  D(6,7,13,10)           95.361          estimate D2E/DX2                !
 ! D194  D(6,7,13,16)          -41.736          estimate D2E/DX2                !
 ! D195  D(6,7,13,26)           26.8794         estimate D2E/DX2                !
 ! D196  D(6,7,13,37)          178.322          estimate D2E/DX2                !
 ! D197  D(6,7,13,38)         -111.2306         estimate D2E/DX2                !
 ! D198  D(18,7,13,10)         177.2831         estimate D2E/DX2                !
 ! D199  D(18,7,13,16)          40.1861         estimate D2E/DX2                !
 ! D200  D(18,7,13,26)         108.8014         estimate D2E/DX2                !
 ! D201  D(18,7,13,37)         -99.7559         estimate D2E/DX2                !
 ! D202  D(18,7,13,38)         -29.3085         estimate D2E/DX2                !
 ! D203  D(6,7,18,16)           43.1328         estimate D2E/DX2                !
 ! D204  D(6,7,18,19)          -98.5987         estimate D2E/DX2                !
 ! D205  D(6,7,18,20)          -30.5128         estimate D2E/DX2                !
 ! D206  D(6,7,18,40)          175.9238         estimate D2E/DX2                !
 ! D207  D(6,7,18,42)          -51.9933         estimate D2E/DX2                !
 ! D208  D(6,7,18,62)          133.9945         estimate D2E/DX2                !
 ! D209  D(13,7,18,16)         -40.752          estimate D2E/DX2                !
 ! D210  D(13,7,18,19)         177.5165         estimate D2E/DX2                !
 ! D211  D(13,7,18,20)        -114.3976         estimate D2E/DX2                !
 ! D212  D(13,7,18,40)          92.039          estimate D2E/DX2                !
 ! D213  D(13,7,18,42)        -135.8781         estimate D2E/DX2                !
 ! D214  D(13,7,18,62)          50.1097         estimate D2E/DX2                !
 ! D215  D(1,8,9,4)             41.0048         estimate D2E/DX2                !
 ! D216  D(1,8,9,10)           111.8679         estimate D2E/DX2                !
 ! D217  D(1,8,9,11)           -27.5935         estimate D2E/DX2                !
 ! D218  D(1,8,9,15)           -96.3805         estimate D2E/DX2                !
 ! D219  D(1,8,9,26)           179.3602         estimate D2E/DX2                !
 ! D220  D(6,8,9,4)            -41.2537         estimate D2E/DX2                !
 ! D221  D(6,8,9,10)            29.6095         estimate D2E/DX2                !
 ! D222  D(6,8,9,11)          -109.852          estimate D2E/DX2                !
 ! D223  D(6,8,9,15)          -178.639          estimate D2E/DX2                !
 ! D224  D(6,8,9,26)            97.1017         estimate D2E/DX2                !
 ! D225  D(4,9,10,13)           97.2056         estimate D2E/DX2                !
 ! D226  D(4,9,10,24)         -179.0047         estimate D2E/DX2                !
 ! D227  D(8,9,10,13)           26.8794         estimate D2E/DX2                !
 ! D228  D(8,9,10,24)          110.6691         estimate D2E/DX2                !
 ! D229  D(11,9,10,13)         179.2876         estimate D2E/DX2                !
 ! D230  D(11,9,10,24)         -96.9228         estimate D2E/DX2                !
 ! D231  D(15,9,10,13)        -111.3183         estimate D2E/DX2                !
 ! D232  D(15,9,10,24)         -27.5286         estimate D2E/DX2                !
 ! D233  D(26,9,10,13)         -41.317          estimate D2E/DX2                !
 ! D234  D(26,9,10,24)          42.4727         estimate D2E/DX2                !
 ! D235  D(4,9,11,12)          -97.5467         estimate D2E/DX2                !
 ! D236  D(4,9,11,27)         -179.9399         estimate D2E/DX2                !
 ! D237  D(8,9,11,12)          -28.9709         estimate D2E/DX2                !
 ! D238  D(8,9,11,27)         -111.3641         estimate D2E/DX2                !
 ! D239  D(10,9,11,12)         178.9451         estimate D2E/DX2                !
 ! D240  D(10,9,11,27)          96.5519         estimate D2E/DX2                !
 ! D241  D(15,9,11,12)          40.9969         estimate D2E/DX2                !
 ! D242  D(15,9,11,27)         -41.3963         estimate D2E/DX2                !
 ! D243  D(26,9,11,12)         110.3684         estimate D2E/DX2                !
 ! D244  D(26,9,11,27)          27.9751         estimate D2E/DX2                !
 ! D245  D(4,9,15,12)           26.206          estimate D2E/DX2                !
 ! D246  D(4,9,15,27)          108.6757         estimate D2E/DX2                !
 ! D247  D(8,9,15,12)           96.8148         estimate D2E/DX2                !
 ! D248  D(8,9,15,27)          179.2845         estimate D2E/DX2                !
 ! D249  D(10,9,15,12)        -111.9212         estimate D2E/DX2                !
 ! D250  D(10,9,15,27)         -29.4515         estimate D2E/DX2                !
 ! D251  D(11,9,15,12)         -41.0878         estimate D2E/DX2                !
 ! D252  D(11,9,15,27)          41.3819         estimate D2E/DX2                !
 ! D253  D(26,9,15,12)         179.3636         estimate D2E/DX2                !
 ! D254  D(26,9,15,27)         -98.1666         estimate D2E/DX2                !
 ! D255  D(4,9,26,13)          -27.9063         estimate D2E/DX2                !
 ! D256  D(4,9,26,24)         -111.3671         estimate D2E/DX2                !
 ! D257  D(8,9,26,13)          -96.8056         estimate D2E/DX2                !
 ! D258  D(8,9,26,24)          179.7337         estimate D2E/DX2                !
 ! D259  D(10,9,26,13)          40.9943         estimate D2E/DX2                !
 ! D260  D(10,9,26,24)         -42.4664         estimate D2E/DX2                !
 ! D261  D(11,9,26,13)         110.9929         estimate D2E/DX2                !
 ! D262  D(11,9,26,24)          27.5321         estimate D2E/DX2                !
 ! D263  D(15,9,26,13)         179.1608         estimate D2E/DX2                !
 ! D264  D(15,9,26,24)          95.7001         estimate D2E/DX2                !
 ! D265  D(9,10,13,7)          -96.4051         estimate D2E/DX2                !
 ! D266  D(9,10,13,16)         -27.3526         estimate D2E/DX2                !
 ! D267  D(9,10,13,26)          41.2596         estimate D2E/DX2                !
 ! D268  D(9,10,13,37)         179.9026         estimate D2E/DX2                !
 ! D269  D(9,10,13,38)         110.6492         estimate D2E/DX2                !
 ! D270  D(24,10,13,7)        -178.6615         estimate D2E/DX2                !
 ! D271  D(24,10,13,16)       -109.6089         estimate D2E/DX2                !
 ! D272  D(24,10,13,26)        -40.9968         estimate D2E/DX2                !
 ! D273  D(24,10,13,37)         97.6463         estimate D2E/DX2                !
 ! D274  D(24,10,13,38)         28.3928         estimate D2E/DX2                !
 ! D275  D(9,10,24,17)        -112.1306         estimate D2E/DX2                !
 ! D276  D(9,10,24,25)         179.8614         estimate D2E/DX2                !
 ! D277  D(9,10,24,26)         -42.9036         estimate D2E/DX2                !
 ! D278  D(9,10,24,28)          95.6697         estimate D2E/DX2                !
 ! D279  D(9,10,24,29)          30.041          estimate D2E/DX2                !
 ! D280  D(13,10,24,17)        -27.7634         estimate D2E/DX2                !
 ! D281  D(13,10,24,25)        -95.7715         estimate D2E/DX2                !
 ! D282  D(13,10,24,26)         41.4635         estimate D2E/DX2                !
 ! D283  D(13,10,24,28)       -179.9632         estimate D2E/DX2                !
 ! D284  D(13,10,24,29)        114.4081         estimate D2E/DX2                !
 ! D285  D(9,11,12,2)           27.7439         estimate D2E/DX2                !
 ! D286  D(9,11,12,5)           96.028          estimate D2E/DX2                !
 ! D287  D(9,11,12,14)        -111.1481         estimate D2E/DX2                !
 ! D288  D(9,11,12,15)         -41.4085         estimate D2E/DX2                !
 ! D289  D(9,11,12,52)         178.0076         estimate D2E/DX2                !
 ! D290  D(27,11,12,2)         111.6643         estimate D2E/DX2                !
 ! D291  D(27,11,12,5)         179.9484         estimate D2E/DX2                !
 ! D292  D(27,11,12,14)        -27.2277         estimate D2E/DX2                !
 ! D293  D(27,11,12,15)         42.5119         estimate D2E/DX2                !
 ! D294  D(27,11,12,52)        -98.072          estimate D2E/DX2                !
 ! D295  D(9,11,27,15)          41.6934         estimate D2E/DX2                !
 ! D296  D(9,11,27,28)         -94.4315         estimate D2E/DX2                !
 ! D297  D(9,11,27,29)         -27.0663         estimate D2E/DX2                !
 ! D298  D(9,11,27,55)        -179.2234         estimate D2E/DX2                !
 ! D299  D(9,11,27,56)         112.6153         estimate D2E/DX2                !
 ! D300  D(12,11,27,15)        -42.3887         estimate D2E/DX2                !
 ! D301  D(12,11,27,28)       -178.5137         estimate D2E/DX2                !
 ! D302  D(12,11,27,29)       -111.1484         estimate D2E/DX2                !
 ! D303  D(12,11,27,55)         96.6945         estimate D2E/DX2                !
 ! D304  D(12,11,27,56)         28.5332         estimate D2E/DX2                !
 ! D305  D(2,12,14,51)         102.0029         estimate D2E/DX2                !
 ! D306  D(2,12,14,54)        -178.8848         estimate D2E/DX2                !
 ! D307  D(5,12,14,51)          33.6851         estimate D2E/DX2                !
 ! D308  D(5,12,14,54)         112.7975         estimate D2E/DX2                !
 ! D309  D(11,12,14,51)       -106.7332         estimate D2E/DX2                !
 ! D310  D(11,12,14,54)        -27.6208         estimate D2E/DX2                !
 ! D311  D(15,12,14,51)       -175.6742         estimate D2E/DX2                !
 ! D312  D(15,12,14,54)        -96.5618         estimate D2E/DX2                !
 ! D313  D(52,12,14,51)        -35.0743         estimate D2E/DX2                !
 ! D314  D(52,12,14,54)         44.0381         estimate D2E/DX2                !
 ! D315  D(2,12,15,9)          -95.4664         estimate D2E/DX2                !
 ! D316  D(2,12,15,27)        -179.2544         estimate D2E/DX2                !
 ! D317  D(5,12,15,9)          -27.7797         estimate D2E/DX2                !
 ! D318  D(5,12,15,27)        -111.5677         estimate D2E/DX2                !
 ! D319  D(11,12,15,9)          41.3134         estimate D2E/DX2                !
 ! D320  D(11,12,15,27)        -42.4746         estimate D2E/DX2                !
 ! D321  D(14,12,15,9)        -178.7441         estimate D2E/DX2                !
 ! D322  D(14,12,15,27)         97.4679         estimate D2E/DX2                !
 ! D323  D(52,12,15,9)         111.6906         estimate D2E/DX2                !
 ! D324  D(52,12,15,27)         27.9026         estimate D2E/DX2                !
 ! D325  D(2,12,52,51)         -35.6607         estimate D2E/DX2                !
 ! D326  D(2,12,52,54)        -114.847          estimate D2E/DX2                !
 ! D327  D(5,12,52,51)        -102.9249         estimate D2E/DX2                !
 ! D328  D(5,12,52,54)         177.8888         estimate D2E/DX2                !
 ! D329  D(11,12,52,51)        174.5245         estimate D2E/DX2                !
 ! D330  D(11,12,52,54)         95.3383         estimate D2E/DX2                !
 ! D331  D(14,12,52,51)         35.0846         estimate D2E/DX2                !
 ! D332  D(14,12,52,54)        -44.1016         estimate D2E/DX2                !
 ! D333  D(15,12,52,51)        105.1856         estimate D2E/DX2                !
 ! D334  D(15,12,52,54)         25.9994         estimate D2E/DX2                !
 ! D335  D(7,13,16,6)           41.7721         estimate D2E/DX2                !
 ! D336  D(7,13,16,18)         -40.4659         estimate D2E/DX2                !
 ! D337  D(10,13,16,6)         -27.7566         estimate D2E/DX2                !
 ! D338  D(10,13,16,18)       -109.9946         estimate D2E/DX2                !
 ! D339  D(26,13,16,6)         -95.9834         estimate D2E/DX2                !
 ! D340  D(26,13,16,18)       -178.2214         estimate D2E/DX2                !
 ! D341  D(37,13,16,6)         110.7098         estimate D2E/DX2                !
 ! D342  D(37,13,16,18)         28.4718         estimate D2E/DX2                !
 ! D343  D(38,13,16,6)        -179.8928         estimate D2E/DX2                !
 ! D344  D(38,13,16,18)         97.8691         estimate D2E/DX2                !
 ! D345  D(7,13,26,9)           27.5632         estimate D2E/DX2                !
 ! D346  D(7,13,26,24)         110.0941         estimate D2E/DX2                !
 ! D347  D(10,13,26,9)         -41.4762         estimate D2E/DX2                !
 ! D348  D(10,13,26,24)         41.0547         estimate D2E/DX2                !
 ! D349  D(16,13,26,9)          95.8855         estimate D2E/DX2                !
 ! D350  D(16,13,26,24)        178.4164         estimate D2E/DX2                !
 ! D351  D(37,13,26,9)        -110.0298         estimate D2E/DX2                !
 ! D352  D(37,13,26,24)        -27.4989         estimate D2E/DX2                !
 ! D353  D(38,13,26,9)         179.3048         estimate D2E/DX2                !
 ! D354  D(38,13,26,24)        -98.1643         estimate D2E/DX2                !
 ! D355  D(7,13,37,36)         178.2089         estimate D2E/DX2                !
 ! D356  D(7,13,37,39)         101.4936         estimate D2E/DX2                !
 ! D357  D(10,13,37,36)        -98.8482         estimate D2E/DX2                !
 ! D358  D(10,13,37,39)       -175.5635         estimate D2E/DX2                !
 ! D359  D(16,13,37,36)        109.9543         estimate D2E/DX2                !
 ! D360  D(16,13,37,39)         33.239          estimate D2E/DX2                !
 ! D361  D(26,13,37,36)        -30.8444         estimate D2E/DX2                !
 ! D362  D(26,13,37,39)       -107.5597         estimate D2E/DX2                !
 ! D363  D(38,13,37,36)         40.2783         estimate D2E/DX2                !
 ! D364  D(38,13,37,39)        -36.437          estimate D2E/DX2                !
 ! D365  D(7,13,38,36)        -111.1656         estimate D2E/DX2                !
 ! D366  D(7,13,38,39)         -34.1211         estimate D2E/DX2                !
 ! D367  D(10,13,38,36)         29.03           estimate D2E/DX2                !
 ! D368  D(10,13,38,39)        106.0745         estimate D2E/DX2                !
 ! D369  D(16,13,38,36)        179.9721         estimate D2E/DX2                !
 ! D370  D(16,13,38,39)       -102.9834         estimate D2E/DX2                !
 ! D371  D(26,13,38,36)         97.5575         estimate D2E/DX2                !
 ! D372  D(26,13,38,39)        174.602          estimate D2E/DX2                !
 ! D373  D(37,13,38,36)        -40.3446         estimate D2E/DX2                !
 ! D374  D(37,13,38,39)         36.6999         estimate D2E/DX2                !
 ! D375  D(12,14,51,22)        -95.3736         estimate D2E/DX2                !
 ! D376  D(12,14,51,52)         38.2524         estimate D2E/DX2                !
 ! D377  D(12,14,51,60)        160.8492         estimate D2E/DX2                !
 ! D378  D(12,14,51,63)        -59.0438         estimate D2E/DX2                !
 ! D379  D(12,14,54,52)        -45.5987         estimate D2E/DX2                !
 ! D380  D(12,14,54,53)       -149.6521         estimate D2E/DX2                !
 ! D381  D(12,14,54,55)         24.7997         estimate D2E/DX2                !
 ! D382  D(12,14,54,56)        100.6758         estimate D2E/DX2                !
 ! D383  D(12,14,54,57)        102.8696         estimate D2E/DX2                !
 ! D384  D(9,15,27,11)         -41.6104         estimate D2E/DX2                !
 ! D385  D(9,15,27,28)          26.9763         estimate D2E/DX2                !
 ! D386  D(9,15,27,29)          96.3689         estimate D2E/DX2                !
 ! D387  D(9,15,27,55)        -108.9885         estimate D2E/DX2                !
 ! D388  D(9,15,27,56)         179.4265         estimate D2E/DX2                !
 ! D389  D(12,15,27,11)         42.4751         estimate D2E/DX2                !
 ! D390  D(12,15,27,28)        111.0618         estimate D2E/DX2                !
 ! D391  D(12,15,27,29)       -179.5456         estimate D2E/DX2                !
 ! D392  D(12,15,27,55)        -24.903          estimate D2E/DX2                !
 ! D393  D(12,15,27,56)        -96.488          estimate D2E/DX2                !
 ! D394  D(6,16,18,7)          -43.1157         estimate D2E/DX2                !
 ! D395  D(6,16,18,19)          20.7756         estimate D2E/DX2                !
 ! D396  D(6,16,18,20)          98.352          estimate D2E/DX2                !
 ! D397  D(6,16,18,40)        -136.3709         estimate D2E/DX2                !
 ! D398  D(6,16,18,42)          47.2731         estimate D2E/DX2                !
[...]
 00184062,0.00065171,0.02201992,-0.08481939,0.02486187,0.00127871,-0.00
 012407,-0.00022099,-0.00018475,0.00032481,0.00017209,-0.00084682,-0.00
 005582,0.00086237,0.00027894,-0.00014054,0.00021220,-0.00000832,0.0002
 3653,-0.00008233,0.00025691,0.00000761,-0.00005647,-0.00042385,-0.0000
 9251,0.00016547,0.00000935,0.00005493,0.00001646,0.00001641,-0.0000733
 5,-0.00004373,0.00010320,0.00014439,-0.00017146,0.00001765,0.00000389,
 -0.00000921,-0.00000799,0.00005426,-0.00005876,-0.00007281,-0.00002359
 ,0.00002457,-0.01527332,-0.01338562,-0.01116101,0.00032106,-0.00049631
 ,-0.00072683,-0.00012175,-0.00002232,0.00000843,-0.00000195,0.00000497
 ,-0.00000972,0.01916699,0.19667109,-0.00054261,-0.00117386,0.00036968,
 -0.00004575,0.00008631,0.00029588,0.00029184,-0.00036449,-0.00031199,-
 0.00014827,-0.00006151,-0.00014819,0.00025575,0.00015667,-0.00005253,-
 0.00049995,-0.00360786,-0.00213458,-0.00029700,0.00176543,0.00133891,-
 0.00009079,0.00012264,0.00066366,-0.00022637,0.00009199,-0.00013777,-0
 .00008503,-0.00005776,0.00001738,0.00001903,0.00000731,0.00001550,0.00
 015556,0.00002249,-0.00024488,0.00117475,0.00001267,0.00009032,-0.0000
 1861,-0.00002146,-0.00008293,-0.00000539,-0.00006939,0.00010370,-0.000
 90172,-0.00088169,0.00001637,-0.00000554,0.00001855,-0.00002175,-0.003
 23449,-0.00620239,-0.00358500,-0.00319866,0.00004142,-0.00881394,0.001
 92014,0.00134563,0.00671798,-0.00011524,-0.00022049,-0.00008977,-0.000
 02207,-0.00003069,-0.00002001,-0.00001624,0.00002000,0.00004261,0.0000
 0443,-0.00000132,0.00011435,0.00002310,-0.00003544,-0.00002632,0.00014
 948,0.00015561,-0.00013987,-0.00002387,0.00006575,-0.00011151,0.000001
 98,0.00000461,-0.00000443,-0.00001459,-0.00002609,0.00000961,0.0000206
 4,-0.00002020,0.00005167,-0.00000559,0.00002649,-0.00000801,-0.0000087
 7,0.00000169,-0.00002229,0.00000439,-0.00003588,0.00009074,-0.00002513
 ,0.00000954,-0.00003406,-0.00001616,0.00004213,-0.00006234,-0.00001850
 ,0.00003171,0.00009050,-0.00003204,0.00006065,0.00016730,0.00002102,-0
 .00013376,0.00000157,-0.00032751,-0.00026824,0.00011294,0.00058386,0.0
 0006626,-0.00036681,-0.00005815,0.00010811,-0.00011777,-0.00314509,0.0
 1323409,-0.07252185,0.00917250,0.01108050,-0.00507608,0.00298248,0.002
 61531,-0.00247861,0.00898898,-0.01445510,0.00176103,0.00043178,0.00154
 108,0.00110004,-0.00362665,0.01603812,-0.01949723,0.00079697,-0.000384
 64,0.00062919,0.00036831,0.00003938,-0.00012896,-0.00014020,0.00002882
 ,0.00016296,-0.00006878,-0.00004057,0.00010664,-0.00005253,0.00004796,
 0.00006697,0.00010029,-0.00004376,0.00004278,-0.00009316,0.00014071,-0
 .00015679,0.00000130,-0.00001049,0.00003950,0.00000727,0.00000008,0.00
 001653,-0.00007744,-0.00002848,0.00003013,0.00005941,-0.00001487,0.000
 00920,-0.00000960,0.00005181,-0.00006761,0.00009741,-0.00004437,0.0000
 4530,-0.03945418,-0.02283006,-0.04029859,-0.00063562,0.00038843,0.0000
 1337,0.00002236,-0.00005321,-0.00006076,-0.00000417,-0.00000171,-0.000
 00940,0.00563782,-0.01640150,0.18376944,0.00054763,-0.00005754,-0.0000
 7145,-0.00001413,0.00001608,0.00005145,-0.00007473,0.00034695,-0.00037
 528,-0.00005788,0.00007420,0.00010927,-0.00006561,-0.00011156,0.000053
 73,-0.00052584,-0.00268143,-0.00009680,-0.00036395,0.00025631,0.000307
 82,-0.00026520,-0.00028044,0.00017853,0.00007505,0.00013503,-0.0002724
 7,-0.00003635,-0.00000943,0.00009073,-0.00008962,-0.00000780,0.0001334
 5,0.00042395,0.00008660,-0.00017456,0.00007705,0.00021136,-0.00016625,
 -0.00006679,-0.00008861,-0.00011178,-0.00009145,-0.00009246,0.00006625
 ,-0.00013195,0.00018507,0.00038574,0.00003787,-0.00000967,-0.00001112,
 0.00080024,0.00020601,-0.00153277,-0.00105241,-0.00055683,0.00009909,-
 0.00022986,0.00096736,0.00029384,-0.00029061,0.00001205,-0.00005305,0.
 00008790,0.00002812,0.00000396,0.00024507,-0.00013500,-0.00000772,-0.0
 0001983,0.00006934,-0.00013199,-0.00003848,0.00004341,0.00003008,-0.00
 009836,-0.00010020,0.00005972,0.00022813,0.00011325,-0.00017569,-0.000
 02587,-0.00002129,0.00008823,-0.00001104,-0.00007673,0.00007495,0.0000
 0194,0.00010018,0.00006432,-0.00002630,0.00004596,-0.00001361,0.000086
 02,0.00003970,0.00008577,-0.00007432,-0.00031940,0.00014798,-0.0000324
 9,0.00002622,-0.00013943,-0.00006136,0.00016219,-0.00023050,0.00008912
 ,-0.00016294,0.00018927,-0.00002798,0.00002777,-0.00006123,-0.00008295
 ,-0.00004886,-0.00001196,0.00013644,-0.00024397,0.00035246,-0.00013107
 ,-0.00002564,-0.00014284,-0.00017626,0.00026434,-0.00034949,0.00758010
 ,-0.00032479,0.00836719,-0.00528436,-0.00247247,0.00964584,0.00073382,
 0.00057916,-0.00080004,0.00127215,0.00435711,0.00285084,-0.00001480,-0
 .00107496,-0.00107106,-0.01339589,0.00500656,0.00196837,0.00042620,0.0
 0010510,-0.00014260,0.00008957,0.00020938,0.00016794,-0.00055544,-0.00
 040793,0.00072274,-0.00023383,-0.00009226,0.00018488,-0.00003500,0.000
 14664,0.00005285,0.00037158,-0.00008933,0.00006770,-0.00044759,0.00022
 763,-0.00024647,-0.00004021,0.00001353,0.00008820,-0.00003948,-0.00009
 547,0.00003143,-0.00017268,0.00002837,0.00000136,0.00024655,-0.0000358
 3,0.00000715,-0.00004169,0.00021911,-0.00026696,0.00033562,-0.00013620
 ,0.00013324,0.00148641,0.00025999,-0.00182189,0.00017308,0.00023279,0.
 00002290,0.00006448,-0.00003618,-0.00001618,-0.00002262,-0.00001804,-0
 .00005024,-0.05350106,-0.01414265,-0.01404649,0.64899450,0.00066782,0.
 00015889,-0.00012840,0.00002148,-0.00002156,-0.00000709,-0.00008193,0.
 00057912,-0.00076935,-0.00018565,0.00000980,-0.00000546,0.00003076,-0.
 00004131,0.00008222,0.00008655,-0.00106145,0.00156750,0.00010897,0.000
 73398,0.00090276,-0.00005207,-0.00037810,-0.00011791,0.00001222,0.0001
 8523,-0.00005226,-0.00000657,-0.00006587,0.00007156,-0.00000699,-0.000
 00657,0.00004580,0.00016272,0.00000679,-0.00002323,0.00017390,0.000365
 93,-0.00037906,-0.00000562,-0.00003366,-0.00003995,-0.00006779,-0.0000
 8067,0.00004132,-0.00033756,-0.00116717,-0.00022023,0.00000269,-0.0000
 0853,-0.00003132,-0.00144883,0.00086284,-0.00303897,0.00124911,-0.0012
 2079,-0.00113202,0.00156686,0.00035295,0.00157617,-0.00016655,0.000063
 27,0.00003186,0.00002319,0.00000277,-0.00001057,0.00013925,0.00015455,
 0.00000902,-0.00003363,0.00000782,-0.00002157,-0.00000468,0.00002339,0
 .00000149,-0.00005372,-0.00011992,0.00004341,0.00011279,0.00005248,-0.
 00012067,0.00000136,-0.00000119,0.00003934,-0.00000660,-0.00003761,0.0
 0002812,-0.00000234,0.00002539,0.00004531,-0.00001165,0.00002752,-0.00
 000946,0.00002243,0.00001636,0.00001760,0.00000659,-0.00011238,0.00007
 650,-0.00001986,0.00001099,-0.00006561,-0.00002124,0.00006791,-0.00007
 956,-0.00002627,-0.00006043,0.00009876,0.00000621,-0.00000461,0.000134
 07,0.00001391,-0.00007343,0.00000381,-0.00001101,-0.00027136,0.0002816
 4,-0.00016766,-0.00009247,-0.00009605,-0.00009514,0.00016734,-0.000215
 55,-0.00204448,0.00349742,0.00675935,0.00159528,0.01102450,0.00128906,
 0.00102257,0.00074941,-0.00025394,-0.00792051,0.00290610,0.00524370,-0
 .00015962,-0.00024460,-0.00082126,0.01013050,-0.00388283,-0.00389372,0
 .00018882,0.00080036,-0.00078730,-0.00010661,-0.00000019,0.00003049,-0
 .00059351,-0.00042694,0.00067290,-0.00014341,-0.00000906,0.00005741,-0
 .00000972,0.00003606,0.00001747,0.00016544,-0.00003528,0.00002464,-0.0
 0018274,0.00009063,-0.00010111,-0.00002040,0.00000771,0.00004300,-0.00
 002452,-0.00002844,0.00001472,-0.00007348,-0.00000190,0.00000654,0.000
 10475,-0.00001583,0.00000272,-0.00001823,0.00008933,-0.00010732,0.0001
 5052,-0.00005335,0.00005197,0.00097079,0.00004717,-0.00188671,0.000022
 47,0.00001398,0.00011810,0.00002097,-0.00000253,0.00000750,-0.00000886
 ,-0.00000686,-0.00001963,-0.01636603,-0.06347885,0.00434824,0.24575837
 ,0.18448929,0.00062679,0.00072675,-0.00051706,-0.00007936,-0.00006013,
 -0.00008786,0.00012583,0.00021552,0.00042367,0.00019315,0.00006624,0.0
 0004960,-0.00005419,0.00003477,-0.00000346,-0.00050801,0.00214291,0.00
 174537,-0.00018299,-0.00076449,-0.00091135,0.00029911,-0.00000501,-0.0
 0031607,-0.00012020,-0.00010045,0.00012518,0.00004058,0.00007502,-0.00
 005153,0.00001735,-0.00000728,-0.00006655,-0.00026940,-0.00006297,0.00
 018621,-0.00072775,-0.00019075,0.00018705,0.00006530,0.00007398,0.0001
 5573,0.00005666,0.00006877,-0.00005729,0.00063586,0.00095444,-0.000204
 66,-0.00003597,0.00000512,-0.00002046,0.00119119,0.00147524,0.00194957
 ,-0.00067923,0.00177573,0.00146420,-0.00031044,0.00050086,-0.00331946,
 0.00032597,0.00005110,-0.00020402,-0.00002664,-0.00000378,0.00001996,-
 0.00038511,-0.00012686,-0.00006498,0.00000963,-0.00008660,0.00006935,0
 .00003004,0.00000510,-0.00003524,-0.00004656,-0.00001605,0.00002620,-0
 .00016230,-0.00009679,0.00017039,-0.00000565,0.00002396,-0.00005115,-0
 .00000580,0.00005605,-0.00005031,0.00003059,-0.00008229,-0.00007072,0.
 00003385,-0.00004541,0.00002444,-0.00010670,-0.00003493,-0.00008757,0.
 00012002,0.00029357,-0.00009814,0.00002627,-0.00004202,0.00011691,0.00
 005555,-0.00013207,0.00018162,-0.00015249,0.00008045,-0.00010072,-0.00
 001828,0.00001659,-0.00009529,0.00000594,0.00006345,-0.00002653,0.0001
 9067,0.00034136,-0.00048298,0.00022085,-0.00021160,0.00003591,0.000152
 80,-0.00028171,0.00037512,0.00260484,-0.00761803,0.00599622,0.01275372
 ,0.00577431,-0.00917844,-0.00059762,-0.00024438,0.00030378,0.00358633,
 -0.00575878,-0.00031975,0.00041480,0.00070969,0.00025696,0.00569510,-0
 .00020120,-0.00152343,-0.00111260,0.00012886,0.00015479,-0.00011548,-0
 .00015008,-0.00008845,0.00058817,0.00037813,-0.00075479,0.00014776,0.0
 0012357,-0.00023886,0.00003978,-0.00017745,-0.00003172,-0.00039361,0.0
 0007317,-0.00004126,0.00047602,-0.00018728,0.00018708,0.00003749,-0.00
 002404,-0.00008935,0.00003627,0.00008721,-0.00002054,0.00009227,-0.000
 04259,0.00003554,-0.00019022,0.00002971,-0.00000593,0.00003686,-0.0001
 8242,0.00021908,-0.00025812,0.00011303,-0.00011292,-0.00332615,0.00285
 935,-0.01890915,0.00005761,0.00001375,0.00021271,-0.00002700,0.0000405
 1,0.00000234,0.00002483,0.00000684,0.00004571,-0.01654276,0.00512771,-
 0.02224554,-0.49732148,-0.22040417,0.52451361,-0.00017650,0.00008159,-
 0.00012027,-0.00000947,-0.00002490,0.00000109,0.00008091,-0.00005643,0
 .00022973,0.00004061,-0.00003413,-0.00000676,0.00002168,0.00001927,0.0
 0000589,0.00013029,0.00060136,-0.00042115,0.00029215,-0.00001014,0.000
 02168,0.00011750,0.00010448,-0.00001795,-0.00012057,0.00000587,0.00009
 738,0.00006189,-0.00000124,-0.00005661,0.00005266,-0.00002205,-0.00005
 913,-0.00024997,0.00001436,0.00004061,-0.00026124,-0.00011010,0.000190
 50,0.00003598,0.00004939,0.00010143,0.00007300,0.00003291,-0.00002303,
 0.00012515,-0.00014198,-0.00024173,-0.00004954,0.00000844,-0.00001243,
 -0.00099844,-0.00001269,0.00076347,0.00041340,0.00011390,-0.00025685,0
 .00025997,0.00010906,-0.00039688,0.00013814,0.00003379,0.00004310,-0.0
 0003695,-0.00002326,-0.00001201,-0.00011567,-0.00001781,-0.00006568,-0
 .00002341,-0.00006216,0.00010597,0.00002537,-0.00001177,-0.00003291,0.
 00009097,0.00005283,-0.00005920,-0.00018300,-0.00002754,0.00007592,0.0
 0001990,0.00001331,-0.00004740,0.00000859,0.00003304,-0.00004540,0.000
 02175,-0.00007684,-0.00003006,0.00001156,-0.00003040,0.00000577,-0.000
 10446,-0.00003113,-0.00008999,0.00015279,0.00026676,-0.00010214,0.0000
 0942,-0.00002762,0.00008809,0.00004925,-0.00012550,0.00017428,-0.00012
 379,0.00009172,-0.00010050,0.00004062,-0.00001720,-0.00000200,0.000034
 90,0.00004129,-0.00001018,-0.00003137,0.00023783,-0.00032439,0.0000824
 5,-0.00010043,0.00002123,0.00014158,-0.00022488,0.00030300,-0.00282623
 ,-0.00097780,-0.00074345,-0.00026219,0.00013672,-0.00135764,-0.0003193
 7,-0.00054385,-0.00013661,-0.00021633,-0.00292022,-0.00029177,-0.00005
 050,0.00048530,0.00038396,0.00476404,-0.00098857,-0.00143146,-0.000501
 60,-0.00012735,0.00033270,-0.00006407,-0.00006590,-0.00007283,0.000422
 74,0.00032492,-0.00057271,0.00013561,0.00005042,-0.00011377,0.00001299
 ,-0.00011698,-0.00002069,-0.00030136,0.00004712,-0.00001769,0.00038185
 ,-0.00010503,0.00008423,0.00002568,-0.00003004,-0.00006111,0.00002657,
 0.00007001,-0.00000391,0.00010831,-0.00004849,0.00004078,-0.00018242,0
 .00002348,0.00000061,0.00002804,-0.00016029,0.00019480,-0.00020761,0.0
 0008805,-0.00008539,-0.00037323,0.00006926,-0.00278324,-0.00001750,-0.
 00002729,0.00009300,-0.00001707,0.00003389,0.00001691,0.00000801,0.000
 01610,0.00003113,-0.01520578,-0.00997192,0.03804508,-0.58666314,-0.234
 05379,0.49271630,0.60124649,-0.00026555,-0.00002159,-0.00000201,-0.000
 00493,-0.00000777,0.00000102,0.00008909,-0.00017902,0.00026636,0.00006
 894,-0.00001056,0.00001363,-0.00000446,0.00001499,-0.00001511,-0.00017
 260,0.00019450,-0.00053174,0.00000141,-0.00022374,-0.00028648,0.000045
 82,0.00013318,0.00005187,-0.00004071,-0.00004246,0.00001944,0.00002259
 ,0.00002435,-0.00003219,0.00001248,-0.00000255,-0.00002110,-0.00009479
 ,0.00000771,0.00001841,-0.00014861,-0.00015099,0.00017513,0.00001118,0
 .00002102,0.00003382,0.00003738,0.00002863,-0.00001519,0.00016233,0.00
 042816,0.00005353,-0.00001575,0.00000398,0.00000541,0.00032788,-0.0001
 5477,0.00118957,-0.00037559,0.00022518,0.00043757,-0.00038076,0.000032
 49,-0.00070545,0.00006875,-0.00001854,-0.00000167,-0.00001564,-0.00000
 717,-0.00000226,-0.00005903,-0.00004984,-0.00001184,0.00000557,-0.0000
 1356,0.00002586,0.00000533,-0.00000586,-0.00000748,0.00003707,0.000043
 86,-0.00002622,-0.00007533,-0.00001622,0.00004617,0.00000577,0.0000031
 7,-0.00001997,0.00000579,0.00001516,-0.00001703,0.00000412,-0.00002354
 ,-0.00002061,0.00000329,-0.00001484,0.00000229,-0.00003607,-0.00001103
 ,-0.00002825,0.00005238,0.00009690,-0.00004916,0.00000659,-0.00001039,
 0.00003699,0.00001785,-0.00005092,0.00006368,-0.00003223,0.00003475,-0
 .00004968,0.00001018,-0.00000127,-0.00005743,-0.00000726,0.00003165,-0
 .00000566,0.00002541,0.00015796,-0.00017952,0.00001508,-0.00002343,0.0
 0003059,0.00006547,-0.00010749,0.00014257,-0.00001577,-0.00129595,-0.0
 0142717,-0.00085878,-0.00366032,-0.00013718,-0.00027523,-0.00027417,0.
 00000901,0.00248869,-0.00119725,-0.00111971,0.00008941,0.00002030,0.00
 021852,-0.00111187,0.00052066,0.00011322,-0.00021351,-0.00019378,0.000
 28779,0.00001020,-0.00000557,-0.00001731,0.00026619,0.00019398,-0.0003
 3122,0.00007602,0.00001026,-0.00003656,0.00000715,-0.00003721,-0.00000
 961,-0.00011475,0.00002176,-0.00001267,0.00013657,-0.00004757,0.000045
 95,0.00000933,-0.00000915,-0.00002456,0.00001095,0.00002171,-0.0000040
 3,0.00005445,-0.00001111,0.00000719,-0.00007626,0.00001040,-0.00000039
 ,0.00001095,-0.00006365,0.00007723,-0.00009465,0.00003593,-0.00003548,
 -0.00023495,-0.00005394,-0.00056055,0.00004617,0.00001152,0.00000544,-
 0.00001149,0.00001099,0.00000369,0.00000221,0.00000716,0.00001182,-0.0
 1104539,0.01637394,0.01370306,-0.23660532,-0.13458154,0.21282880,0.248
 07123,0.12384243,-0.00001572,-0.00023845,0.00022074,0.00002675,0.00002
 977,0.00001552,-0.00011963,0.00000020,-0.00024031,-0.00007205,-0.00001
 348,-0.00001436,0.00000819,-0.00001562,-0.00000465,0.00002607,-0.00049
 595,0.00003606,-0.00009596,0.00015601,0.00015799,-0.00012201,-0.000025
 41,0.00007453,0.00009915,0.00000647,-0.00007726,-0.00005402,-0.0000186
 9,0.00005010,-0.00003353,0.00001494,0.00004805,0.00020329,-0.00000601,
 -0.00007884,0.00034257,0.00010133,-0.00019536,-0.00003585,-0.00004707,
 -0.00009200,-0.00005825,-0.00003423,0.00002800,-0.00025972,-0.00018911
 ,0.00014727,0.00004016,-0.00000641,0.00001052,0.00023316,-0.00047678,-
 0.00089218,-0.00001019,-0.00039367,-0.00047998,-0.00005139,-0.00036853
 ,0.00113641,-0.00016071,0.00000041,0.00005579,0.00002691,0.00001258,0.
 00000376,0.00018074,0.00008367,0.00005530,0.00000767,0.00006182,-0.000
 07307,-0.00001893,0.00000325,0.00002711,-0.00003861,-0.00002365,0.0000
 2943,0.00014953,0.00003693,-0.00008173,-0.00001174,-0.00001343,0.00003
 819,-0.00000592,-0.00003075,0.00003730,-0.00001814,0.00006211,0.000032
 61,-0.00001202,0.00002851,-0.00000737,0.00009079,0.00002608,0.00007507
 ,-0.00013316,-0.00022778,0.00008639,-0.00001056,0.00002629,-0.00007680
 ,-0.00004158,0.00010698,-0.00014594,0.00011106,-0.00006764,0.00008376,
 -0.00002402,0.00000840,0.00004294,-0.00000878,-0.00003314,0.00001323,-
 0.00003037,-0.00023158,0.00031157,-0.00006234,0.00011983,-0.00000920,-
 0.00012271,0.00020209,-0.00027275,0.00075983,0.00297773,-0.00256966,-0
 .00210162,-0.00098861,0.00077438,0.00027420,0.00047632,0.00018339,-0.0
 0093416,0.00285964,-0.00015747,-0.00016832,-0.00028223,-0.00023411,-0.
 00337344,0.00022575,0.00118514,0.00063810,0.00004390,-0.00028424,0.000
 03389,0.00005766,0.00004126,-0.00042785,-0.00029154,0.00054656,-0.0001
 2097,-0.00005110,0.00011169,-0.00001738,0.00010797,0.00002016,0.000265
 25,-0.00004450,0.00002012,-0.00032966,0.00010130,-0.00008676,-0.000022
 46,0.00002403,0.00005551,-0.00002320,-0.00005892,0.00000514,-0.0000929
 5,0.00003818,-0.00003176,0.00015609,-0.00002111,0.00000050,-0.00002422
 ,0.00013754,-0.00016682,0.00018724,-0.00007797,0.00007702,0.00107949,-
 0.00074380,0.00585951,-0.00003949,-0.00000586,-0.00011878,0.00001769,-
 0.00003092,-0.00000734,-0.00000831,-0.00001267,-0.00002785,0.03560173,
 0.01049864,-0.01902560,0.49273410,0.21105341,-0.47875078,-0.52398171,-
 0.22412313,0.49250496\\-0.00000776,-0.00000392,0.00000397,0.00000024,-
 0.00000302,-0.00000040,-0.00001329,-0.00000651,0.00002575,0.00001037,0
 .00000298,-0.00001195,-0.00000273,0.00000597,0.00000080,0.00001361,-0.
 00003654,0.00001889,0.00000956,0.00000871,0.00000601,0.00000707,0.0000
 0203,-0.00000202,-0.00001049,0.00000885,-0.00000244,0.,-0.00000210,-0.
 00000609,0.00000493,-0.00000442,-0.00000281,-0.00001146,0.00000255,0.0
 0000290,0.00000291,-0.00000711,-0.00000625,0.00000663,0.00000346,0.000
 00057,0.00000163,0.00000044,0.00000207,0.00000197,-0.00000141,-0.00002
 024,-0.00000296,0.00000152,-0.00001084,-0.00002098,0.00000834,0.000054
 70,0.00000527,-0.00001647,0.00000682,0.00000543,0.00000177,-0.00002995
 ,0.00002406,-0.00004004,0.00000879,0.00000699,0.00001443,-0.00000105,-
 0.00000904,0.00000265,-0.00000358,0.00000050,-0.00000269,0.00000432,-0
 .00000407,0.00000766,-0.00000318,-0.00000053,0.00000262,0.00000297,-0.
 00000179,-0.00000100,0.00000411,0.00000179,-0.00000006,-0.00000033,-0.
 00000264,0.00000125,-0.00000230,0.00000238,0.00000155,-0.00000362,-0.0
 0000054,0.00000065,-0.00000544,-0.00000815,0.00000210,-0.00000305,0.00
 003129,0.00000688,0.00000836,-0.00000317,0.00000048,0.00000454,-0.0000
 0539,-0.00000203,0.00000225,-0.00001365,-0.00000462,0.00001030,-0.0000
 0135,0.00000228,0.00000237,0.00000020,0.00000966,-0.00000088,0.0000029
 4,-0.00000995,-0.00000532,-0.00001839,0.00001248,0.00000172,-0.0000080
 8,-0.00000121,0.00000468,-0.00002229,-0.00001314,-0.00002241,0.0000038
 3,0.00002960,-0.00000653,-0.00001500,0.00001161,0.00000938,0.00001057,
 -0.00000960,-0.00002270,-0.00000350,0.00000235,0.00000667,0.00000523,-
 0.00000895,0.00001056,0.00001851,0.00001519,-0.00000991,-0.00000319,0.
 00000546,-0.00000141,-0.00000242,-0.00000073,-0.00000204,-0.00001210,-
 0.00000081,-0.00002313,0.00000590,-0.00000174,-0.00000576,-0.00000019,
 -0.00000156,0.00000464,-0.00000344,0.00001456,-0.00000755,-0.00000218,
 -0.00000029,-0.00000364,-0.00000111,0.00000086,-0.00000056,0.00000246,
 0.00000853,0.00000364,-0.00000079,0.00000246,-0.00000206,-0.00001829,0
 .00000174,0.00000537,0.00000230,-0.00000285,0.00000532,0.00000999,-0.0
 0001116,-0.00000653,0.00002056,0.00000256,0.00000246,0.00001146,0.0000
 0100,-0.00000400,-0.00000571,-0.00000476,0.00000253,0.00000268,-0.0000
 0142,0.00000438,-0.00000288,-0.00000216,0.00000891,0.00000626,-0.00000
 495,-0.00000076\\\@
 The archive entry for this job was punched.


 IT IS IMPOSSIBLE TO MEDITATE ON TIME AND THE MYSTERY 
 OF NATURE WITHOUT AN OVERWHELMING EMOTION AT THE
 LIMITATIONS OF HUMAN INTELLIGENCE.

                                         -- ALFRED NORTH WHITEHEAD
 Job cpu time:       7 days  3 hours 16 minutes 32.8 seconds.
 Elapsed time:       0 days  3 hours 44 minutes 10.4 seconds.
 File lengths (MBytes):  RWF=  16190 Int=      0 D2E=      0 Chk=    148 Scr=      2
 Normal termination of Gaussian 16 at Thu Feb 23 06:53:08 2023.
