 Entering Gaussian System, Link 0=g16
 Initial command:
 /home/chesagar/softwares/G16_AVX2//g16/l1.exe "/home/chesagar/scratch/Gau-19592.inp" -scrdir="/home/chesagar/scratch/"
 Entering Link 1 = /home/chesagar/softwares/G16_AVX2//g16/l1.exe PID=     19593.
  
 Copyright (c) 1988-2019, Gaussian, Inc.  All Rights Reserved.
  
 This is part of the Gaussian(R) 16 program.  It is based on
 the Gaussian(R) 09 system (copyright 2009, Gaussian, Inc.),
 the Gaussian(R) 03 system (copyright 2003, Gaussian, Inc.),
 the Gaussian(R) 98 system (copyright 1998, Gaussian, Inc.),
 the Gaussian(R) 94 system (copyright 1995, Gaussian, Inc.),
 the Gaussian 92(TM) system (copyright 1992, Gaussian, Inc.),
 the Gaussian 90(TM) system (copyright 1990, Gaussian, Inc.),
 the Gaussian 88(TM) system (copyright 1988, Gaussian, Inc.),
 the Gaussian 86(TM) system (copyright 1986, Carnegie Mellon
 University), and the Gaussian 82(TM) system (copyright 1983,
 Carnegie Mellon University). Gaussian is a federally registered
 trademark of Gaussian, Inc.
  
 This software contains proprietary and confidential information,
 including trade secrets, belonging to Gaussian, Inc.
  
 This software is provided under written license and may be
 used, copied, transmitted, or stored only in accord with that
 written license.
  
 The following legend is applicable only to US Government
 contracts under FAR:
  
                    RESTRICTED RIGHTS LEGEND
  
 Use, reproduction and disclosure by the US Government is
 subject to restrictions as set forth in subparagraphs (a)
 and (c) of the Commercial Computer Software - Restricted
 Rights clause in FAR 52.227-19.
  
 Gaussian, Inc.
 340 Quinnipiac St., Bldg. 40, Wallingford CT 06492
  
  
 ---------------------------------------------------------------
 Warning -- This program may not be used in any manner that
 competes with the business of Gaussian, Inc. or will provide
 assistance to any competitor of Gaussian, Inc.  The licensee
 of this program is prohibited from giving any competitor of
 Gaussian, Inc. access to this program.  By using this program,
 the user acknowledges that Gaussian, Inc. is engaged in the
 business of creating and licensing software in the field of
 computational chemistry and represents and warrants to the
 licensee that it is not a competitor of Gaussian, Inc. and that
 it will not use this program in any manner prohibited above.
 ---------------------------------------------------------------
  

 Cite this work as:
 Gaussian 16, Revision C.01,
 M. J. Frisch, G. W. Trucks, H. B. Schlegel, G. E. Scuseria, 
 M. A. Robb, J. R. Cheeseman, G. Scalmani, V. Barone, 
 G. A. Petersson, H. Nakatsuji, X. Li, M. Caricato, A. V. Marenich, 
 J. Bloino, B. G. Janesko, R. Gomperts, B. Mennucci, H. P. Hratchian, 
 J. V. Ortiz, A. F. Izmaylov, J. L. Sonnenberg, D. Williams-Young, 
 F. Ding, F. Lipparini, F. Egidi, J. Goings, B. Peng, A. Petrone, 
 T. Henderson, D. Ranasinghe, V. G. Zakrzewski, J. Gao, N. Rega, 
 G. Zheng, W. Liang, M. Hada, M. Ehara, K. Toyota, R. Fukuda, 
 J. Hasegawa, M. Ishida, T. Nakajima, Y. Honda, O. Kitao, H. Nakai, 
 T. Vreven, K. Throssell, J. A. Montgomery, Jr., J. E. Peralta, 
 F. Ogliaro, M. J. Bearpark, J. J. Heyd, E. N. Brothers, K. N. Kudin, 
 V. N. Staroverov, T. A. Keith, R. Kobayashi, J. Normand, 
 K. Raghavachari, A. P. Rendell, J. C. Burant, S. S. Iyengar, 
 J. Tomasi, M. Cossi, J. M. Millam, M. Klene, C. Adamo, R. Cammi, 
 J. W. Ochterski, R. L. Martin, K. Morokuma, O. Farkas, 
 J. B. Foresman, and D. J. Fox, Gaussian, Inc., Wallingford CT, 2019.
 
 ******************************************
 Gaussian 16:  ES64L-G16RevC.01  3-Jul-2019
                25-Feb-2023 
 ******************************************
 %nprocshared=46
 Will use up to   46 processors via shared memory.
 %chk=Mo19S45_Mozz_Mo_SH_2_i1.chk
 %mem=100GB
 ----------------------------------------------------------
 # opt freq b3lyp/gen nosymm pseudo=read scf=maxcycles=1000
 ----------------------------------------------------------
 1/18=20,19=15,26=3,38=1/1,3;
 2/9=110,12=2,15=1,17=6,18=5,40=1/2;
 3/5=7,11=2,16=1,17=8,25=1,30=1,71=1,74=-5/1,2,3;
 4//1;
 5/5=2,7=1000,38=5/2;
 6/7=2,8=2,9=2,10=2,28=1/1;
 7/30=1/1,2,3,16;
 1/18=20,19=15,26=3/3(2);
 2/9=110,15=1/2;
 99//99;
 2/9=110,15=1/2;
 3/5=7,6=1,11=2,16=1,17=8,25=1,30=1,71=1,74=-5,82=7/1,2,3;
 4/5=5,16=3,69=1/1;
 5/5=2,7=1000,38=5/2;
 7/30=1/1,2,3,16;
 1/18=20,19=15,26=3/3(-5);
 2/9=110,15=1/2;
 6/7=2,8=2,9=2,10=2,19=2,28=1/1;
 99/9=1/99;
 -------------------
 Title Card Required
 -------------------
 Symbolic Z-matrix:
 Charge =  0 Multiplicity = 1
 42                    0.33104   1.02072   12.48394 
 16                    2.29306   1.96255   13.60094 
 16                   -0.76132   1.57807   14.63992 
 16                   -0.38969   0.77816   10.17563 
 16                    1.9994   -0.62472   11.79312 
 42                   -2.03603   2.4182    10.87056 
 16                   -2.76423   2.15425   8.55344 
 16                   -0.10726   3.36354   12.0042 
 42                    0.96144   2.78627   9.89797 
 16                    0.20584   2.59433   7.57399 
 16                    2.62688   1.13666   9.21257 
 42                    3.38905   1.36136   11.50458 
 42                   -1.47596   4.19421   8.28163 
 16                    5.42602   2.31644   12.71396 
 16                    2.9399    3.69425   11.01559 
 16                   -2.55348   4.75448   10.37991 
 16                    1.00971   7.00832   6.86006 
 42                   -4.45267   3.63455   9.39346 
 16                   -5.78432   1.73169   9.67318 
 16                   -5.51755   4.29264   11.48176 
 42                    2.57687  -0.36799   14.11353 
 16                    4.81064  -0.11526   15.25784 
 16                    1.60205   0.19403   16.18983 
 42                    1.56245   4.57464   7.34245 
 16                    0.92376   4.57859   4.92622 
 16                    0.47208   5.13563   9.41806 
 42                    4.01683   3.10664   8.92263 
 16                    3.18857   2.89018   6.64038 
 16                    3.57465   5.44681   8.44023 
 42                    4.52765   4.8272    6.31658 
 16                    6.93787   5.34706   6.75552 
 16                    4.25518   7.32267   5.99025 
 42                    2.40697   6.60687   4.94652 
 16                    3.91443   4.80816   4.10233 
 16                   -1.33659   7.24352   4.09552 
 42                   -0.95026   5.9862    5.74941 
 16                   -2.20696   3.92168   5.81508 
 16                   -2.04451   6.66382   7.7964 
 42                   -3.72641   5.56426   6.56492 
 16                   -5.53191   3.94187   7.15128 
 16                   -4.5762    6.72      5.01761 
 42                   -5.04389   2.03477   11.97282 
 16                   -3.11316   2.97555   13.00864 
 16                   -3.44102   0.4232    11.20529 
 42                   -2.68108   0.65562   13.47673 
 16                   -1.06107  -1.01229   12.79566 
 16                   -4.21027  -1.41235   13.76405 
 42                   -0.33316  -0.76063   15.08746 
 16                    1.31373  -2.36881   14.37342 
 16                   -1.44785  -1.71856   16.61126 
 42                    5.84808   0.02762   13.00033 
 16                    5.08874  -0.42258   10.82929 
 16                    8.37769   1.18337   10.83624 
 42                    6.33872   1.68257   10.50608 
 16                    5.71107   1.31547   8.17064 
 16                    6.10632   4.07731   10.05083 
 42                    7.05478   3.22611   8.07607 
 16                    9.14204   2.87378   8.11316 
 16                    2.13519   7.95994   3.33847 
 16                    7.84487  -0.53186   13.46552 
 16                   -6.82759   1.35572   13.22132 
 16                   -5.47051   5.67155   8.36564 
 16                    4.61299  -1.8482    14.07175 
 16                    6.60711   3.56679   5.66239 
 42                   -5.47345   0.09879   14.75135 
 16                   -3.88293   1.30188   15.68208 
 16                   -6.73323  -0.77952   16.21088 
 1                    -3.67113   0.20578   16.405 
 1                    -6.00677  -1.48229   17.07532 
 

 GradGradGradGradGradGradGradGradGradGradGradGradGradGradGradGradGradGrad
 Berny optimization.
 Initialization pass.
                           ----------------------------
                           !    Initial Parameters    !
                           ! (Angstroms and Degrees)  !
 --------------------------                            --------------------------
 ! Name  Definition              Value          Derivative Info.                !
 --------------------------------------------------------------------------------
 ! R1    R(1,2)                  2.4463         estimate D2E/DX2                !
 ! R2    R(1,3)                  2.4804         estimate D2E/DX2                !
 ! R3    R(1,4)                  2.4303         estimate D2E/DX2                !
 ! R4    R(1,5)                  2.443          estimate D2E/DX2                !
 ! R5    R(1,8)                  2.4313         estimate D2E/DX2                !
 ! R6    R(1,21)                 3.1029         estimate D2E/DX2                !
 ! R7    R(1,46)                 2.4836         estimate D2E/DX2                !
 ! R8    R(2,12)                 2.4408         estimate D2E/DX2                !
 ! R9    R(2,21)                 2.4031         estimate D2E/DX2                !
 ! R10   R(3,45)                 2.4268         estimate D2E/DX2                !
 ! R11   R(3,48)                 2.4193         estimate D2E/DX2                !
 ! R12   R(4,6)                  2.4255         estimate D2E/DX2                !
 ! R13   R(4,9)                  2.4362         estimate D2E/DX2                !
 ! R14   R(5,12)                 2.4411         estimate D2E/DX2                !
 ! R15   R(5,21)                 2.4049         estimate D2E/DX2                !
 ! R16   R(6,7)                  2.4432         estimate D2E/DX2                !
 ! R17   R(6,8)                  2.4288         estimate D2E/DX2                !
 ! R18   R(6,16)                 2.4427         estimate D2E/DX2                !
 ! R19   R(6,18)                 3.0824         estimate D2E/DX2                !
 ! R20   R(6,43)                 2.4581         estimate D2E/DX2                !
 ! R21   R(6,44)                 2.4629         estimate D2E/DX2                !
 ! R22   R(7,13)                 2.4279         estimate D2E/DX2                !
 ! R23   R(7,18)                 2.3974         estimate D2E/DX2                !
 ! R24   R(8,9)                  2.4314         estimate D2E/DX2                !
 ! R25   R(9,10)                 2.4513         estimate D2E/DX2                !
 ! R26   R(9,11)                 2.4423         estimate D2E/DX2                !
 ! R27   R(9,15)                 2.447          estimate D2E/DX2                !
 ! R28   R(9,26)                 2.4473         estimate D2E/DX2                !
 ! R29   R(10,13)                2.4267         estimate D2E/DX2                !
 ! R30   R(10,24)                2.4116         estimate D2E/DX2                !
 ! R31   R(11,12)                2.4258         estimate D2E/DX2                !
 ! R32   R(11,27)                2.4283         estimate D2E/DX2                !
 ! R33   R(12,14)                2.5542         estimate D2E/DX2                !
 ! R34   R(12,15)                2.4255         estimate D2E/DX2                !
 ! R35   R(12,52)                2.5549         estimate D2E/DX2                !
 ! R36   R(13,16)                2.4244         estimate D2E/DX2                !
 ! R37   R(13,26)                2.4439         estimate D2E/DX2                !
 ! R38   R(13,37)                2.587          estimate D2E/DX2                !
 ! R39   R(13,38)                2.5803         estimate D2E/DX2                !
 ! R40   R(14,51)                2.345          estimate D2E/DX2                !
 ! R41   R(14,54)                2.4718         estimate D2E/DX2                !
 ! R42   R(15,27)                2.426          estimate D2E/DX2                !
 ! R43   R(16,18)                2.4154         estimate D2E/DX2                !
 ! R44   R(17,24)                2.5419         estimate D2E/DX2                !
 ! R45   R(17,33)                2.4031         estimate D2E/DX2                !
 ! R46   R(17,36)                2.4738         estimate D2E/DX2                !
 ! R47   R(18,19)                2.3393         estimate D2E/DX2                !
 ! R48   R(18,20)                2.4348         estimate D2E/DX2                !
 ! R49   R(18,40)                2.5073         estimate D2E/DX2                !
 ! R50   R(18,42)                3.0922         estimate D2E/DX2                !
 ! R51   R(18,62)                2.4984         estimate D2E/DX2                !
 ! R52   R(19,42)                2.4348         estimate D2E/DX2                !
 ! R53   R(20,42)                2.3587         estimate D2E/DX2                !
 ! R54   R(21,22)                2.5225         estimate D2E/DX2                !
 ! R55   R(21,23)                2.3616         estimate D2E/DX2                !
 ! R56   R(21,48)                3.0937         estimate D2E/DX2                !
 ! R57   R(21,49)                2.3804         estimate D2E/DX2                !
 ! R58   R(21,63)                2.5177         estimate D2E/DX2                !
 ! R59   R(22,51)                2.4886         estimate D2E/DX2                !
 ! R60   R(22,63)                2.1093         estimate D2E/DX2                !
 ! R61   R(23,48)                2.4231         estimate D2E/DX2                !
 ! R62   R(24,25)                2.4992         estimate D2E/DX2                !
 ! R63   R(24,26)                2.4108         estimate D2E/DX2                !
 ! R64   R(24,28)                2.4443         estimate D2E/DX2                !
 ! R65   R(24,29)                2.4525         estimate D2E/DX2                !
 ! R66   R(25,33)                2.5128         estimate D2E/DX2                !
 ! R67   R(25,36)                2.4841         estimate D2E/DX2                !
 ! R68   R(27,28)                2.4375         estimate D2E/DX2                !
 ! R69   R(27,29)                2.4299         estimate D2E/DX2                !
 ! R70   R(27,55)                2.5776         estimate D2E/DX2                !
 ! R71   R(27,56)                2.5653         estimate D2E/DX2                !
 ! R72   R(28,30)                2.377          estimate D2E/DX2                !
 ! R73   R(29,30)                2.4087         estimate D2E/DX2                !
 ! R74   R(30,31)                2.5044         estimate D2E/DX2                !
 ! R75   R(30,32)                2.5314         estimate D2E/DX2                !
 ! R76   R(30,33)                3.0889         estimate D2E/DX2                !
 ! R77   R(30,34)                2.2977         estimate D2E/DX2                !
 ! R78   R(30,64)                2.5181         estimate D2E/DX2                !
 ! R79   R(31,57)                2.5012         estimate D2E/DX2                !
 ! R80   R(31,64)                2.1151         estimate D2E/DX2                !
 ! R81   R(32,33)                2.24           estimate D2E/DX2                !
 ! R82   R(33,34)                2.4941         estimate D2E/DX2                !
 ! R83   R(33,59)                2.1191         estimate D2E/DX2                !
 ! R84   R(35,36)                2.1132         estimate D2E/DX2                !
 ! R85   R(36,37)                2.4178         estimate D2E/DX2                !
 ! R86   R(36,38)                2.418          estimate D2E/DX2                !
 ! R87   R(36,39)                2.9241         estimate D2E/DX2                !
 ! R88   R(37,39)                2.3599         estimate D2E/DX2                !
 ! R89   R(38,39)                2.3568         estimate D2E/DX2                !
 ! R90   R(39,40)                2.4972         estimate D2E/DX2                !
 ! R91   R(39,41)                2.11           estimate D2E/DX2                !
 ! R92   R(39,62)                2.5092         estimate D2E/DX2                !
 ! R93   R(40,62)                2.1143         estimate D2E/DX2                !
 ! R94   R(42,43)                2.3845         estimate D2E/DX2                !
 ! R95   R(42,44)                2.3991         estimate D2E/DX2                !
 ! R96   R(42,61)                2.2807         estimate D2E/DX2                !
 ! R97   R(43,45)                2.4058         estimate D2E/DX2                !
 ! R98   R(44,45)                2.4064         estimate D2E/DX2                !
 ! R99   R(45,46)                2.4228         estimate D2E/DX2                !
 ! R100  R(45,47)                2.5879         estimate D2E/DX2                !
 ! R101  R(45,65)                3.1196         estimate D2E/DX2                !
 ! R102  R(45,66)                2.5934         estimate D2E/DX2                !
 ! R103  R(46,48)                2.4177         estimate D2E/DX2                !
 ! R104  R(47,65)                2.2032         estimate D2E/DX2                !
 ! R105  R(48,49)                2.41           estimate D2E/DX2                !
 ! R106  R(48,50)                2.1171         estimate D2E/DX2                !
 ! R107  R(51,52)                2.3437         estimate D2E/DX2                !
 ! R108  R(51,54)                3.0333         estimate D2E/DX2                !
 ! R109  R(51,60)                2.1252         estimate D2E/DX2                !
 ! R110  R(51,63)                2.4884         estimate D2E/DX2                !
 ! R111  R(52,54)                2.4695         estimate D2E/DX2                !
 ! R112  R(53,54)                2.125          estimate D2E/DX2                !
 ! R113  R(54,55)                2.446          estimate D2E/DX2                !
 ! R114  R(54,56)                2.4487         estimate D2E/DX2                !
 ! R115  R(54,57)                2.9665         estimate D2E/DX2                !
 ! R116  R(55,57)                2.3377         estimate D2E/DX2                !
 ! R117  R(56,57)                2.3503         estimate D2E/DX2                !
 ! R118  R(57,58)                2.1171         estimate D2E/DX2                !
 ! R119  R(57,64)                2.4784         estimate D2E/DX2                !
 ! R120  R(61,65)                2.3989         estimate D2E/DX2                !
 ! R121  R(65,66)                2.2008         estimate D2E/DX2                !
 ! R122  R(65,67)                2.1187         estimate D2E/DX2                !
 ! R123  R(66,68)                1.33           estimate D2E/DX2                !
 ! R124  R(67,69)                1.33           estimate D2E/DX2                !
 ! A1    A(2,1,3)               82.5194         estimate D2E/DX2                !
 ! A2    A(2,1,4)              135.2316         estimate D2E/DX2                !
 ! A3    A(2,1,5)               80.8338         estimate D2E/DX2                !
 ! A4    A(2,1,8)               82.1654         estimate D2E/DX2                !
 ! A5    A(2,1,46)             135.0244         estimate D2E/DX2                !
 ! A6    A(3,1,4)              135.8403         estimate D2E/DX2                !
 ! A7    A(3,1,5)              134.2594         estimate D2E/DX2                !
 ! A8    A(3,1,8)               82.8533         estimate D2E/DX2                !
 ! A9    A(3,1,21)              87.8694         estimate D2E/DX2                !
 ! A10   A(3,1,46)              80.095          estimate D2E/DX2                !
 ! A11   A(4,1,5)               82.3411         estimate D2E/DX2                !
 ! A12   A(4,1,8)               81.68           estimate D2E/DX2                !
 ! A13   A(4,1,21)             131.974          estimate D2E/DX2                !
 ! A14   A(4,1,46)              82.605          estimate D2E/DX2                !
 ! A15   A(5,1,8)              135.754          estimate D2E/DX2                !
 ! A16   A(5,1,46)              82.3538         estimate D2E/DX2                !
 ! A17   A(8,1,21)             131.7117         estimate D2E/DX2                !
 ! A18   A(8,1,46)             135.4398         estimate D2E/DX2                !
 ! A19   A(21,1,46)             88.4773         estimate D2E/DX2                !
 ! A20   A(1,2,12)              82.7111         estimate D2E/DX2                !
 ! A21   A(12,2,21)             83.7595         estimate D2E/DX2                !
 ! A22   A(1,3,45)              81.1613         estimate D2E/DX2                !
 ! A23   A(1,3,48)              82.2779         estimate D2E/DX2                !
 ! A24   A(45,3,48)             82.0229         estimate D2E/DX2                !
 ! A25   A(1,4,6)               82.0494         estimate D2E/DX2                !
 ! A26   A(1,4,9)               82.0397         estimate D2E/DX2                !
 ! A27   A(6,4,9)               81.4745         estimate D2E/DX2                !
 ! A28   A(1,5,12)              82.773          estimate D2E/DX2                !
 ! A29   A(12,5,21)             83.7134         estimate D2E/DX2                !
 ! A30   A(4,6,7)               81.8091         estimate D2E/DX2                !
 ! A31   A(4,6,8)               81.8299         estimate D2E/DX2                !
 ! A32   A(4,6,16)             137.1338         estimate D2E/DX2                !
 ! A33   A(4,6,18)             131.4273         estimate D2E/DX2                !
 ! A34   A(4,6,43)             134.4235         estimate D2E/DX2                !
 ! A35   A(4,6,44)              83.018          estimate D2E/DX2                !
 ! A36   A(7,6,8)              136.172          estimate D2E/DX2                !
 ! A37   A(7,6,16)              81.3548         estimate D2E/DX2                !
 ! A38   A(7,6,43)             135.9578         estimate D2E/DX2                !
 ! A39   A(7,6,44)              82.6088         estimate D2E/DX2                !
 ! A40   A(8,6,16)              83.6678         estimate D2E/DX2                !
 ! A41   A(8,6,18)             133.8422         estimate D2E/DX2                !
 ! A42   A(8,6,43)              81.5902         estimate D2E/DX2                !
 ! A43   A(8,6,44)             134.8182         estimate D2E/DX2                !
 ! A44   A(16,6,43)             82.2429         estimate D2E/DX2                !
 ! A45   A(16,6,44)            132.9359         estimate D2E/DX2                !
 ! A46   A(18,6,43)             89.0712         estimate D2E/DX2                !
 ! A47   A(18,6,44)             86.4179         estimate D2E/DX2                !
 ! A48   A(43,6,44)             79.3668         estimate D2E/DX2                !
 ! A49   A(6,7,13)              81.7933         estimate D2E/DX2                !
 ! A50   A(13,7,18)             83.923          estimate D2E/DX2                !
 ! A51   A(1,8,6)               81.9633         estimate D2E/DX2                !
 ! A52   A(1,8,9)               82.1202         estimate D2E/DX2                !
 ! A53   A(6,8,9)               81.5069         estimate D2E/DX2                !
 ! A54   A(4,9,8)               81.5586         estimate D2E/DX2                !
 ! A55   A(4,9,10)              82.678          estimate D2E/DX2                !
 ! A56   A(4,9,11)              81.5718         estimate D2E/DX2                !
 ! A57   A(4,9,15)             134.6045         estimate D2E/DX2                !
 ! A58   A(4,9,26)             134.6472         estimate D2E/DX2                !
 ! A59   A(8,9,10)             134.7807         estimate D2E/DX2                !
 ! A60   A(8,9,11)             134.6855         estimate D2E/DX2                !
 ! A61   A(8,9,15)              82.6247         estimate D2E/DX2                !
 ! A62   A(8,9,26)              81.6083         estimate D2E/DX2                !
 ! A63   A(10,9,11)             83.7564         estimate D2E/DX2                !
 ! A64   A(10,9,15)            135.3407         estimate D2E/DX2                !
 ! A65   A(10,9,26)             80.0735         estimate D2E/DX2                !
 ! A66   A(11,9,15)             80.0641         estimate D2E/DX2                !
 ! A67   A(11,9,26)            136.864          estimate D2E/DX2                !
 ! A68   A(15,9,26)             83.9744         estimate D2E/DX2                !
 ! A69   A(9,10,13)             83.4274         estimate D2E/DX2                !
 ! A70   A(9,10,24)             81.5655         estimate D2E/DX2                !
 ! A71   A(13,10,24)            82.9047         estimate D2E/DX2                !
 ! A72   A(9,11,12)             83.4843         estimate D2E/DX2                !
 ! A73   A(9,11,27)             82.8701         estimate D2E/DX2                !
 ! A74   A(12,11,27)            81.8265         estimate D2E/DX2                !
 ! A75   A(2,12,5)              80.9821         estimate D2E/DX2                !
 ! A76   A(2,12,11)            133.8878         estimate D2E/DX2                !
 ! A77   A(2,12,14)             81.9132         estimate D2E/DX2                !
 ! A78   A(2,12,15)             81.5528         estimate D2E/DX2                !
 ! A79   A(2,12,52)            134.2455         estimate D2E/DX2                !
 ! A80   A(5,12,11)             81.8051         estimate D2E/DX2                !
 ! A81   A(5,12,14)            134.6077         estimate D2E/DX2                !
 ! A82   A(5,12,15)            134.5029         estimate D2E/DX2                !
 ! A83   A(5,12,52)             80.9012         estimate D2E/DX2                !
 ! A84   A(11,12,14)           137.1014         estimate D2E/DX2                !
 ! A85   A(11,12,15)            80.8183         estimate D2E/DX2                !
 ! A86   A(11,12,52)            83.9501         estimate D2E/DX2                !
 ! A87   A(14,12,15)            83.3094         estimate D2E/DX2                !
 ! A88   A(14,12,52)            81.7026         estimate D2E/DX2                !
 ! A89   A(15,12,52)           137.858          estimate D2E/DX2                !
 ! A90   A(7,13,10)             81.1672         estimate D2E/DX2                !
 ! A91   A(7,13,16)             82.0362         estimate D2E/DX2                !
 ! A92   A(7,13,26)            133.9909         estimate D2E/DX2                !
 ! A93   A(7,13,37)             82.432          estimate D2E/DX2                !
 ! A94   A(7,13,38)            135.0973         estimate D2E/DX2                !
 ! A95   A(10,13,16)           135.4602         estimate D2E/DX2                !
 ! A96   A(10,13,26)            80.627          estimate D2E/DX2                !
 ! A97   A(10,13,37)            81.2773         estimate D2E/DX2                !
 ! A98   A(10,13,38)           136.7931         estimate D2E/DX2                !
 ! A99   A(16,13,26)            82.1137         estimate D2E/DX2                !
 ! A100  A(16,13,37)           136.3814         estimate D2E/DX2                !
 ! A101  A(16,13,38)            81.0041         estimate D2E/DX2                !
 ! A102  A(26,13,37)           135.1679         estimate D2E/DX2                !
 ! A103  A(26,13,38)            83.9376         estimate D2E/DX2                !
 ! A104  A(37,13,38)            81.9096         estimate D2E/DX2                !
 ! A105  A(12,14,51)            80.5836         estimate D2E/DX2                !
 ! A106  A(12,14,54)            77.0354         estimate D2E/DX2                !
 ! A107  A(9,15,12)             83.3912         estimate D2E/DX2                !
 ! A108  A(9,15,27)             82.8197         estimate D2E/DX2                !
 ! A109  A(12,15,27)            81.8805         estimate D2E/DX2                !
 ! A110  A(6,16,13)             81.8749         estimate D2E/DX2                !
 ! A111  A(13,16,18)            83.6184         estimate D2E/DX2                !
 ! A112  A(24,17,33)            82.2263         estimate D2E/DX2                !
 ! A113  A(24,17,36)            82.0621         estimate D2E/DX2                !
 ! A114  A(33,17,36)            91.9568         estimate D2E/DX2                !
 ! A115  A(6,18,19)             93.8998         estimate D2E/DX2                !
 ! A116  A(6,18,20)             92.209          estimate D2E/DX2                !
 ! A117  A(6,18,40)            144.5238         estimate D2E/DX2                !
 ! A118  A(6,18,42)             63.0013         estimate D2E/DX2                !
 ! A119  A(6,18,62)            146.9589         estimate D2E/DX2                !
 ! A120  A(7,18,16)             82.8556         estimate D2E/DX2                !
 ! A121  A(7,18,19)             86.5919         estimate D2E/DX2                !
 ! A122  A(7,18,20)            140.8446         estimate D2E/DX2                !
 ! A123  A(7,18,40)             93.755          estimate D2E/DX2                !
 ! A124  A(7,18,42)             96.1702         estimate D2E/DX2                !
 ! A125  A(7,18,62)            130.2557         estimate D2E/DX2                !
 ! A126  A(16,18,19)           140.8874         estimate D2E/DX2                !
 ! A127  A(16,18,20)            82.4314         estimate D2E/DX2                !
 ! A128  A(16,18,40)           130.3025         estimate D2E/DX2                !
 ! A129  A(16,18,42)            92.8402         estimate D2E/DX2                !
 ! A130  A(16,18,62)            96.3329         estimate D2E/DX2                !
 ! A131  A(19,18,20)            82.4343         estimate D2E/DX2                !
 ! A132  A(19,18,40)            87.7995         estimate D2E/DX2                !
 ! A133  A(19,18,62)           118.7177         estimate D2E/DX2                !
 ! A134  A(20,18,40)           123.0671         estimate D2E/DX2                !
 ! A135  A(20,18,62)            87.3804         estimate D2E/DX2                !
 ! A136  A(40,18,42)           136.6399         estimate D2E/DX2                !
 ! A137  A(42,18,62)           133.4001         estimate D2E/DX2                !
 ! A138  A(1,21,22)            146.5481         estimate D2E/DX2                !
 ! A139  A(1,21,23)             93.237          estimate D2E/DX2                !
 ! A140  A(1,21,48)             62.6978         estimate D2E/DX2                !
 ! A141  A(1,21,49)             92.8346         estimate D2E/DX2                !
 ! A142  A(1,21,63)            147.1162         estimate D2E/DX2                !
 ! A143  A(2,21,5)              82.4937         estimate D2E/DX2                !
 ! A144  A(2,21,22)             95.98           estimate D2E/DX2                !
 ! A145  A(2,21,23)             84.7207         estimate D2E/DX2                !
 ! A146  A(2,21,48)             94.5396         estimate D2E/DX2                !
 ! A147  A(2,21,49)            140.8766         estimate D2E/DX2                !
 ! A148  A(2,21,63)            131.4651         estimate D2E/DX2                !
 ! A149  A(5,21,22)            131.3782         estimate D2E/DX2                !
 ! A150  A(5,21,23)            140.7672         estimate D2E/DX2                !
 ! A151  A(5,21,48)             93.6886         estimate D2E/DX2                !
 ! A152  A(5,21,49)             83.5807         estimate D2E/DX2                !
 ! A153  A(5,21,63)             96.6276         estimate D2E/DX2                !
 ! A154  A(22,21,23)            86.7238         estimate D2E/DX2                !
 ! A155  A(22,21,48)           134.6575         estimate D2E/DX2                !
 ! A156  A(22,21,49)           120.3038         estimate D2E/DX2                !
 ! A157  A(23,21,49)            83.3967         estimate D2E/DX2                !
 ! A158  A(23,21,63)           119.2314         estimate D2E/DX2                !
 ! A159  A(48,21,63)           133.7355         estimate D2E/DX2                !
 ! A160  A(49,21,63)            86.3754         estimate D2E/DX2                !
 ! A161  A(21,22,51)            87.9023         estimate D2E/DX2                !
 ! A162  A(10,24,17)           133.0094         estimate D2E/DX2                !
 ! A163  A(10,24,25)            87.1546         estimate D2E/DX2                !
 ! A164  A(10,24,26)            81.6042         estimate D2E/DX2                !
 ! A165  A(10,24,28)            80.5561         estimate D2E/DX2                !
 ! A166  A(10,24,29)           135.284          estimate D2E/DX2                !
 ! A167  A(17,24,25)            76.0802         estimate D2E/DX2                !
 ! A168  A(17,24,26)            80.9234         estimate D2E/DX2                !
 ! A169  A(17,24,28)           138.5876         estimate D2E/DX2                !
 ! A170  A(17,24,29)            85.5766         estimate D2E/DX2                !
 ! A171  A(25,24,26)           135.7608         estimate D2E/DX2                !
 ! A172  A(25,24,28)            83.8812         estimate D2E/DX2                !
 ! A173  A(25,24,29)           129.9313         estimate D2E/DX2                !
 ! A174  A(26,24,28)           135.1178         estimate D2E/DX2                !
 ! A175  A(26,24,29)            84.4305         estimate D2E/DX2                !
 ! A176  A(28,24,29)            80.0849         estimate D2E/DX2                !
 ! A177  A(24,25,33)            80.9454         estimate D2E/DX2                !
 ! A178  A(24,25,36)            82.7217         estimate D2E/DX2                !
 ! A179  A(33,25,36)            89.1538         estimate D2E/DX2                !
 ! A180  A(9,26,13)             83.1526         estimate D2E/DX2                !
 ! A181  A(9,26,24)             81.6632         estimate D2E/DX2                !
 ! A182  A(13,26,24)            82.5607         estimate D2E/DX2                !
 ! A183  A(11,27,15)            80.7584         estimate D2E/DX2                !
 ! A184  A(11,27,28)            81.0981         estimate D2E/DX2                !
 ! A185  A(11,27,29)           134.4928         estimate D2E/DX2                !
 ! A186  A(11,27,55)            81.2181         estimate D2E/DX2                !
 ! A187  A(11,27,56)           136.109          estimate D2E/DX2                !
 ! A188  A(15,27,28)           132.7209         estimate D2E/DX2                !
 ! A189  A(15,27,29)            81.7914         estimate D2E/DX2                !
 ! A190  A(15,27,55)           135.3792         estimate D2E/DX2                !
 ! A191  A(15,27,56)            83.714          estimate D2E/DX2                !
 ! A192  A(28,27,29)            80.6662         estimate D2E/DX2                !
 ! A193  A(28,27,55)            83.5973         estimate D2E/DX2                !
 ! A194  A(28,27,56)           136.2312         estimate D2E/DX2                !
 ! A195  A(29,27,55)           136.9625         estimate D2E/DX2                !
 ! A196  A(29,27,56)            82.5952         estimate D2E/DX2                !
 ! A197  A(55,27,56)            81.7133         estimate D2E/DX2                !
 ! A198  A(24,28,27)            84.0263         estimate D2E/DX2                !
 ! A199  A(24,28,30)            81.5078         estimate D2E/DX2                !
 ! A200  A(27,28,30)            82.1694         estimate D2E/DX2                !
 ! A201  A(24,29,27)            84.0118         estimate D2E/DX2                !
 ! A202  A(24,29,30)            80.7054         estimate D2E/DX2                !
 ! A203  A(27,29,30)            81.68           estimate D2E/DX2                !
 ! A204  A(28,30,29)            82.336          estimate D2E/DX2                !
 ! A205  A(28,30,31)           133.4283         estimate D2E/DX2                !
 ! A206  A(28,30,32)           139.487          estimate D2E/DX2                !
 ! A207  A(28,30,33)            98.2306         estimate D2E/DX2                !
 ! A208  A(28,30,34)            88.5199         estimate D2E/DX2                !
 ! A209  A(28,30,64)            95.3199         estimate D2E/DX2                !
 ! A210  A(29,30,31)            99.9528         estimate D2E/DX2                !
 ! A211  A(29,30,32)            79.4838         estimate D2E/DX2                !
 ! A212  A(29,30,33)            88.3506         estimate D2E/DX2                !
 ! A213  A(29,30,34)           138.2602         estimate D2E/DX2                !
 ! A214  A(29,30,64)           133.1984         estimate D2E/DX2                !
 ! A215  A(31,30,32)            85.5005         estimate D2E/DX2                !
 ! A216  A(31,30,33)           128.2332         estimate D2E/DX2                !
 ! A217  A(31,30,34)           115.3075         estimate D2E/DX2                !
 ! A218  A(32,30,34)            81.6753         estimate D2E/DX2                !
 ! A219  A(32,30,64)           123.2868         estimate D2E/DX2                !
 ! A220  A(33,30,64)           137.7405         estimate D2E/DX2                !
 ! A221  A(34,30,64)            88.0451         estimate D2E/DX2                !
 ! A222  A(30,31,57)            87.7934         estimate D2E/DX2                !
 ! A223  A(17,33,25)            78.3507         estimate D2E/DX2                !
 ! A224  A(17,33,30)            98.1779         estimate D2E/DX2                !
 ! A225  A(17,33,32)            93.1717         estimate D2E/DX2                !
 ! A226  A(17,33,34)           137.8522         estimate D2E/DX2                !
 ! A227  A(17,33,59)           115.0245         estimate D2E/DX2                !
 ! A228  A(25,33,30)            86.7766         estimate D2E/DX2                !
 ! A229  A(25,33,32)           138.479          estimate D2E/DX2                !
 ! A230  A(25,33,34)            76.8147         estimate D2E/DX2                !
 ! A231  A(25,33,59)           115.6943         estimate D2E/DX2                !
 ! A232  A(30,33,59)           142.4199         estimate D2E/DX2                !
 ! A233  A(32,33,34)            83.6544         estimate D2E/DX2                !
 ! A234  A(32,33,59)           104.795          estimate D2E/DX2                !
 ! A235  A(34,33,59)           106.3294         estimate D2E/DX2                !
 ! A236  A(17,36,25)            77.5962         estimate D2E/DX2                !
 ! A237  A(17,36,35)           104.501          estimate D2E/DX2                !
 ! A238  A(17,36,37)           138.7996         estimate D2E/DX2                !
 ! A239  A(17,36,38)            82.1074         estimate D2E/DX2                !
 ! A240  A(17,36,39)           133.3632         estimate D2E/DX2                !
 ! A241  A(25,36,35)           102.4571         estimate D2E/DX2                !
 ! A242  A(25,36,37)            85.2544         estimate D2E/DX2                !
 ! A243  A(25,36,38)           141.3268         estimate D2E/DX2                !
 ! A244  A(25,36,39)           136.6261         estimate D2E/DX2                !
 ! A245  A(35,36,37)           115.7397         estimate D2E/DX2                !
 ! A246  A(35,36,38)           114.3995         estimate D2E/DX2                !
 ! A247  A(35,36,39)            97.5022         estimate D2E/DX2                !
 ! A248  A(37,36,38)            88.9159         estimate D2E/DX2                !
 ! A249  A(13,37,36)            77.8235         estimate D2E/DX2                !
 ! A250  A(13,37,39)            78.7939         estimate D2E/DX2                !
 ! A251  A(13,38,36)            77.9515         estimate D2E/DX2                !
 ! A252  A(13,38,39)            78.9867         estimate D2E/DX2                !
 ! A253  A(36,39,40)           147.746          estimate D2E/DX2                !
 ! A254  A(36,39,41)            95.6708         estimate D2E/DX2                !
 ! A255  A(36,39,62)           148.6393         estimate D2E/DX2                !
 ! A256  A(37,39,38)            91.7924         estimate D2E/DX2                !
 ! A257  A(37,39,40)            95.0443         estimate D2E/DX2                !
 ! A258  A(37,39,41)           114.0517         estimate D2E/DX2                !
 ! A259  A(37,39,62)           134.8567         estimate D2E/DX2                !
 ! A260  A(38,39,40)           134.1394         estimate D2E/DX2                !
 ! A261  A(38,39,41)           114.5224         estimate D2E/DX2                !
 ! A262  A(38,39,62)            95.8027         estimate D2E/DX2                !
 ! A263  A(40,39,41)           103.7015         estimate D2E/DX2                !
 ! A264  A(41,39,62)           102.8799         estimate D2E/DX2                !
 ! A265  A(18,40,39)            88.7622         estimate D2E/DX2                !
 ! A266  A(18,42,43)            90.196          estimate D2E/DX2                !
 ! A267  A(18,42,44)            87.3018         estimate D2E/DX2                !
 ! A268  A(18,42,61)           139.4821         estimate D2E/DX2                !
 ! A269  A(19,42,20)            82.0365         estimate D2E/DX2                !
 ! A270  A(19,42,43)           134.8801         estimate D2E/DX2                !
 ! A271  A(19,42,44)            79.4785         estimate D2E/DX2                !
 ! A272  A(19,42,61)           104.0127         estimate D2E/DX2                !
 ! A273  A(20,42,43)            82.84           estimate D2E/DX2                !
 ! A274  A(20,42,44)           135.2836         estimate D2E/DX2                !
 ! A275  A(20,42,61)           104.0004         estimate D2E/DX2                !
 ! A276  A(43,42,44)            82.1273         estimate D2E/DX2                !
 ! A277  A(43,42,61)           120.8596         estimate D2E/DX2                !
 ! A278  A(44,42,61)           119.8458         estimate D2E/DX2                !
 ! A279  A(6,43,42)             83.5408         estimate D2E/DX2                !
 ! A280  A(6,43,45)             82.6395         estimate D2E/DX2                !
 ! A281  A(42,43,45)            81.343          estimate D2E/DX2                !
 ! A282  A(6,44,42)             83.1362         estimate D2E/DX2                !
 ! A283  A(6,44,45)             82.5248         estimate D2E/DX2                !
 ! A284  A(42,44,45)            81.0327         estimate D2E/DX2                !
 ! A285  A(3,45,43)             82.4604         estimate D2E/DX2                !
 ! A286  A(3,45,44)            137.6415         estimate D2E/DX2                !
 ! A287  A(3,45,46)             82.3842         estimate D2E/DX2                !
 ! A288  A(3,45,47)            135.8858         estimate D2E/DX2                !
 ! A289  A(3,45,65)            125.4568         estimate D2E/DX2                !
 ! A290  A(3,45,66)             82.2002         estimate D2E/DX2                !
 ! A291  A(43,45,44)            81.5334         estimate D2E/DX2                !
 ! A292  A(43,45,46)           136.8219         estimate D2E/DX2                !
 ! A293  A(43,45,47)           133.3169         estimate D2E/DX2                !
 ! A294  A(43,45,65)            95.213          estimate D2E/DX2                !
 ! A295  A(43,45,66)            80.9047         estimate D2E/DX2                !
 ! A296  A(44,45,46)            83.0693         estimate D2E/DX2                !
 ! A297  A(44,45,47)            80.8522         estimate D2E/DX2                !
 ! A298  A(44,45,65)            94.9194         estimate D2E/DX2                !
 ! A299  A(44,45,66)           132.8739         estimate D2E/DX2                !
 ! A300  A(46,45,47)            82.8891         estimate D2E/DX2                !
 ! A301  A(46,45,65)           126.1907         estimate D2E/DX2                !
 ! A302  A(46,45,66)           136.0921         estimate D2E/DX2                !
 ! A303  A(47,45,66)            80.2634         estimate D2E/DX2                !
 ! A304  A(1,46,45)             81.1734         estimate D2E/DX2                !
 ! A305  A(1,46,48)             82.2423         estimate D2E/DX2                !
 ! A306  A(45,46,48)            82.137          estimate D2E/DX2                !
 ! A307  A(3,48,21)             89.1719         estimate D2E/DX2                !
 ! A308  A(3,48,23)             81.0629         estimate D2E/DX2                !
 ! A309  A(3,48,46)             82.6453         estimate D2E/DX2                !
 ! A310  A(3,48,49)            135.3305         estimate D2E/DX2                !
 ! A311  A(3,48,50)            118.5128         estimate D2E/DX2                !
 ! A312  A(21,48,46)            89.8853         estimate D2E/DX2                !
 ! A313  A(21,48,50)           141.1939         estimate D2E/DX2                !
 ! A314  A(23,48,46)           135.4541         estimate D2E/DX2                !
 ! A315  A(23,48,49)            81.4853         estimate D2E/DX2                !
 ! A316  A(23,48,50)           105.7425         estimate D2E/DX2                !
 ! A317  A(46,48,49)            81.6882         estimate D2E/DX2                !
 ! A318  A(46,48,50)           118.4665         estimate D2E/DX2                !
 ! A319  A(49,48,50)           105.7304         estimate D2E/DX2                !
 ! A320  A(14,51,22)            95.2664         estimate D2E/DX2                !
 ! A321  A(14,51,52)            90.9199         estimate D2E/DX2                !
 ! A322  A(14,51,60)           116.923          estimate D2E/DX2                !
 ! A323  A(14,51,63)           134.3491         estimate D2E/DX2                !
 ! A324  A(22,51,52)           133.9665         estimate D2E/DX2                !
 ! A325  A(22,51,54)           147.6391         estimate D2E/DX2                !
 ! A326  A(22,51,60)           100.2537         estimate D2E/DX2                !
 ! A327  A(52,51,60)           117.169          estimate D2E/DX2                !
 ! A328  A(52,51,63)            95.3498         estimate D2E/DX2                !
 ! A329  A(54,51,60)            99.8834         estimate D2E/DX2                !
 ! A330  A(54,51,63)           147.7387         estimate D2E/DX2                !
 ! A331  A(60,51,63)            99.9999         estimate D2E/DX2                !
 ! A332  A(12,52,51)            80.5939         estimate D2E/DX2                !
 ! A333  A(12,52,54)            77.0621         estimate D2E/DX2                !
 ! A334  A(14,54,52)            85.1124         estimate D2E/DX2                !
 ! A335  A(14,54,53)           106.0076         estimate D2E/DX2                !
 ! A336  A(14,54,55)           142.8068         estimate D2E/DX2                !
 ! A337  A(14,54,56)            83.1211         estimate D2E/DX2                !
 ! A338  A(14,54,57)           133.4243         estimate D2E/DX2                !
 ! A339  A(51,54,53)            84.2191         estimate D2E/DX2                !
 ! A340  A(51,54,55)           131.4317         estimate D2E/DX2                !
 ! A341  A(51,54,56)           132.1522         estimate D2E/DX2                !
 ! A342  A(52,54,53)           105.3719         estimate D2E/DX2                !
 ! A343  A(52,54,55)            82.3651         estimate D2E/DX2                !
 ! A344  A(52,54,56)           144.0923         estimate D2E/DX2                !
 ! A345  A(52,54,57)           132.2938         estimate D2E/DX2                !
 ! A346  A(53,54,55)           111.0574         estimate D2E/DX2                !
 ! A347  A(53,54,56)           110.4688         estimate D2E/DX2                !
 ! A348  A(53,54,57)            91.0255         estimate D2E/DX2                !
 ! A349  A(55,54,56)            86.842          estimate D2E/DX2                !
 ! A350  A(27,55,54)            77.6326         estimate D2E/DX2                !
 ! A351  A(27,55,57)            79.7271         estimate D2E/DX2                !
 ! A352  A(27,56,54)            77.8205         estimate D2E/DX2                !
 ! A353  A(27,56,57)            79.7548         estimate D2E/DX2                !
 ! A354  A(31,57,54)           149.5898         estimate D2E/DX2                !
 ! A355  A(31,57,55)           133.4362         estimate D2E/DX2                !
 ! A356  A(31,57,56)            96.7558         estimate D2E/DX2                !
 ! A357  A(31,57,58)           101.3293         estimate D2E/DX2                !
 ! A358  A(54,57,58)            97.8762         estimate D2E/DX2                !
 ! A359  A(54,57,64)           145.6584         estimate D2E/DX2                !
 ! A360  A(55,57,56)            91.7226         estimate D2E/DX2                !
 ! A361  A(55,57,58)           115.4648         estimate D2E/DX2                !
 ! A362  A(55,57,64)            92.7465         estimate D2E/DX2                !
 ! A363  A(56,57,58)           116.3221         estimate D2E/DX2                !
 ! A364  A(56,57,64)           134.0764         estimate D2E/DX2                !
 ! A365  A(58,57,64)           102.5925         estimate D2E/DX2                !
 ! A366  A(42,61,65)            93.651          estimate D2E/DX2                !
 ! A367  A(18,62,39)            88.6934         estimate D2E/DX2                !
 ! A368  A(21,63,51)            88.0145         estimate D2E/DX2                !
 ! A369  A(30,64,57)            87.9917         estimate D2E/DX2                !
 ! A370  A(45,65,61)            98.6937         estimate D2E/DX2                !
 ! A371  A(45,65,67)           152.5859         estimate D2E/DX2                !
 ! A372  A(47,65,61)           113.4042         estimate D2E/DX2                !
 ! A373  A(47,65,66)            98.6331         estimate D2E/DX2                !
 ! A374  A(47,65,67)           111.4255         estimate D2E/DX2                !
 ! A375  A(61,65,66)           113.0332         estimate D2E/DX2                !
 ! A376  A(61,65,67)           108.7203         estimate D2E/DX2                !
 ! A377  A(66,65,67)           111.4085         estimate D2E/DX2                !
 ! A378  A(45,66,68)           100.5474         estimate D2E/DX2                !
 ! A379  A(65,66,68)            83.9403         estimate D2E/DX2                !
 ! A380  A(65,67,69)           110.0            estimate D2E/DX2                !
 ! A381  L(51,54,57,53,-1)     175.2446         estimate D2E/DX2                !
 ! A382  L(51,54,57,53,-2)     179.4137         estimate D2E/DX2                !
 ! D1    D(3,1,2,12)           178.5422         estimate D2E/DX2                !
 ! D2    D(4,1,2,12)           -27.9424         estimate D2E/DX2                !
 ! D3    D(5,1,2,12)            41.3033         estimate D2E/DX2                !
 ! D4    D(8,1,2,12)           -97.6921         estimate D2E/DX2                !
 ! D5    D(46,1,2,12)          110.6827         estimate D2E/DX2                !
 ! D6    D(2,1,3,45)           179.4275         estimate D2E/DX2                !
 ! D7    D(2,1,3,48)           -97.5019         estimate D2E/DX2                !
 ! D8    D(4,1,3,45)            26.2231         estimate D2E/DX2                !
 ! D9    D(4,1,3,48)           109.2938         estimate D2E/DX2                !
 ! D10   D(5,1,3,45)          -111.2            estimate D2E/DX2                !
 ! D11   D(5,1,3,48)           -28.1293         estimate D2E/DX2                !
 ! D12   D(8,1,3,45)            96.4406         estimate D2E/DX2                !
 ! D13   D(8,1,3,48)           179.5112         estimate D2E/DX2                !
 ! D14   D(21,1,3,45)         -131.0492         estimate D2E/DX2                !
 ! D15   D(21,1,3,48)          -47.9786         estimate D2E/DX2                !
 ! D16   D(46,1,3,45)          -42.2237         estimate D2E/DX2                !
 ! D17   D(46,1,3,48)           40.8469         estimate D2E/DX2                !
 ! D18   D(2,1,4,6)           -111.1313         estimate D2E/DX2                !
 ! D19   D(2,1,4,9)            -28.6942         estimate D2E/DX2                !
 ! D20   D(3,1,4,6)             29.4721         estimate D2E/DX2                !
 ! D21   D(3,1,4,9)            111.9091         estimate D2E/DX2                !
 ! D22   D(5,1,4,6)           -179.7975         estimate D2E/DX2                !
 ! D23   D(5,1,4,9)            -97.3604         estimate D2E/DX2                !
 ! D24   D(8,1,4,6)            -41.1939         estimate D2E/DX2                !
 ! D25   D(8,1,4,9)             41.2432         estimate D2E/DX2                !
 ! D26   D(21,1,4,6)           178.1857         estimate D2E/DX2                !
 ! D27   D(21,1,4,9)           -99.3772         estimate D2E/DX2                !
 ! D28   D(46,1,4,6)            96.9749         estimate D2E/DX2                !
 ! D29   D(46,1,4,9)           179.4119         estimate D2E/DX2                !
 ! D30   D(2,1,5,12)           -41.2898         estimate D2E/DX2                !
 ! D31   D(3,1,5,12)          -111.3293         estimate D2E/DX2                !
 ! D32   D(4,1,5,12)            97.0684         estimate D2E/DX2                !
 ! D33   D(8,1,5,12)            27.3915         estimate D2E/DX2                !
 ! D34   D(46,1,5,12)         -179.4187         estimate D2E/DX2                !
 ! D35   D(2,1,8,6)            179.244          estimate D2E/DX2                !
 ! D36   D(2,1,8,9)             96.7734         estimate D2E/DX2                !
 ! D37   D(3,1,8,6)            -97.3707         estimate D2E/DX2                !
 ! D38   D(3,1,8,9)           -179.8413         estimate D2E/DX2                !
 ! D39   D(4,1,8,6)             41.137          estimate D2E/DX2                !
 ! D40   D(4,1,8,9)            -41.3336         estimate D2E/DX2                !
 ! D41   D(5,1,8,6)            111.0661         estimate D2E/DX2                !
 ! D42   D(5,1,8,9)             28.5955         estimate D2E/DX2                !
 ! D43   D(21,1,8,6)          -178.0505         estimate D2E/DX2                !
 ! D44   D(21,1,8,9)            99.4789         estimate D2E/DX2                !
 ! D45   D(46,1,8,6)           -29.358          estimate D2E/DX2                !
 ! D46   D(46,1,8,9)          -111.8286         estimate D2E/DX2                !
 ! D47   D(3,1,21,22)          -90.4352         estimate D2E/DX2                !
 ! D48   D(3,1,21,23)           -1.4801         estimate D2E/DX2                !
 ! D49   D(3,1,21,48)           40.3805         estimate D2E/DX2                !
 ! D50   D(3,1,21,49)           82.0593         estimate D2E/DX2                !
 ! D51   D(3,1,21,63)          169.7669         estimate D2E/DX2                !
 ! D52   D(4,1,21,22)          110.7902         estimate D2E/DX2                !
 ! D53   D(4,1,21,23)         -160.2548         estimate D2E/DX2                !
 ! D54   D(4,1,21,48)         -118.3942         estimate D2E/DX2                !
 ! D55   D(4,1,21,49)          -76.7154         estimate D2E/DX2                !
 ! D56   D(4,1,21,63)           10.9923         estimate D2E/DX2                !
 ! D57   D(8,1,21,22)          -11.9683         estimate D2E/DX2                !
 ! D58   D(8,1,21,23)           76.9868         estimate D2E/DX2                !
 ! D59   D(8,1,21,48)          118.8474         estimate D2E/DX2                !
 ! D60   D(8,1,21,49)          160.5262         estimate D2E/DX2                !
 ! D61   D(8,1,21,63)         -111.7661         estimate D2E/DX2                !
 ! D62   D(46,1,21,22)        -170.5772         estimate D2E/DX2                !
 ! D63   D(46,1,21,23)         -81.6221         estimate D2E/DX2                !
 ! D64   D(46,1,21,48)         -39.7616         estimate D2E/DX2                !
 ! D65   D(46,1,21,49)           1.9173         estimate D2E/DX2                !
 ! D66   D(46,1,21,63)          89.6249         estimate D2E/DX2                !
 ! D67   D(2,1,46,45)          111.0994         estimate D2E/DX2                !
 ! D68   D(2,1,46,48)           27.9089         estimate D2E/DX2                !
 ! D69   D(3,1,46,45)           42.3071         estimate D2E/DX2                !
 ! D70   D(3,1,46,48)          -40.8834         estimate D2E/DX2                !
 ! D71   D(4,1,46,45)          -96.8958         estimate D2E/DX2                !
 ! D72   D(4,1,46,48)          179.9137         estimate D2E/DX2                !
 ! D73   D(5,1,46,45)          179.891          estimate D2E/DX2                !
 ! D74   D(5,1,46,48)           96.7005         estimate D2E/DX2                !
 ! D75   D(8,1,46,45)          -26.7576         estimate D2E/DX2                !
 ! D76   D(8,1,46,48)         -109.9481         estimate D2E/DX2                !
 ! D77   D(21,1,46,45)         130.4096         estimate D2E/DX2                !
 ! D78   D(21,1,46,48)          47.2191         estimate D2E/DX2                !
 ! D79   D(1,2,12,5)           -41.3215         estimate D2E/DX2                !
 ! D80   D(1,2,12,11)           28.0126         estimate D2E/DX2                !
 ! D81   D(1,2,12,14)         -179.1151         estimate D2E/DX2                !
 ! D82   D(1,2,12,15)           96.5013         estimate D2E/DX2                !
 ! D83   D(1,2,12,52)         -109.1057         estimate D2E/DX2                !
 ! D84   D(21,2,12,5)           38.8997         estimate D2E/DX2                !
 ! D85   D(21,2,12,11)         108.2338         estimate D2E/DX2                !
 ! D86   D(21,2,12,14)         -98.8939         estimate D2E/DX2                !
 ! D87   D(21,2,12,15)         176.7225         estimate D2E/DX2                !
 ! D88   D(21,2,12,52)         -28.8846         estimate D2E/DX2                !
 ! D89   D(12,2,21,5)          -39.4172         estimate D2E/DX2                !
 ! D90   D(12,2,21,22)          91.6228         estimate D2E/DX2                !
 ! D91   D(12,2,21,23)         177.7589         estimate D2E/DX2                !
 ! D92   D(12,2,21,48)        -132.5489         estimate D2E/DX2                !
 ! D93   D(12,2,21,49)        -109.4963         estimate D2E/DX2                !
 ! D94   D(12,2,21,63)          52.8132         estimate D2E/DX2                !
 ! D95   D(1,3,45,43)          -96.2415         estimate D2E/DX2                !
 ! D96   D(1,3,45,44)          -27.6852         estimate D2E/DX2                !
 ! D97   D(1,3,45,46)           43.2079         estimate D2E/DX2                !
 ! D98   D(1,3,45,47)          114.7065         estimate D2E/DX2                !
 ! D99   D(1,3,45,65)          172.7122         estimate D2E/DX2                !
 ! D100  D(1,3,45,66)         -178.0308         estimate D2E/DX2                !
 ! D101  D(48,3,45,43)        -179.6079         estimate D2E/DX2                !
 ! D102  D(48,3,45,44)        -111.0515         estimate D2E/DX2                !
 ! D103  D(48,3,45,46)         -40.1584         estimate D2E/DX2                !
 ! D104  D(48,3,45,47)          31.3402         estimate D2E/DX2                !
 ! D105  D(48,3,45,65)          89.3459         estimate D2E/DX2                !
 ! D106  D(48,3,45,66)          98.6029         estimate D2E/DX2                !
 ! D107  D(1,3,48,21)           48.13           estimate D2E/DX2                !
 ! D108  D(1,3,48,23)           96.533          estimate D2E/DX2                !
 ! D109  D(1,3,48,46)          -41.8612         estimate D2E/DX2                !
 ! D110  D(1,3,48,49)           28.3896         estimate D2E/DX2                !
 ! D111  D(1,3,48,50)         -160.3389         estimate D2E/DX2                !
 ! D112  D(45,3,48,21)         130.2226         estimate D2E/DX2                !
 ! D113  D(45,3,48,23)         178.6256         estimate D2E/DX2                !
 ! D114  D(45,3,48,46)          40.2314         estimate D2E/DX2                !
 ! D115  D(45,3,48,49)         110.4822         estimate D2E/DX2                !
 ! D116  D(45,3,48,50)         -78.2464         estimate D2E/DX2                !
 ! D117  D(1,4,6,7)           -179.5735         estimate D2E/DX2                !
 ! D118  D(1,4,6,8)             41.2265         estimate D2E/DX2                !
 ! D119  D(1,4,6,16)           112.6561         estimate D2E/DX2                !
 ! D120  D(1,4,6,18)          -175.0089         estimate D2E/DX2                !
 ! D121  D(1,4,6,43)           -28.4334         estimate D2E/DX2                !
 ! D122  D(1,4,6,44)           -96.0798         estimate D2E/DX2                !
 ! D123  D(9,4,6,7)             97.345          estimate D2E/DX2                !
 ! D124  D(9,4,6,8)            -41.855          estimate D2E/DX2                !
 ! D125  D(9,4,6,16)            29.5745         estimate D2E/DX2                !
 ! D126  D(9,4,6,18)           101.9095         estimate D2E/DX2                !
 ! D127  D(9,4,6,43)          -111.5149         estimate D2E/DX2                !
 ! D128  D(9,4,6,44)          -179.1613         estimate D2E/DX2                !
 ! D129  D(1,4,9,8)            -41.2569         estimate D2E/DX2                !
 ! D130  D(1,4,9,10)          -178.7363         estimate D2E/DX2                !
 ! D131  D(1,4,9,11)            96.5314         estimate D2E/DX2                !
 ! D132  D(1,4,9,15)            29.5565         estimate D2E/DX2                !
 ! D133  D(1,4,9,26)          -110.5268         estimate D2E/DX2                !
 ! D134  D(6,4,9,8)             41.8357         estimate D2E/DX2                !
 ! D135  D(6,4,9,10)           -95.6436         estimate D2E/DX2                !
 ! D136  D(6,4,9,11)           179.6241         estimate D2E/DX2                !
 ! D137  D(6,4,9,15)           112.6491         estimate D2E/DX2                !
 ! D138  D(6,4,9,26)           -27.4342         estimate D2E/DX2                !
 ! D139  D(1,5,12,2)            41.3828         estimate D2E/DX2                !
 ! D140  D(1,5,12,11)          -95.6734         estimate D2E/DX2                !
 ! D141  D(1,5,12,14)          110.4904         estimate D2E/DX2                !
 ! D142  D(1,5,12,15)          -27.2392         estimate D2E/DX2                !
 ! D143  D(1,5,12,52)          179.1897         estimate D2E/DX2                !
 ! D144  D(21,5,12,2)          -38.8678         estimate D2E/DX2                !
 ! D145  D(21,5,12,11)        -175.924          estimate D2E/DX2                !
 ! D146  D(21,5,12,14)          30.2397         estimate D2E/DX2                !
 ! D147  D(21,5,12,15)        -107.4899         estimate D2E/DX2                !
 ! D148  D(21,5,12,52)          98.9391         estimate D2E/DX2                !
 ! D149  D(12,5,21,2)           39.4152         estimate D2E/DX2                !
 ! D150  D(12,5,21,22)         -51.958          estimate D2E/DX2                !
 ! D151  D(12,5,21,23)         111.4699         estimate D2E/DX2                !
 ! D152  D(12,5,21,48)         133.5155         estimate D2E/DX2                !
 ! D153  D(12,5,21,49)        -177.2386         estimate D2E/DX2                !
 ! D154  D(12,5,21,63)         -91.6616         estimate D2E/DX2                !
 ! D155  D(4,6,7,13)           -99.1358         estimate D2E/DX2                !
 ! D156  D(8,6,7,13)           -30.0694         estimate D2E/DX2                !
 ! D157  D(16,6,7,13)           41.2984         estimate D2E/DX2                !
 ! D158  D(43,6,7,13)          110.5907         estimate D2E/DX2                !
 ! D159  D(44,6,7,13)          176.901          estimate D2E/DX2                !
 ! D160  D(4,6,8,1)            -41.2179         estimate D2E/DX2                !
 ! D161  D(4,6,8,9)             41.9532         estimate D2E/DX2                !
 ! D162  D(7,6,8,1)           -110.2765         estimate D2E/DX2                !
 ! D163  D(7,6,8,9)            -27.1055         estimate D2E/DX2                !
 ! D164  D(16,6,8,1)           179.2352         estimate D2E/DX2                !
 ! D165  D(16,6,8,9)           -97.5937         estimate D2E/DX2                !
 ! D166  D(18,6,8,1)           176.6976         estimate D2E/DX2                !
 ! D167  D(18,6,8,9)          -100.1313         estimate D2E/DX2                !
 ! D168  D(43,6,8,1)            96.1777         estimate D2E/DX2                !
 ! D169  D(43,6,8,9)           179.3488         estimate D2E/DX2                !
 ! D170  D(44,6,8,1)            30.3739         estimate D2E/DX2                !
 ! D171  D(44,6,8,9)           113.545          estimate D2E/DX2                !
 ! D172  D(4,6,16,13)           26.574          estimate D2E/DX2                !
 ! D173  D(7,6,16,13)          -41.3617         estimate D2E/DX2                !
 ! D174  D(8,6,16,13)           97.3209         estimate D2E/DX2                !
 ! D175  D(43,6,16,13)         179.6552         estimate D2E/DX2                !
 ! D176  D(44,6,16,13)        -112.7472         estimate D2E/DX2                !
 ! D177  D(4,6,18,19)           76.5207         estimate D2E/DX2                !
 ! D178  D(4,6,18,20)          159.0836         estimate D2E/DX2                !
 ! D179  D(4,6,18,40)          -15.1608         estimate D2E/DX2                !
 ! D180  D(4,6,18,42)          118.5535         estimate D2E/DX2                !
 ! D181  D(4,6,18,62)         -112.325          estimate D2E/DX2                !
 ! D182  D(8,6,18,19)         -157.6964         estimate D2E/DX2                !
 ! D183  D(8,6,18,20)          -75.1334         estimate D2E/DX2                !
 ! D184  D(8,6,18,40)          110.6222         estimate D2E/DX2                !
 ! D185  D(8,6,18,42)         -115.6635         estimate D2E/DX2                !
 ! D186  D(8,6,18,62)           13.4579         estimate D2E/DX2                !
 ! D187  D(43,6,18,19)         -80.3099         estimate D2E/DX2                !
 ! D188  D(43,6,18,20)           2.253          estimate D2E/DX2                !
 ! D189  D(43,6,18,40)        -171.9914         estimate D2E/DX2                !
 ! D190  D(43,6,18,42)         -38.277          estimate D2E/DX2                !
 ! D191  D(43,6,18,62)          90.8444         estimate D2E/DX2                !
 ! D192  D(44,6,18,19)          -0.9064         estimate D2E/DX2                !
 ! D193  D(44,6,18,20)          81.6565         estimate D2E/DX2                !
 ! D194  D(44,6,18,40)         -92.5879         estimate D2E/DX2                !
 ! D195  D(44,6,18,42)          41.1265         estimate D2E/DX2                !
 ! D196  D(44,6,18,62)         170.2479         estimate D2E/DX2                !
 ! D197  D(4,6,43,42)         -109.5183         estimate D2E/DX2                !
 ! D198  D(4,6,43,45)          -27.4571         estimate D2E/DX2                !
 ! D199  D(7,6,43,42)           27.0713         estimate D2E/DX2                !
 ! D200  D(7,6,43,45)          109.1325         estimate D2E/DX2                !
 ! D201  D(8,6,43,42)         -179.2727         estimate D2E/DX2                !
 ! D202  D(8,6,43,45)          -97.2115         estimate D2E/DX2                !
 ! D203  D(16,6,43,42)          96.0279         estimate D2E/DX2                !
 ! D204  D(16,6,43,45)         178.0891         estimate D2E/DX2                !
 ! D205  D(18,6,43,42)          46.0839         estimate D2E/DX2                !
 ! D206  D(18,6,43,45)         128.1451         estimate D2E/DX2                !
 ! D207  D(44,6,43,42)         -40.4456         estimate D2E/DX2                !
 ! D208  D(44,6,43,45)          41.6156         estimate D2E/DX2                !
 ! D209  D(4,6,44,42)          177.9634         estimate D2E/DX2                !
 ! D210  D(4,6,44,45)           96.1587         estimate D2E/DX2                !
 ! D211  D(7,6,44,42)          -99.4399         estimate D2E/DX2                !
 ! D212  D(7,6,44,45)          178.7554         estimate D2E/DX2                !
 ! D213  D(8,6,44,42)          106.84           estimate D2E/DX2                !
 ! D214  D(8,6,44,45)           25.0353         estimate D2E/DX2                !
 ! D215  D(16,6,44,42)         -28.5712         estimate D2E/DX2                !
 ! D216  D(16,6,44,45)        -110.3759         estimate D2E/DX2                !
 ! D217  D(18,6,44,42)         -49.5371         estimate D2E/DX2                !
 ! D218  D(18,6,44,45)        -131.3418         estimate D2E/DX2                !
 ! D219  D(43,6,44,42)          40.1894         estimate D2E/DX2                !
 ! D220  D(43,6,44,45)         -41.6153         estimate D2E/DX2                !
 ! D221  D(6,7,13,10)           97.0068         estimate D2E/DX2                !
 ! D222  D(6,7,13,16)          -41.5906         estimate D2E/DX2                !
 ! D223  D(6,7,13,26)           29.2849         estimate D2E/DX2                !
 ! D224  D(6,7,13,37)          179.2958         estimate D2E/DX2                !
 ! D225  D(6,7,13,38)         -110.2423         estimate D2E/DX2                !
 ! D226  D(18,7,13,10)         176.8244         estimate D2E/DX2                !
 ! D227  D(18,7,13,16)          38.2269         estimate D2E/DX2                !
 ! D228  D(18,7,13,26)         109.1024         estimate D2E/DX2                !
 ! D229  D(18,7,13,37)        -100.8866         estimate D2E/DX2                !
 ! D230  D(18,7,13,38)         -30.4247         estimate D2E/DX2                !
 ! D231  D(13,7,18,16)         -38.3089         estimate D2E/DX2                !
 ! D232  D(13,7,18,19)         179.428          estimate D2E/DX2                !
 ! D233  D(13,7,18,20)        -106.953          estimate D2E/DX2                !
 ! D234  D(13,7,18,40)          91.8612         estimate D2E/DX2                !
 ! D235  D(13,7,18,42)        -130.411          estimate D2E/DX2                !
 ! D236  D(13,7,18,62)          53.9568         estimate D2E/DX2                !
 ! D237  D(1,8,9,4)             41.2279         estimate D2E/DX2                !
 ! D238  D(1,8,9,10)           112.0325         estimate D2E/DX2                !
 ! D239  D(1,8,9,11)           -27.9666         estimate D2E/DX2                !
 ! D240  D(1,8,9,15)           -96.082          estimate D2E/DX2                !
 ! D241  D(1,8,9,26)           178.9608         estimate D2E/DX2                !
 ! D242  D(6,8,9,4)            -41.7624         estimate D2E/DX2                !
 ! D243  D(6,8,9,10)            29.0422         estimate D2E/DX2                !
 ! D244  D(6,8,9,11)          -110.9569         estimate D2E/DX2                !
 ! D245  D(6,8,9,15)          -179.0723         estimate D2E/DX2                !
 ! D246  D(6,8,9,26)            95.9705         estimate D2E/DX2                !
 ! D247  D(4,9,10,13)           96.4826         estimate D2E/DX2                !
 ! D248  D(4,9,10,24)         -179.7527         estimate D2E/DX2                !
 ! D249  D(8,9,10,13)           26.1177         estimate D2E/DX2                !
 ! D250  D(8,9,10,24)          109.8824         estimate D2E/DX2                !
 ! D251  D(11,9,10,13)         178.7472         estimate D2E/DX2                !
 ! D252  D(11,9,10,24)         -97.4881         estimate D2E/DX2                !
 ! D253  D(15,9,10,13)        -112.2093         estimate D2E/DX2                !
 ! D254  D(15,9,10,24)         -28.4446         estimate D2E/DX2                !
 ! D255  D(26,9,10,13)         -41.4            estimate D2E/DX2                !
 ! D256  D(26,9,10,24)          42.3647         estimate D2E/DX2                !
 ! D257  D(4,9,11,12)          -97.3826         estimate D2E/DX2                !
 ! D258  D(4,9,11,27)         -179.9174         estimate D2E/DX2                !
 ! D259  D(8,9,11,12)          -28.1932         estimate D2E/DX2                !
 ! D260  D(8,9,11,27)         -110.7281         estimate D2E/DX2                !
 ! D261  D(10,9,11,12)         179.1285         estimate D2E/DX2                !
 ! D262  D(10,9,11,27)          96.5937         estimate D2E/DX2                !
 ! D263  D(15,9,11,12)          40.9176         estimate D2E/DX2                !
 ! D264  D(15,9,11,27)         -41.6173         estimate D2E/DX2                !
 ! D265  D(26,9,11,12)         110.8684         estimate D2E/DX2                !
 ! D266  D(26,9,11,27)          28.3336         estimate D2E/DX2                !
 ! D267  D(4,9,15,12)           26.6234         estimate D2E/DX2                !
 ! D268  D(4,9,15,27)          109.2283         estimate D2E/DX2                !
 ! D269  D(8,9,15,12)           97.0162         estimate D2E/DX2                !
 ! D270  D(8,9,15,27)          179.6211         estimate D2E/DX2                !
 ! D271  D(10,9,15,12)        -111.4            estimate D2E/DX2                !
 ! D272  D(10,9,15,27)         -28.7951         estimate D2E/DX2                !
 ! D273  D(11,9,15,12)         -40.9332         estimate D2E/DX2                !
 ! D274  D(11,9,15,27)          41.6717         estimate D2E/DX2                !
 ! D275  D(26,9,15,12)         179.2974         estimate D2E/DX2                !
 ! D276  D(26,9,15,27)         -98.0977         estimate D2E/DX2                !
 ! D277  D(4,9,26,13)          -28.1502         estimate D2E/DX2                !
 ! D278  D(4,9,26,24)         -111.5926         estimate D2E/DX2                !
 ! D279  D(8,9,26,13)          -97.4007         estimate D2E/DX2                !
 ! D280  D(8,9,26,24)          179.157          estimate D2E/DX2                !
 ! D281  D(10,9,26,13)          41.0734         estimate D2E/DX2                !
 ! D282  D(10,9,26,24)         -42.369          estimate D2E/DX2                !
 ! D283  D(11,9,26,13)         110.6925         estimate D2E/DX2                !
 ! D284  D(11,9,26,24)          27.2501         estimate D2E/DX2                !
 ! D285  D(15,9,26,13)         179.1976         estimate D2E/DX2                !
 ! D286  D(15,9,26,24)          95.7552         estimate D2E/DX2                !
 ! D287  D(9,10,13,7)          -96.1775         estimate D2E/DX2                !
 ! D288  D(9,10,13,16)         -27.1434         estimate D2E/DX2                !
 ! D289  D(9,10,13,26)          41.3873         estimate D2E/DX2                !
 ! D290  D(9,10,13,37)        -179.8045         estimate D2E/DX2                !
 ! D291  D(9,10,13,38)         111.9922         estimate D2E/DX2                !
 ! D292  D(24,10,13,7)        -178.4509         estimate D2E/DX2                !
 ! D293  D(24,10,13,16)       -109.4168         estimate D2E/DX2                !
 ! D294  D(24,10,13,26)        -40.8861         estimate D2E/DX2                !
 ! D295  D(24,10,13,37)         97.9221         estimate D2E/DX2                !
 ! D296  D(24,10,13,38)         29.7188         estimate D2E/DX2                !
 ! D297  D(9,10,24,17)        -112.0917         estimate D2E/DX2                !
 ! D298  D(9,10,24,25)         179.9789         estimate D2E/DX2                !
 ! D299  D(9,10,24,26)         -42.9312         estimate D2E/DX2                !
 ! D300  D(9,10,24,28)          95.7135         estimate D2E/DX2                !
 ! D301  D(9,10,24,29)          30.301          estimate D2E/DX2                !
 ! D302  D(13,10,24,17)        -27.7243         estimate D2E/DX2                !
 ! D303  D(13,10,24,25)        -95.6537         estimate D2E/DX2                !
 ! D304  D(13,10,24,26)         41.4362         estimate D2E/DX2                !
 ! D305  D(13,10,24,28)       -179.9192         estimate D2E/DX2                !
 ! D306  D(13,10,24,29)        114.6684         estimate D2E/DX2                !
 ! D307  D(9,11,12,2)           27.5329         estimate D2E/DX2                !
 ! D308  D(9,11,12,5)           96.5395         estimate D2E/DX2                !
 ! D309  D(9,11,12,14)        -110.9229         estimate D2E/DX2                !
 ! D310  D(9,11,12,15)         -41.247          estimate D2E/DX2                !
 ! D311  D(9,11,12,52)         178.179          estimate D2E/DX2                !
 ! D312  D(27,11,12,2)         111.2289         estimate D2E/DX2                !
 ! D313  D(27,11,12,5)        -179.7645         estimate D2E/DX2                !
 ! D314  D(27,11,12,14)        -27.2269         estimate D2E/DX2                !
 ! D315  D(27,11,12,15)         42.449          estimate D2E/DX2                !
 ! D316  D(27,11,12,52)        -98.125          estimate D2E/DX2                !
 ! D317  D(9,11,27,15)          41.9534         estimate D2E/DX2                !
 ! D318  D(9,11,27,28)         -94.2015         estimate D2E/DX2                !
 ! D319  D(9,11,27,29)         -26.7841         estimate D2E/DX2                !
 ! D320  D(9,11,27,55)        -179.0368         estimate D2E/DX2                !
 ! D321  D(9,11,27,56)         112.7366         estimate D2E/DX2                !
 ! D322  D(12,11,27,15)        -42.4475         estimate D2E/DX2                !
 ! D323  D(12,11,27,28)       -178.6023         estimate D2E/DX2                !
 ! D324  D(12,11,27,29)       -111.185          estimate D2E/DX2                !
 ! D325  D(12,11,27,55)         96.5623         estimate D2E/DX2                !
 ! D326  D(12,11,27,56)         28.3357         estimate D2E/DX2                !
 ! D327  D(2,12,14,51)         101.4165         estimate D2E/DX2                !
 ! D328  D(2,12,14,54)        -178.8278         estimate D2E/DX2                !
 ! D329  D(5,12,14,51)          32.6723         estimate D2E/DX2                !
 ! D330  D(5,12,14,54)         112.428          estimate D2E/DX2                !
 ! D331  D(11,12,14,51)       -107.4498         estimate D2E/DX2                !
 ! D332  D(11,12,14,54)        -27.6941         estimate D2E/DX2                !
 ! D333  D(15,12,14,51)       -176.2105         estimate D2E/DX2                !
 ! D334  D(15,12,14,54)        -96.4548         estimate D2E/DX2                !
 ! D335  D(52,12,14,51)        -35.7151         estimate D2E/DX2                !
 ! D336  D(52,12,14,54)         44.0406         estimate D2E/DX2                !
 ! D337  D(2,12,15,9)          -96.0594         estimate D2E/DX2                !
 ! D338  D(2,12,15,27)        -179.711          estimate D2E/DX2                !
 ! D339  D(5,12,15,9)          -27.66           estimate D2E/DX2                !
 ! D340  D(5,12,15,27)        -111.3117         estimate D2E/DX2                !
 ! D341  D(11,12,15,9)          41.1594         estimate D2E/DX2                !
 ! D342  D(11,12,15,27)        -42.4922         estimate D2E/DX2                !
 ! D343  D(14,12,15,9)        -178.8341         estimate D2E/DX2                !
 ! D344  D(14,12,15,27)         97.5142         estimate D2E/DX2                !
 ! D345  D(52,12,15,9)         111.4202         estimate D2E/DX2                !
 ! D346  D(52,12,15,27)         27.7685         estimate D2E/DX2                !
 ! D347  D(2,12,52,51)         -34.356          estimate D2E/DX2                !
 ! D348  D(2,12,52,54)        -114.1772         estimate D2E/DX2                !
 ! D349  D(5,12,52,51)        -102.1719         estimate D2E/DX2                !
 ! D350  D(5,12,52,54)         178.0069         estimate D2E/DX2                !
 ! D351  D(11,12,52,51)        175.1933         estimate D2E/DX2                !
 ! D352  D(11,12,52,54)         95.3721         estimate D2E/DX2                !
 ! D353  D(14,12,52,51)         35.7368         estimate D2E/DX2                !
 ! D354  D(14,12,52,54)        -44.0844         estimate D2E/DX2                !
 ! D355  D(15,12,52,51)        106.0645         estimate D2E/DX2                !
 ! D356  D(15,12,52,54)         26.2433         estimate D2E/DX2                !
 ! D357  D(7,13,16,6)           41.59           estimate D2E/DX2                !
 ! D358  D(7,13,16,18)         -37.9177         estimate D2E/DX2                !
 ! D359  D(10,13,16,6)         -27.1122         estimate D2E/DX2                !
 ! D360  D(10,13,16,18)       -106.6199         estimate D2E/DX2                !
 ! D361  D(26,13,16,6)         -95.0773         estimate D2E/DX2                !
 ! D362  D(26,13,16,18)       -174.585          estimate D2E/DX2                !
[...]
 ,-0.00000483,0.00000806,0.00000283,-0.00028446,-0.01880241,0.01028065,
 -0.00335639,-0.00088037,0.00277710,-0.07389547,0.22511296,0.00017967,-
 0.00027434,0.00046884,0.00002256,0.00008162,0.00005811,-0.00030617,0.0
 0007270,-0.00010157,0.00002496,-0.00002098,0.00000447,-0.00004369,-0.0
 0000708,-0.00008037,-0.00042007,0.00040353,-0.00006671,-0.00005725,-0.
 00005519,-0.00001048,-0.00001952,-0.00003055,-0.00001481,-0.00000178,0
 .00004255,-0.00007034,-0.00001669,-0.00002596,0.00002259,-0.00003321,-
 0.00001616,0.00005116,0.00015008,0.00006027,-0.00008728,0.00013156,0.0
 0013164,-0.00013972,-0.00002243,-0.00002190,-0.00001953,-0.00003275,-0
 .00003878,0.00003170,-0.00007986,0.00006422,0.00005906,0.00001580,-0.0
 0000376,-0.00002050,0.00008884,-0.00046429,0.00019015,-0.00029079,-0.0
 0059721,-0.00053623,-0.00021256,0.00019673,0.00051174,-0.00030361,-0.0
 0015948,-0.00019479,0.00002834,-0.00003590,0.00000902,-0.00013576,-0.0
 0007808,0.00006898,-0.00003178,0.00001840,-0.00003617,-0.00000055,0.00
 001955,0.00000296,-0.00001747,-0.00001696,0.00002362,0.00009106,0.0000
 3633,-0.00007326,-0.00001800,-0.00000708,0.00003266,-0.00001297,-0.000
 02531,0.00002811,0.00002538,0.00003267,0.00001935,-0.00000153,0.000017
 85,0.00000126,0.00002689,0.00000996,0.00002475,-0.00004098,-0.00010773
 ,0.00007935,-0.00001514,0.00000434,-0.00004532,-0.00002143,0.00006820,
 -0.00008813,0.00001208,-0.00006866,0.00009051,-0.00001158,0.00001673,0
 .00002956,-0.00001238,-0.00002437,-0.00001181,0.00008446,-0.00008312,0
 .00010857,0.00000941,-0.00007580,-0.00007583,-0.00007399,0.00009997,-0
 .00013145,-0.00040154,0.00008972,-0.00049105,0.00087545,-0.00031729,0.
 00031095,0.00031961,0.00027838,0.00081897,0.00362778,0.00079793,-0.003
 50400,-0.00019170,0.00003592,0.00025368,0.00163458,-0.00340304,0.00022
 473,0.00099856,-0.00007596,-0.00012281,0.00030514,0.00002262,0.0000006
 2,-0.00073452,-0.00017329,0.00051846,-0.00015196,-0.00001708,0.0000319
 3,-0.00002132,0.00002744,0.00002933,0.00009727,-0.00003461,0.00003219,
 -0.00009347,0.00009695,-0.00011300,-0.00002015,0.00000135,0.00002867,-
 0.00002057,-0.00002601,0.00001529,-0.00009213,-0.00000355,0.00002266,0
 .00010592,-0.00001695,0.00000135,-0.00001572,0.00008242,-0.00010074,0.
 00016348,-0.00005391,0.00005043,-0.00255428,0.00258713,-0.00574873,0.0
 0002444,0.00008394,0.00001437,0.00003068,0.00001578,-0.00000104,-0.000
 00360,-0.00001282,-0.00001481,0.05535384,0.00938746,-0.05906777,-0.000
 12804,0.00199345,0.00228076,-0.03935206,-0.07048654,0.08520244,-0.0000
 0598,0.00017652,0.00009362,-0.00004809,-0.00003217,0.00003720,0.000772
 56,0.00039252,-0.00007132,-0.00005508,-0.00000314,-0.00008133,-0.00000
 746,0.00002922,-0.00002465,-0.00006746,-0.00005171,0.00005395,-0.00000
 730,-0.00004893,0.00010999,0.00010551,-0.00002226,-0.00005609,0.000011
 35,0.00001405,0.00004161,-0.00000045,-0.00000880,-0.00001094,-0.000002
 19,-0.00000331,-0.00000783,-0.00001297,-0.00001145,-0.00000089,0.00002
 063,0.00001700,0.00003536,-0.00000146,0.00000708,0.00000090,0.00000546
 ,0.00000190,-0.00000590,0.00004512,0.00010916,-0.00008311,0.00000788,-
 0.00000217,0.00000598,0.00012523,0.00002332,0.00004963,-0.00031776,0.0
 0032382,0.00036320,-0.00021148,-0.00011097,-0.00018929,0.00011493,-0.0
 0017873,-0.00008359,-0.00000144,-0.00004748,0.00003045,-0.00022428,0.0
 0004564,0.00002424,0.00000306,-0.00000116,-0.00000760,0.00000302,-0.00
 000193,0.00000251,-0.00001348,0.00000943,0.00001262,0.00000293,-0.0000
 0188,0.00000110,-0.00000206,-0.00000322,-0.00000225,-0.00000062,0.0000
 0668,0.00000171,-0.00000063,0.00000191,-0.00000107,0.00000081,-0.00000
 078,0.00000085,0.00000665,-0.00000111,0.00000364,-0.00002214,-0.000008
 33,0.00000302,0.00000224,0.00000132,0.00000195,-0.00000106,0.00000082,
 -0.00000290,0.00001659,0.00000341,-0.00001072,0.00000376,-0.00000638,-
 0.00000363,-0.00000725,-0.00001664,0.00000158,-0.00003389,0.00001161,0
 .00000081,0.00001022,0.00004303,0.00000524,-0.00000207,0.00000221,-0.0
 0000301,0.00120002,-0.00146356,0.00030794,-0.00045608,0.00053966,0.001
 29084,0.00011152,-0.00005881,-0.00055176,0.00007901,-0.00419403,0.0037
 7811,0.00035944,0.00014734,0.00029854,0.00056338,-0.00066548,-0.000534
 25,-0.00223750,-0.00061833,0.00078865,0.00025545,-0.00005250,-0.000092
 58,0.00163925,0.00036452,-0.00125331,-0.00000731,-0.00001570,0.0000040
 7,-0.00000091,-0.00000167,0.00001029,0.00000168,0.00000049,0.00000017,
 -0.00000166,0.00000926,-0.00000791,-0.00000174,0.00000106,-0.00000080,
 -0.00000117,-0.00000180,0.00000113,-0.00000117,0.00000159,-0.00000045,
 0.00000254,-0.00000038,-0.00000002,0.00000026,0.00000267,-0.00000384,-
 0.00000131,0.00000090,-0.00000110,-0.00076764,-0.00133522,0.00098509,0
 .00001629,-0.00002051,-0.00003818,0.00001241,0.00002123,-0.00002773,0.
 00000063,-0.00000080,0.00000010,-0.00311052,0.00602711,-0.00905014,-0.
 02265391,0.03687331,-0.03280455,-0.00095462,0.00088132,0.00078636,0.02
 560279,0.00009973,-0.00032750,0.00007042,0.00000973,0.00008950,0.00000
 482,-0.00016589,-0.00071006,-0.00003717,-0.00002888,0.00004664,0.00005
 741,0.00003019,-0.00001376,-0.00005101,0.00016248,-0.00038410,0.000021
 74,-0.00000995,0.00002925,0.00003036,0.00002834,0.00004386,0.00003204,
 0.00001827,0.00002991,0.00003405,-0.00000086,-0.00001254,-0.00000359,-
 0.00000158,0.00000688,-0.00001421,-0.00001294,-0.00002567,0.00003595,0
 .00003000,0.00002908,0.00001765,0.00000752,0.00000192,-0.00000017,0.00
 000406,0.00000030,-0.00001405,-0.00004770,-0.00000025,-0.00002420,0.00
 000270,0.00000022,0.00000411,-0.00008268,-0.00008816,-0.00002599,0.000
 04635,0.00000027,-0.00008558,-0.00011600,0.00005629,0.00003192,-0.0000
 4550,0.00006267,0.00000079,-0.00001364,0.00005332,0.00000431,0.0000381
 4,0.00006425,-0.00004395,0.00000495,0.00000256,0.00000460,0.00000393,-
 0.00000521,0.00000023,0.00000315,0.00000083,-0.00000120,-0.00000992,-0
 .00001410,0.00001612,0.00000086,0.00000274,-0.00000831,-0.00000010,0.0
 0000800,-0.00000589,-0.00000650,-0.00000545,-0.00000838,0.00000395,-0.
 00000334,0.00000214,0.00000468,-0.00000111,0.00000100,-0.00001539,0.00
 000757,-0.00000561,0.00000592,0.00000010,0.00000993,0.00000142,-0.0000
 0801,0.00001094,0.00000961,0.00001777,-0.00001965,-0.00000582,-0.00000
 827,0.00001017,0.00000257,-0.00000089,0.00000134,-0.00001781,-0.000001
 57,-0.00000363,-0.00000348,0.00000645,0.00000584,0.00000466,-0.0000055
 5,0.00000754,-0.00107337,-0.00093667,0.00106161,-0.00033341,0.00077176
 ,0.00159756,0.00025920,0.00019717,0.00009747,-0.00056777,0.00022619,-0
 .00258316,0.00005780,0.00016096,0.00000852,0.00107309,-0.00020677,-0.0
 0122016,0.00177469,0.00079106,-0.00082191,-0.00010974,-0.00005315,-0.0
 0007653,-0.00174424,-0.00041318,0.00097603,0.00002215,0.00002290,-0.00
 002771,0.00000420,-0.00000249,-0.00000700,-0.00000786,0.00000583,-0.00
 000770,0.00000119,-0.00003269,0.00004587,0.00000596,0.00000315,-0.0000
 0642,0.00000510,0.00000535,-0.00000714,0.00000734,0.00000605,-0.000010
 00,-0.00001005,0.00000253,-0.00000180,0.00000258,-0.00000982,0.0000117
 5,-0.00002382,0.00000726,-0.00000680,-0.00076741,-0.00055716,-0.000035
 30,0.00000545,-0.00000810,-0.00001148,-0.00001348,-0.00004649,0.000000
 79,0.00000359,0.00000007,0.00000349,0.00187353,0.00623326,-0.00150430,
 0.03830084,-0.14479767,0.11258363,-0.00220206,-0.00005092,-0.00067866,
 -0.03694816,0.13932710,-0.00004718,-0.00010486,-0.00013249,0.00001573,
 -0.00000841,-0.00004224,-0.00016606,0.00004116,0.00023040,0.00003648,-
 0.00002455,0.00007093,0.00003977,-0.00005208,-0.00001170,-0.00009885,0
 .00000954,0.00028995,-0.00006328,0.00000654,-0.00005280,0.00003981,0.0
 0007748,0.00002663,-0.00004413,0.00003755,-0.00002167,0.00001354,0.000
 00411,-0.00000455,0.00000799,-0.00001780,0.00001242,-0.00002112,0.0000
 3524,-0.00005459,-0.00003869,-0.00003848,0.00000466,-0.00000627,-0.000
 00603,0.00000327,0.00000479,-0.00000638,0.00001642,-0.00003923,0.00000
 443,0.00002910,-0.00001040,0.00000079,-0.00000353,0.00006521,0.0000334
 0,-0.00005560,-0.00003180,-0.00022441,-0.00011245,-0.00013926,0.000050
 44,0.00007741,-0.00014192,0.00015207,0.00015920,0.00000734,-0.00003029
 ,-0.00001029,0.00016205,0.00000927,-0.00003951,-0.00001216,-0.00000260
 ,0.00000894,-0.00000382,0.00000538,-0.00000314,0.00001739,0.00000337,0
 .00000367,-0.00000998,0.00002480,-0.00002882,0.00000473,-0.00000381,0.
 00000368,0.00000240,-0.00000744,0.00000329,0.00000574,-0.00000061,0.00
 000697,-0.00000543,0.00000347,-0.00000367,-0.00001414,0.00000021,-0.00
 000792,0.00003623,0.00001061,-0.00000583,-0.00000595,-0.00000159,-0.00
 000461,0.00000141,-0.00000340,0.00000395,-0.00000866,-0.00000441,0.000
 00667,-0.00000724,0.00000868,0.00000100,0.00000417,0.00000617,0.000000
 88,0.00002878,0.00001686,-0.00003299,-0.00000048,-0.00002676,0.0000015
 6,0.00000544,-0.00000970,0.00001233,-0.00076814,-0.00002645,-0.0001060
 6,0.00053709,0.00010434,-0.00139853,0.00018302,0.00013039,0.00015678,-
 0.00066134,0.00294561,-0.00515533,-0.00021910,0.00000228,-0.00014738,0
 .00084999,0.00052996,0.00095446,0.00006205,-0.00018841,0.00017357,-0.0
 0014619,0.00003884,0.00009865,0.00017489,-0.00008664,0.00002948,-0.000
 01091,-0.00001318,0.00003580,-0.00000714,-0.00000035,-0.00000220,-0.00
 000893,-0.00000408,0.00000667,0.00002234,0.00002081,-0.00004116,-0.000
 00485,-0.00000527,0.00000744,-0.00000627,0.00000036,0.00000618,0.00000
 904,-0.00001140,0.00001125,-0.00000760,-0.00000034,0.00000222,-0.00000
 092,-0.00000233,0.00000301,0.00000990,-0.00000322,0.00000282,-0.000536
 33,-0.00074680,0.00025169,0.00001840,0.00000449,0.00001587,0.00000367,
 0.00002217,0.00002929,-0.00000450,0.00000291,-0.00000173,-0.00359843,0
 .00390180,-0.00718975,-0.03135804,0.10349560,-0.10175023,-0.00045459,-
 0.00049733,-0.00038581,0.03601693,-0.10977132,0.11357611,-0.00005488,0
 .00002563,-0.00002293,-0.00000762,-0.00000861,-0.00001198,0.00012298,-
 0.00009575,0.00010624,-0.00002291,-0.00000917,-0.00001817,0.00000578,-
 0.00001848,0.00001279,0.00008285,-0.00001978,0.00007885,-0.00002379,0.
 00000903,0.00000478,0.00001005,-0.00000402,-0.00000614,0.00001090,0.,0
 .00000898,0.00000365,0.00000357,-0.00000075,-0.00000093,0.00000122,0.0
 0000016,-0.00000205,-0.00000603,-0.00000045,-0.00000337,0.00000046,-0.
 00000443,0.00000201,-0.00000126,0.00000505,-0.00000117,0.00000068,-0.0
 0000234,-0.00002148,-0.00000912,-0.00006803,-0.00000259,0.00000047,0.0
 0000174,0.00017789,0.00030525,-0.00002126,0.00011791,-0.00027712,0.000
 24750,0.00018486,0.00009821,0.00003730,0.00003129,0.00010166,0.0000594
 0,-0.00000034,0.00000495,-0.00000539,0.00006994,0.00000591,-0.00000814
 ,0.00000053,0.00000070,-0.00000343,-0.00000184,0.00000052,-0.00000069,
 0.00000212,-0.00000039,0.00000111,0.00000180,-0.00000382,0.00000716,0.
 00000102,0.00000076,0.00000047,0.00000075,-0.00000069,-0.00000128,-0.0
 0000120,0.00000102,0.00000034,-0.00000054,-0.00000012,-0.00000034,-0.0
 0000207,-0.00000064,-0.00000128,0.00000566,0.00000344,-0.00000372,-0.0
 0000006,0.00000003,-0.00000016,0.00000040,-0.00000333,0.00000336,-0.00
 000038,0.00000012,-0.00000426,0.00000166,-0.00000220,-0.00000447,-0.00
 000208,-0.00000321,0.00000576,0.00000110,-0.00000273,0.00000793,-0.000
 03490,-0.00002908,-0.00000244,0.00000278,-0.00000270,0.00000327,-0.000
 65155,0.00151007,-0.00153352,-0.00011404,-0.00038846,-0.00032787,0.000
 15540,0.00011886,0.00000380,0.00036411,0.00040109,0.00016469,0.0000249
 7,-0.00004806,-0.00013783,-0.00155404,0.00259934,-0.00025699,-0.000112
 30,-0.00000397,0.00012033,-0.00012633,-0.00002384,0.00002062,0.0001711
 6,0.00001554,-0.00014747,0.00000209,0.00000320,0.00000110,0.00000314,-
 0.00000207,-0.00000407,-0.00000124,0.00000186,-0.00000255,0.00000046,-
 0.00000292,0.00000084,-0.00000044,0.00000052,0.00000021,-0.00000094,-0
 .00000002,-0.00000075,0.00000477,-0.00000015,-0.00000085,-0.00000292,0
 .00000057,-0.00000014,0.00000022,-0.00000275,0.00000347,-0.00000568,0.
 00000242,-0.00000255,0.00044536,0.00030446,-0.00118848,0.00001679,0.00
 000846,0.00002376,0.00000005,0.00000084,0.00000765,-0.00000037,0.00000
 071,-0.00000008,0.00103716,-0.00947917,0.00403098,-0.00034443,-0.00170
 566,0.00025815,-0.03587409,0.08173505,-0.01919919,0.00013953,0.0004660
 9,0.00032303,0.03576940,-0.00001133,-0.00000024,-0.00001784,-0.0000046
 5,-0.00000227,-0.00000469,-0.00002333,0.00001485,0.00001309,-0.0000211
 8,-0.00000076,-0.00001152,0.00000301,-0.00000797,0.00000268,0.00009250
 ,-0.00005132,0.00007495,-0.00000810,0.00002456,0.00000066,-0.00000720,
 0.00000529,0.00000538,0.00002013,-0.00000431,0.00000068,-0.00000807,0.
 00000043,0.00000480,-0.00000503,0.00000122,0.00000126,0.00001416,0.000
 00172,-0.00000603,0.00003983,0.00001883,-0.00002920,-0.00000022,-0.000
 00220,-0.00000021,-0.00000470,-0.00000002,-0.00000055,-0.00000179,-0.0
 0000454,-0.00003572,0.00000621,-0.00000049,-0.00000037,0.00006766,0.00
 004757,0.00001290,0.00007761,-0.00001071,0.00007170,0.00012474,0.00002
 332,-0.00001686,0.00000019,0.00003701,0.00001198,0.00000226,0.00000139
 ,-0.00000009,0.00001235,-0.00000615,-0.00000483,0.00000541,0.00000393,
 -0.00000532,0.00000233,0.00000037,0.00000092,-0.00000768,-0.00000346,0
 .00000240,0.00001315,-0.00000443,0.00000454,-0.00000315,0.00000021,0.0
 0000192,-0.00000226,-0.00000012,0.00000171,0.00000187,0.00000322,0.000
 00088,0.00000189,0.00000148,0.00000150,0.00000852,0.00000035,0.0000054
 5,-0.00002065,-0.00001612,0.00001082,0.00000069,0.00000130,-0.00000329
 ,-0.00000290,0.00000971,-0.00001287,0.00000311,-0.00000710,0.00000795,
 0.00000344,0.00000121,0.00000394,0.00000277,-0.00000718,0.00000039,-0.
 00000858,-0.00003122,0.00004528,-0.00001908,0.00000682,-0.00000767,-0.
 00001353,0.00001945,-0.00002564,-0.00057346,0.00069407,-0.00027545,-0.
 00001103,-0.00017640,-0.00010695,0.00003018,-0.00002570,-0.00008306,0.
 00006917,0.00010281,-0.00024186,0.00000993,0.00001721,-0.00004645,0.00
 026282,0.00014936,-0.00097052,0.00001110,-0.00000281,0.00002893,-0.000
 03204,-0.00001600,0.00000793,-0.00000221,-0.00003201,-0.00000270,-0.00
 001372,0.00000404,-0.00000172,0.00000066,0.00000212,0.00000012,0.00001
 211,-0.00000190,0.00000033,-0.00001521,0.00000228,-0.00000204,-0.00000
 072,0.00000183,0.00000181,-0.00000116,-0.00000206,-0.00000091,-0.00001
 290,0.00000245,-0.00000094,0.00001429,-0.00000183,-0.00000059,-0.00000
 117,0.00001024,-0.00001270,0.00001403,-0.00000433,0.00000392,0.0004395
 5,0.00052002,-0.00102906,-0.00000746,0.00000380,-0.00000980,0.00000279
 ,-0.00000069,0.00000121,0.00000138,-0.00000235,-0.00000083,-0.00203576
 ,-0.00364922,0.00441150,0.00003641,-0.00053333,0.00019006,0.07720101,-
 0.21180508,0.06066065,-0.00015161,0.00040964,0.00018961,-0.07557739,0.
 21427021,-0.00002098,0.00005159,-0.00009293,-0.00001551,-0.00001643,-0
 .00002370,0.00001070,0.00008200,0.00007133,-0.00004105,0.00000351,-0.0
 0003081,0.00000638,-0.00000035,0.00001312,0.00021318,-0.00014009,0.000
 12575,0.00001572,0.00006731,0.00000550,-0.00000601,0.00002323,0.000008
 62,0.00003221,-0.00001589,0.00002745,-0.00001431,0.00000540,0.00000370
 ,-0.00000284,0.00000607,-0.00001101,-0.00001209,-0.00002027,0.00002337
 ,0.00009748,0.00002596,-0.00004604,0.00000431,0.00000197,0.00000142,-0
 .00000226,0.00000987,-0.00000996,0.00003821,-0.00002097,-0.00007523,0.
 00001195,-0.00000065,0.00000389,-0.00000873,0.00005458,0.00013824,0.00
 022494,0.00018483,0.00010209,0.00020810,0.00000032,-0.00022473,0.00005
 971,0.00005186,0.00004469,-0.00000170,0.00001079,0.00000147,0.00003394
 ,0.00001947,-0.00000708,0.00001090,0.00000458,-0.00000498,0.00000705,-
 0.00000446,0.00000204,-0.00001358,-0.00000156,-0.00000139,0.00001039,-
 0.00001998,0.00002465,-0.00000251,0.00000221,-0.00000459,-0.00000177,0
 .00000694,-0.00000308,-0.00000138,0.00000006,-0.00000436,0.00000514,-0
 .00000132,0.00000334,0.00001453,-0.00000137,0.00000728,-0.00004117,-0.
 00001190,0.00000632,0.00000602,0.00000198,0.00000466,-0.00000119,0.000
 00664,-0.00000906,0.00000639,-0.00000062,-0.00000046,0.00001166,-0.000
 00130,0.00000535,0.00001051,-0.00001147,0.00000265,-0.00004336,-0.0000
 4784,0.00006821,-0.00005803,0.00003810,0.00000121,-0.00001433,0.000021
 74,-0.00002885,-0.00071880,0.00001930,0.00075831,-0.00003769,-0.000200
 90,-0.00020306,-0.00001792,-0.00019084,-0.00039890,0.00011036,-0.00019
 056,-0.00021291,0.00003292,0.00006106,-0.00007311,0.00017479,-0.000515
 60,-0.00032007,-0.00020044,0.00005612,-0.00002423,-0.00006795,-0.00002
 942,-0.00000793,0.00010420,0.00001112,-0.00007445,0.00000576,0.0000114
 9,-0.00001394,0.00000497,-0.00000152,-0.00000486,0.00000337,0.00000385
 ,-0.00000652,-0.00000949,-0.00001674,0.00002394,0.00000372,0.00000432,
 -0.00000341,0.00000317,0.00000185,-0.00000626,-0.00000835,0.00000687,-
 0.00000752,0.00000716,-0.00000008,-0.00000181,0.00000125,0.00000378,-0
 .00000508,-0.00000799,0.00000279,-0.00000290,0.00213682,0.00033969,-0.
 00118224,-0.00001116,-0.00002094,-0.00003884,-0.00000280,-0.00000692,-
 0.00000233,0.00000447,-0.00000260,0.00000190,-0.00278799,0.00686604,-0
 .00454567,-0.00031455,-0.00067295,0.00002218,-0.01645147,0.05658398,-0
 .02039927,-0.00013663,0.00032787,0.00047196,0.01744358,-0.06281558,0.0
 2613892\\0.00000063,0.00000203,0.00000206,0.00000066,0.00000105,0.0000
 0712,-0.00001168,0.00000218,-0.00000582,0.00000095,-0.00000194,-0.0000
 0192,0.00000585,-0.00000015,-0.00000549,-0.00000327,-0.00000770,-0.000
 00206,0.00000446,-0.00000861,0.00001257,0.00000285,0.00000532,0.000002
 93,0.00000058,0.00000215,-0.00000274,-0.00000022,0.00000063,0.00000263
 ,0.00000281,0.00000003,-0.00000207,-0.00000442,-0.00000063,0.00000309,
 -0.00000090,-0.00000181,-0.00000589,-0.00000032,0.00000070,-0.00000387
 ,0.00000115,0.00000420,0.00000306,0.00000254,-0.00000455,0.00000987,-0
 .00000052,-0.00000176,0.00000223,0.00004491,0.00001435,-0.00002108,-0.
 00000523,-0.00000887,0.00000368,-0.00000965,0.00000326,-0.00000286,-0.
 00000525,-0.00000760,-0.00004757,-0.00000271,-0.00000887,0.00000128,-0
 .00001324,0.00000122,0.00000467,-0.00000302,0.00000318,-0.00000757,0.0
 0000064,0.00000272,0.00000589,-0.00000037,-0.00000213,0.00000293,-0.00
 000097,0.00000053,0.00000013,-0.00000150,0.00000209,0.00000183,-0.0000
 0277,-0.00000067,0.00000209,0.00000152,0.00000544,0.00000084,-0.000000
 02,0.00000254,-0.00000134,-0.00000259,0.00000133,0.00000249,-0.0000097
 0,0.00000093,-0.00000487,-0.00000196,0.00000251,-0.00000158,0.00000017
 ,0.00000265,0.00000160,-0.00000706,0.00000561,0.00000315,0.00000093,0.
 00000228,0.00000500,-0.00000063,-0.00000286,0.00000227,0.00000735,-0.0
 0001256,-0.00000387,-0.00002703,0.00000345,0.00000992,-0.00000659,-0.0
 0000166,0.00000379,0.00001292,-0.00001065,-0.00001408,-0.00000728,0.00
 000022,0.00000542,-0.00000336,-0.00000782,0.00000482,0.00001290,-0.000
 02231,-0.00001279,0.00000972,0.00002415,-0.00001103,-0.00001542,-0.000
 00339,-0.00000693,0.00003212,0.00000002,0.00003271,0.00000671,0.000000
 73,0.00000618,-0.00000172,-0.00000274,-0.00000607,0.00000388,0.0000023
 0,-0.00000054,-0.00000003,0.00000001,-0.00000207,0.00000076,0.00000433
 ,-0.00000501,0.00000079,0.00000176,0.00000303,-0.00000026,0.00000056,-
 0.00000211,-0.00000105,0.00000075,-0.00000073,0.00000061,0.00000164,0.
 00000178,-0.00000039,0.00000378,-0.00000368,0.00000194,0.00000165,-0.0
 0000076,0.00000020,0.00000165,-0.00000213,0.00000047,0.00000867,0.0000
 0412,-0.00001106,0.00000325,0.00000993,-0.00000040,0.00000108,0.000002
 55,-0.00000170,0.00000207,-0.00000236,-0.00001184,-0.00002624,0.000011
 38,0.00000425,0.00001967,0.00001480,0.00001090,0.00000153,-0.00001178,
 0.00000046,0.00000011,0.00000411,-0.00000049,-0.00000678,0.00000474\\\
 @
 The archive entry for this job was punched.


     SCHOPENHAUER'S LAW OF ENTROPY
 IF YOU PUT A SPOONFUL OF WINE IN A BARREL FULL
 OF SEWAGE, YOU GET SEWAGE.
 IF YOU PUT A SPOONFUL OF SEWAGE IN A BARREL FULL
 OF WINE, YOU GET SEWAGE.
 Job cpu time:       7 days 12 hours 38 minutes 42.4 seconds.
 Elapsed time:       0 days  3 hours 56 minutes 26.4 seconds.
 File lengths (MBytes):  RWF=  17119 Int=      0 D2E=      0 Chk=    155 Scr=      2
 Normal termination of Gaussian 16 at Sat Feb 25 21:51:23 2023.
