 Entering Gaussian System, Link 0=/apps/GAU16/avx2/g16/g16
 Initial command:
 /apps/GAU16/avx2/g16/l1.exe "/localscratch/chesha/scratch/Gau-141442.inp" -scrdir="/localscratch/chesha/scratch/"
 Entering Link 1 = /apps/GAU16/avx2/g16/l1.exe PID=    141443.
  
 Copyright (c) 1988-2019, Gaussian, Inc.  All Rights Reserved.
  
 This is part of the Gaussian(R) 16 program.  It is based on
 the Gaussian(R) 09 system (copyright 2009, Gaussian, Inc.),
 the Gaussian(R) 03 system (copyright 2003, Gaussian, Inc.),
 the Gaussian(R) 98 system (copyright 1998, Gaussian, Inc.),
 the Gaussian(R) 94 system (copyright 1995, Gaussian, Inc.),
 the Gaussian 92(TM) system (copyright 1992, Gaussian, Inc.),
 the Gaussian 90(TM) system (copyright 1990, Gaussian, Inc.),
 the Gaussian 88(TM) system (copyright 1988, Gaussian, Inc.),
 the Gaussian 86(TM) system (copyright 1986, Carnegie Mellon
 University), and the Gaussian 82(TM) system (copyright 1983,
 Carnegie Mellon University). Gaussian is a federally registered
 trademark of Gaussian, Inc.
  
 This software contains proprietary and confidential information,
 including trade secrets, belonging to Gaussian, Inc.
  
 This software is provided under written license and may be
 used, copied, transmitted, or stored only in accord with that
 written license.
  
 The following legend is applicable only to US Government
 contracts under FAR:
  
                    RESTRICTED RIGHTS LEGEND
  
 Use, reproduction and disclosure by the US Government is
 subject to restrictions as set forth in subparagraphs (a)
 and (c) of the Commercial Computer Software - Restricted
 Rights clause in FAR 52.227-19.
  
 Gaussian, Inc.
 340 Quinnipiac St., Bldg. 40, Wallingford CT 06492
  
  
 ---------------------------------------------------------------
 Warning -- This program may not be used in any manner that
 competes with the business of Gaussian, Inc. or will provide
 assistance to any competitor of Gaussian, Inc.  The licensee
 of this program is prohibited from giving any competitor of
 Gaussian, Inc. access to this program.  By using this program,
 the user acknowledges that Gaussian, Inc. is engaged in the
 business of creating and licensing software in the field of
 computational chemistry and represents and warrants to the
 licensee that it is not a competitor of Gaussian, Inc. and that
 it will not use this program in any manner prohibited above.
 ---------------------------------------------------------------
  

 Cite this work as:
 Gaussian 16, Revision C.01,
 M. J. Frisch, G. W. Trucks, H. B. Schlegel, G. E. Scuseria, 
 M. A. Robb, J. R. Cheeseman, G. Scalmani, V. Barone, 
 G. A. Petersson, H. Nakatsuji, X. Li, M. Caricato, A. V. Marenich, 
 J. Bloino, B. G. Janesko, R. Gomperts, B. Mennucci, H. P. Hratchian, 
 J. V. Ortiz, A. F. Izmaylov, J. L. Sonnenberg, D. Williams-Young, 
 F. Ding, F. Lipparini, F. Egidi, J. Goings, B. Peng, A. Petrone, 
 T. Henderson, D. Ranasinghe, V. G. Zakrzewski, J. Gao, N. Rega, 
 G. Zheng, W. Liang, M. Hada, M. Ehara, K. Toyota, R. Fukuda, 
 J. Hasegawa, M. Ishida, T. Nakajima, Y. Honda, O. Kitao, H. Nakai, 
 T. Vreven, K. Throssell, J. A. Montgomery, Jr., J. E. Peralta, 
 F. Ogliaro, M. J. Bearpark, J. J. Heyd, E. N. Brothers, K. N. Kudin, 
 V. N. Staroverov, T. A. Keith, R. Kobayashi, J. Normand, 
 K. Raghavachari, A. P. Rendell, J. C. Burant, S. S. Iyengar, 
 J. Tomasi, M. Cossi, J. M. Millam, M. Klene, C. Adamo, R. Cammi, 
 J. W. Ochterski, R. L. Martin, K. Morokuma, O. Farkas, 
 J. B. Foresman, and D. J. Fox, Gaussian, Inc., Wallingford CT, 2019.
 
 ******************************************
 Gaussian 16:  ES64L-G16RevC.01  3-Jul-2019
                 6-Mar-2023 
 ******************************************
 %nprocshared=48
 Will use up to   48 processors via shared memory.
 %chk=Mo20S47_Mozz_MoCO_f.chk
 %mem=100GB
 ----------------------------------------------------------
 # opt freq b3lyp/gen nosymm pseudo=read scf=maxcycles=1000
 ----------------------------------------------------------
 1/18=20,19=15,26=3,38=1/1,3;
 2/9=110,12=2,15=1,17=6,18=5,40=1/2;
 3/5=7,11=2,16=1,17=8,25=1,30=1,71=1,74=-5/1,2,3;
 4//1;
 5/5=2,7=1000,38=5/2;
 6/7=2,8=2,9=2,10=2,28=1/1;
 7/30=1/1,2,3,16;
 1/18=20,19=15,26=3/3(2);
 2/9=110,15=1/2;
 99//99;
 2/9=110,15=1/2;
 3/5=7,6=1,11=2,16=1,17=8,25=1,30=1,71=1,74=-5,82=7/1,2,3;
 4/5=5,16=3,69=1/1;
 5/5=2,7=1000,38=5/2;
 7/30=1/1,2,3,16;
 1/18=20,19=15,26=3/3(-5);
 2/9=110,15=1/2;
 6/7=2,8=2,9=2,10=2,19=2,28=1/1;
 99/9=1/99;
 -------------------
 Title Card Required
 -------------------
 Symbolic Z-matrix:
 Charge =  0 Multiplicity = 1
 42                    0.26413   0.97047   12.41729 
 16                    2.19622   1.89304   13.59593 
 16                   -0.89953   1.51701   14.53558 
 16                   -0.41311   0.75639   10.08596 
 16                    1.96935  -0.6527    11.77553 
 42                   -2.10156   2.35281   10.78466 
 16                   -2.87203   2.2046    8.46967 
 16                   -0.20122   3.30765   11.97129 
 42                    0.91919   2.77225   9.87319 
 16                    0.1797    2.60813   7.54161 
 16                    2.60482   1.13179   9.21205 
 42                    3.33784   1.34044   11.51425 
 42                   -1.50357   4.20759   8.25632 
 16                    5.34127   2.2984    12.76618 
 16                    2.87807   3.6726    11.04135 
 16                   -2.54658   4.7223    10.38204 
 16                    1.04198   7.02241   6.88696 
 42                   -4.48749   3.7546    9.39088 
 16                   -5.82633   1.62918   9.50117 
 16                   -5.63627   4.1703    11.3114 
 42                    2.49902  -0.4451    14.12774 
 16                    4.71686  -0.16339   15.30176 
 16                    1.45386   0.1209    16.14634 
 42                    1.55156   4.58137   7.35225 
 16                    0.92587   4.61207   4.93423 
 16                    0.44458   5.12665   9.41974 
 42                    3.98839   3.10562   8.95773 
 16                    3.18877   2.89912   6.66472 
 16                    3.55515   5.44545   8.48012 
 42                    4.53255   4.83291   6.36268 
 16                    6.93849   5.35578   6.83377 
 16                    4.27573   7.33044   6.03779 
 42                    2.43785   6.62129   4.97257 
 16                    3.93957   4.8144    4.13948 
 16                   -1.28499   7.32954   4.12428 
 42                   -0.92839   6.04045   5.76444 
 16                   -2.24948   4.01302   5.79948 
 16                   -1.99117   6.71176   7.82617 
 42                   -3.71097   5.70209   6.58901 
 16                   -5.65749   4.22289   7.2326 
 16                   -4.52926   6.92686   5.0797 
 42                   -5.10644   1.73697   11.6742 
 16                   -3.33945   2.82429   12.88791 
 16                   -3.37468   0.25141   11.00807 
 42                   -2.75253   0.51388   13.31534 
 16                   -1.06668  -1.09941   12.636 
 16                   -4.02515  -1.73182   13.59887 
 42                   -0.49301  -0.80344   14.93091 
 16                    1.2522   -2.43108   14.30826 
 16                   -1.1261   -2.09424   16.76777 
 42                    5.7815    0.00711   13.0566 
 16                    5.05385  -0.42964   10.8695 
 16                    8.32342   1.17393   10.95176 
 42                    6.29848   1.68027   10.56973 
 16                    5.7008    1.31482   8.22578 
 16                    6.06238   4.07418   10.12052 
 42                    7.03835   3.23384   8.15379 
 16                    9.1248    2.88081   8.23272 
 16                    2.19563   7.98539   3.36819 
 16                    7.77204  -0.5412    13.55757 
 16                   -6.90184   1.11299   12.9281 
 16                   -5.34031   5.92543   8.46091 
 16                    4.55959  -1.89352   14.10189 
 16                    6.62291   3.57369   5.7373 
 42                   -5.6346   -0.19813   14.42183 
 16                   -3.91769   0.95803   15.6046 
 16                   -6.877    -1.17813   15.81545 
 42                   -2.98738  -1.22654   15.67825 
 6                    -3.94394  -2.27763   17.1492 
 8                    -4.48714  -2.86696   17.97864 
 

 GradGradGradGradGradGradGradGradGradGradGradGradGradGradGradGradGradGrad
 Berny optimization.
 Initialization pass.
                           ----------------------------
                           !    Initial Parameters    !
                           ! (Angstroms and Degrees)  !
 --------------------------                            --------------------------
 ! Name  Definition              Value          Derivative Info.                !
 --------------------------------------------------------------------------------
 ! R1    R(1,2)                  2.444          estimate D2E/DX2                !
 ! R2    R(1,3)                  2.4779         estimate D2E/DX2                !
 ! R3    R(1,4)                  2.4371         estimate D2E/DX2                !
 ! R4    R(1,5)                  2.4401         estimate D2E/DX2                !
 ! R5    R(1,8)                  2.4244         estimate D2E/DX2                !
 ! R6    R(1,46)                 2.4705         estimate D2E/DX2                !
 ! R7    R(2,12)                 2.4376         estimate D2E/DX2                !
 ! R8    R(2,21)                 2.4169         estimate D2E/DX2                !
 ! R9    R(3,45)                 2.4349         estimate D2E/DX2                !
 ! R10   R(3,48)                 2.3887         estimate D2E/DX2                !
 ! R11   R(4,6)                  2.4264         estimate D2E/DX2                !
 ! R12   R(4,9)                  2.4257         estimate D2E/DX2                !
 ! R13   R(5,12)                 2.4318         estimate D2E/DX2                !
 ! R14   R(5,21)                 2.42           estimate D2E/DX2                !
 ! R15   R(6,7)                  2.4443         estimate D2E/DX2                !
 ! R16   R(6,8)                  2.4354         estimate D2E/DX2                !
 ! R17   R(6,16)                 2.4443         estimate D2E/DX2                !
 ! R18   R(6,18)                 3.0984         estimate D2E/DX2                !
 ! R19   R(6,43)                 2.4856         estimate D2E/DX2                !
 ! R20   R(6,44)                 2.4671         estimate D2E/DX2                !
 ! R21   R(7,13)                 2.4352         estimate D2E/DX2                !
 ! R22   R(7,18)                 2.4209         estimate D2E/DX2                !
 ! R23   R(8,9)                  2.438          estimate D2E/DX2                !
 ! R24   R(9,10)                 2.4515         estimate D2E/DX2                !
 ! R25   R(9,11)                 2.4433         estimate D2E/DX2                !
 ! R26   R(9,15)                 2.452          estimate D2E/DX2                !
 ! R27   R(9,26)                 2.4442         estimate D2E/DX2                !
 ! R28   R(10,13)                2.4295         estimate D2E/DX2                !
 ! R29   R(10,24)                2.4107         estimate D2E/DX2                !
 ! R30   R(11,12)                2.4251         estimate D2E/DX2                !
 ! R31   R(11,27)                2.4238         estimate D2E/DX2                !
 ! R32   R(12,14)                2.5493         estimate D2E/DX2                !
 ! R33   R(12,15)                2.4236         estimate D2E/DX2                !
 ! R34   R(12,52)                2.5483         estimate D2E/DX2                !
 ! R35   R(13,16)                2.4231         estimate D2E/DX2                !
 ! R36   R(13,26)                2.4482         estimate D2E/DX2                !
 ! R37   R(13,37)                2.5749         estimate D2E/DX2                !
 ! R38   R(13,38)                2.5872         estimate D2E/DX2                !
 ! R39   R(14,51)                2.3512         estimate D2E/DX2                !
 ! R40   R(14,54)                2.4744         estimate D2E/DX2                !
 ! R41   R(15,27)                2.4281         estimate D2E/DX2                !
 ! R42   R(16,18)                2.3845         estimate D2E/DX2                !
 ! R43   R(17,24)                2.5367         estimate D2E/DX2                !
 ! R44   R(17,33)                2.403          estimate D2E/DX2                !
 ! R45   R(17,36)                2.4712         estimate D2E/DX2                !
 ! R46   R(18,19)                2.5144         estimate D2E/DX2                !
 ! R47   R(18,20)                2.2762         estimate D2E/DX2                !
 ! R48   R(18,40)                2.4993         estimate D2E/DX2                !
 ! R49   R(18,42)                3.1093         estimate D2E/DX2                !
 ! R50   R(18,62)                2.5109         estimate D2E/DX2                !
 ! R51   R(19,42)                2.2917         estimate D2E/DX2                !
 ! R52   R(20,42)                2.5166         estimate D2E/DX2                !
 ! R53   R(21,22)                2.5252         estimate D2E/DX2                !
 ! R54   R(21,23)                2.3425         estimate D2E/DX2                !
 ! R55   R(21,48)                3.1186         estimate D2E/DX2                !
 ! R56   R(21,49)                2.3519         estimate D2E/DX2                !
 ! R57   R(21,63)                2.5188         estimate D2E/DX2                !
 ! R58   R(22,51)                2.4906         estimate D2E/DX2                !
 ! R59   R(22,63)                2.1113         estimate D2E/DX2                !
 ! R60   R(23,48)                2.4743         estimate D2E/DX2                !
 ! R61   R(24,25)                2.4978         estimate D2E/DX2                !
 ! R62   R(24,26)                2.4077         estimate D2E/DX2                !
 ! R63   R(24,28)                2.446          estimate D2E/DX2                !
 ! R64   R(24,29)                2.4562         estimate D2E/DX2                !
 ! R65   R(25,33)                2.5149         estimate D2E/DX2                !
 ! R66   R(25,36)                2.4835         estimate D2E/DX2                !
 ! R67   R(27,28)                2.4372         estimate D2E/DX2                !
 ! R68   R(27,29)                2.4271         estimate D2E/DX2                !
 ! R69   R(27,55)                2.5836         estimate D2E/DX2                !
 ! R70   R(27,56)                2.5674         estimate D2E/DX2                !
 ! R71   R(28,30)                2.3741         estimate D2E/DX2                !
 ! R72   R(29,30)                2.4112         estimate D2E/DX2                !
 ! R73   R(30,31)                2.5068         estimate D2E/DX2                !
 ! R74   R(30,32)                2.5316         estimate D2E/DX2                !
 ! R75   R(30,33)                3.0852         estimate D2E/DX2                !
 ! R76   R(30,34)                2.301          estimate D2E/DX2                !
 ! R77   R(30,64)                2.5192         estimate D2E/DX2                !
 ! R78   R(31,57)                2.501          estimate D2E/DX2                !
 ! R79   R(31,64)                2.1161         estimate D2E/DX2                !
 ! R80   R(32,33)                2.2395         estimate D2E/DX2                !
 ! R81   R(33,34)                2.4928         estimate D2E/DX2                !
 ! R82   R(33,59)                2.1198         estimate D2E/DX2                !
 ! R83   R(35,36)                2.1164         estimate D2E/DX2                !
 ! R84   R(36,37)                2.4201         estimate D2E/DX2                !
 ! R85   R(36,38)                2.4147         estimate D2E/DX2                !
 ! R86   R(36,39)                2.9218         estimate D2E/DX2                !
 ! R87   R(37,39)                2.369          estimate D2E/DX2                !
 ! R88   R(38,39)                2.3468         estimate D2E/DX2                !
 ! R89   R(39,40)                2.5281         estimate D2E/DX2                !
 ! R90   R(39,41)                2.109          estimate D2E/DX2                !
 ! R91   R(39,62)                2.4917         estimate D2E/DX2                !
 ! R92   R(40,62)                2.1232         estimate D2E/DX2                !
 ! R93   R(42,43)                2.4037         estimate D2E/DX2                !
 ! R94   R(42,44)                2.3769         estimate D2E/DX2                !
 ! R95   R(42,45)                3.1193         estimate D2E/DX2                !
 ! R96   R(42,61)                2.2771         estimate D2E/DX2                !
 ! R97   R(43,45)                2.4218         estimate D2E/DX2                !
 ! R98   R(44,45)                2.404          estimate D2E/DX2                !
 ! R99   R(45,46)                2.4303         estimate D2E/DX2                !
 ! R100  R(45,47)                2.5967         estimate D2E/DX2                !
 ! R101  R(45,48)                3.0742         estimate D2E/DX2                !
 ! R102  R(45,66)                2.6068         estimate D2E/DX2                !
 ! R103  R(45,68)                2.9441         estimate D2E/DX2                !
 ! R104  R(46,48)                2.384          estimate D2E/DX2                !
 ! R105  R(47,65)                2.3706         estimate D2E/DX2                !
 ! R106  R(47,68)                2.3783         estimate D2E/DX2                !
 ! R107  R(48,49)                2.4663         estimate D2E/DX2                !
 ! R108  R(48,50)                2.3326         estimate D2E/DX2                !
 ! R109  R(48,68)                2.6381         estimate D2E/DX2                !
 ! R110  R(50,68)                2.3247         estimate D2E/DX2                !
 ! R111  R(51,52)                2.346          estimate D2E/DX2                !
 ! R112  R(51,54)                3.0416         estimate D2E/DX2                !
 ! R113  R(51,60)                2.1246         estimate D2E/DX2                !
 ! R114  R(51,63)                2.4896         estimate D2E/DX2                !
 ! R115  R(52,54)                2.4679         estimate D2E/DX2                !
 ! R116  R(53,54)                2.122          estimate D2E/DX2                !
 ! R117  R(54,55)                2.4464         estimate D2E/DX2                !
 ! R118  R(54,56)                2.4471         estimate D2E/DX2                !
 ! R119  R(54,57)                2.9661         estimate D2E/DX2                !
 ! R120  R(55,57)                2.3403         estimate D2E/DX2                !
 ! R121  R(56,57)                2.3509         estimate D2E/DX2                !
 ! R122  R(57,58)                2.1176         estimate D2E/DX2                !
 ! R123  R(57,64)                2.4754         estimate D2E/DX2                !
 ! R124  R(61,65)                2.3572         estimate D2E/DX2                !
 ! R125  R(65,66)                2.384          estimate D2E/DX2                !
 ! R126  R(65,67)                2.1086         estimate D2E/DX2                !
 ! R127  R(65,68)                3.1055         estimate D2E/DX2                !
 ! R128  R(66,68)                2.3756         estimate D2E/DX2                !
 ! R129  R(68,69)                2.0454         estimate D2E/DX2                !
 ! R130  R(69,70)                1.1534         estimate D2E/DX2                !
 ! A1    A(2,1,3)               82.8612         estimate D2E/DX2                !
 ! A2    A(2,1,4)              135.5735         estimate D2E/DX2                !
 ! A3    A(2,1,5)               79.9498         estimate D2E/DX2                !
 ! A4    A(2,1,8)               82.9092         estimate D2E/DX2                !
 ! A5    A(2,1,46)             134.3807         estimate D2E/DX2                !
 ! A6    A(3,1,4)              134.9624         estimate D2E/DX2                !
 ! A7    A(3,1,5)              134.4051         estimate D2E/DX2                !
 ! A8    A(3,1,8)               81.6337         estimate D2E/DX2                !
 ! A9    A(3,1,46)              81.7289         estimate D2E/DX2                !
 ! A10   A(4,1,5)               83.3488         estimate D2E/DX2                !
 ! A11   A(4,1,8)               81.6839         estimate D2E/DX2                !
 ! A12   A(4,1,46)              82.0332         estimate D2E/DX2                !
 ! A13   A(5,1,8)              136.6359         estimate D2E/DX2                !
 ! A14   A(5,1,46)              80.9321         estimate D2E/DX2                !
 ! A15   A(8,1,46)             136.1025         estimate D2E/DX2                !
 ! A16   A(1,2,12)              82.6937         estimate D2E/DX2                !
 ! A17   A(1,2,21)              80.7917         estimate D2E/DX2                !
 ! A18   A(12,2,21)             84.8321         estimate D2E/DX2                !
 ! A19   A(1,3,45)              80.6831         estimate D2E/DX2                !
 ! A20   A(1,3,48)              81.2167         estimate D2E/DX2                !
 ! A21   A(1,4,6)               81.9592         estimate D2E/DX2                !
 ! A22   A(1,4,9)               81.8529         estimate D2E/DX2                !
 ! A23   A(6,4,9)               81.992          estimate D2E/DX2                !
 ! A24   A(1,5,12)              82.895          estimate D2E/DX2                !
 ! A25   A(1,5,21)              80.808          estimate D2E/DX2                !
 ! A26   A(12,5,21)             84.8912         estimate D2E/DX2                !
 ! A27   A(4,6,7)               84.6483         estimate D2E/DX2                !
 ! A28   A(4,6,8)               81.6786         estimate D2E/DX2                !
 ! A29   A(4,6,16)             135.8112         estimate D2E/DX2                !
 ! A30   A(4,6,18)             134.7462         estimate D2E/DX2                !
 ! A31   A(4,6,43)             135.6435         estimate D2E/DX2                !
 ! A32   A(4,6,44)              79.9077         estimate D2E/DX2                !
 ! A33   A(7,6,8)              136.9863         estimate D2E/DX2                !
 ! A34   A(7,6,16)              81.1056         estimate D2E/DX2                !
 ! A35   A(7,6,43)             130.9889         estimate D2E/DX2                !
 ! A36   A(7,6,44)              82.6149         estimate D2E/DX2                !
 ! A37   A(8,6,16)              80.924          estimate D2E/DX2                !
 ! A38   A(8,6,18)             129.991          estimate D2E/DX2                !
 ! A39   A(8,6,43)              84.373          estimate D2E/DX2                !
 ! A40   A(8,6,44)             133.8278         estimate D2E/DX2                !
 ! A41   A(16,6,43)             82.2316         estimate D2E/DX2                !
 ! A42   A(16,6,44)            138.3019         estimate D2E/DX2                !
 ! A43   A(18,6,43)             84.9125         estimate D2E/DX2                !
 ! A44   A(18,6,44)             91.6459         estimate D2E/DX2                !
 ! A45   A(43,6,44)             80.0926         estimate D2E/DX2                !
 ! A46   A(6,7,13)              81.7191         estimate D2E/DX2                !
 ! A47   A(13,7,18)             83.2063         estimate D2E/DX2                !
 ! A48   A(1,8,6)               82.036          estimate D2E/DX2                !
 ! A49   A(1,8,9)               81.8599         estimate D2E/DX2                !
 ! A50   A(6,8,9)               81.5576         estimate D2E/DX2                !
 ! A51   A(4,9,8)               81.6398         estimate D2E/DX2                !
 ! A52   A(4,9,10)              82.0744         estimate D2E/DX2                !
 ! A53   A(4,9,11)              81.0647         estimate D2E/DX2                !
 ! A54   A(4,9,15)             134.5988         estimate D2E/DX2                !
 ! A55   A(4,9,26)             135.2461         estimate D2E/DX2                !
 ! A56   A(8,9,10)             133.9906         estimate D2E/DX2                !
 ! A57   A(8,9,11)             134.2158         estimate D2E/DX2                !
 ! A58   A(8,9,15)              82.9066         estimate D2E/DX2                !
 ! A59   A(8,9,26)              81.8876         estimate D2E/DX2                !
 ! A60   A(10,9,11)             84.5948         estimate D2E/DX2                !
 ! A61   A(10,9,15)            135.9436         estimate D2E/DX2                !
 ! A62   A(10,9,26)             80.1814         estimate D2E/DX2                !
 ! A63   A(11,9,15)             79.8804         estimate D2E/DX2                !
 ! A64   A(11,9,26)            136.93           estimate D2E/DX2                !
 ! A65   A(15,9,26)             83.6741         estimate D2E/DX2                !
 ! A66   A(9,10,13)             83.4041         estimate D2E/DX2                !
 ! A67   A(9,10,24)             81.2717         estimate D2E/DX2                !
 ! A68   A(13,10,24)            83.0217         estimate D2E/DX2                !
 ! A69   A(9,11,12)             83.9082         estimate D2E/DX2                !
 ! A70   A(9,11,27)             82.8443         estimate D2E/DX2                !
 ! A71   A(12,11,27)            81.7786         estimate D2E/DX2                !
 ! A72   A(2,12,5)              80.2411         estimate D2E/DX2                !
 ! A73   A(2,12,11)            133.5236         estimate D2E/DX2                !
 ! A74   A(2,12,14)             82.1535         estimate D2E/DX2                !
 ! A75   A(2,12,15)             81.9314         estimate D2E/DX2                !
 ! A76   A(2,12,52)            133.5443         estimate D2E/DX2                !
 ! A77   A(5,12,11)             82.0321         estimate D2E/DX2                !
 ! A78   A(5,12,14)            134.2255         estimate D2E/DX2                !
 ! A79   A(5,12,15)            134.6596         estimate D2E/DX2                !
 ! A80   A(5,12,52)             80.6085         estimate D2E/DX2                !
 ! A81   A(11,12,14)           137.3995         estimate D2E/DX2                !
 ! A82   A(11,12,15)            80.806          estimate D2E/DX2                !
 ! A83   A(11,12,52)            84.4674         estimate D2E/DX2                !
 ! A84   A(14,12,15)            83.2988         estimate D2E/DX2                !
 ! A85   A(14,12,52)            81.7239         estimate D2E/DX2                !
 ! A86   A(15,12,52)           138.3129         estimate D2E/DX2                !
 ! A87   A(7,13,10)             82.7394         estimate D2E/DX2                !
 ! A88   A(7,13,16)             81.7189         estimate D2E/DX2                !
 ! A89   A(7,13,26)            135.5877         estimate D2E/DX2                !
 ! A90   A(7,13,37)             81.8743         estimate D2E/DX2                !
 ! A91   A(7,13,38)            134.8114         estimate D2E/DX2                !
 ! A92   A(10,13,16)           134.119          estimate D2E/DX2                !
 ! A93   A(10,13,26)            80.5383         estimate D2E/DX2                !
 ! A94   A(10,13,37)            82.546          estimate D2E/DX2                !
 ! A95   A(10,13,38)           135.9625         estimate D2E/DX2                !
 ! A96   A(16,13,26)            81.1348         estimate D2E/DX2                !
 ! A97   A(16,13,37)           136.7517         estimate D2E/DX2                !
 ! A98   A(16,13,38)            81.9018         estimate D2E/DX2                !
 ! A99   A(26,13,37)           135.4231         estimate D2E/DX2                !
 ! A100  A(26,13,38)            82.2775         estimate D2E/DX2                !
 ! A101  A(37,13,38)            81.9469         estimate D2E/DX2                !
 ! A102  A(12,14,51)            80.8862         estimate D2E/DX2                !
 ! A103  A(12,14,54)            76.9509         estimate D2E/DX2                !
 ! A104  A(9,15,12)             83.7527         estimate D2E/DX2                !
 ! A105  A(9,15,27)             82.574          estimate D2E/DX2                !
 ! A106  A(12,15,27)            81.7206         estimate D2E/DX2                !
 ! A107  A(6,16,13)             81.9647         estimate D2E/DX2                !
 ! A108  A(13,16,18)            84.2327         estimate D2E/DX2                !
 ! A109  A(24,17,33)            82.4612         estimate D2E/DX2                !
 ! A110  A(24,17,36)            82.0162         estimate D2E/DX2                !
 ! A111  A(33,17,36)            92.0026         estimate D2E/DX2                !
 ! A112  A(6,18,19)             90.4505         estimate D2E/DX2                !
 ! A113  A(6,18,20)             95.2622         estimate D2E/DX2                !
 ! A114  A(6,18,40)            146.4822         estimate D2E/DX2                !
 ! A115  A(6,18,42)             61.9246         estimate D2E/DX2                !
 ! A116  A(6,18,62)            145.014          estimate D2E/DX2                !
 ! A117  A(7,18,16)             82.8105         estimate D2E/DX2                !
 ! A118  A(7,18,19)             80.2585         estimate D2E/DX2                !
 ! A119  A(7,18,20)            140.7848         estimate D2E/DX2                !
 ! A120  A(7,18,40)             95.9549         estimate D2E/DX2                !
 ! A121  A(7,18,42)             89.8169         estimate D2E/DX2                !
 ! A122  A(7,18,62)            129.7357         estimate D2E/DX2                !
 ! A123  A(16,18,19)           139.3082         estimate D2E/DX2                !
 ! A124  A(16,18,20)            89.1962         estimate D2E/DX2                !
 ! A125  A(16,18,40)           131.6024         estimate D2E/DX2                !
 ! A126  A(16,18,42)            96.8995         estimate D2E/DX2                !
 ! A127  A(16,18,62)            94.5627         estimate D2E/DX2                !
 ! A128  A(19,18,20)            81.2935         estimate D2E/DX2                !
 ! A129  A(19,18,40)            86.9615         estimate D2E/DX2                !
 ! A130  A(19,18,62)           124.4866         estimate D2E/DX2                !
 ! A131  A(20,18,40)           117.2678         estimate D2E/DX2                !
 ! A132  A(20,18,62)            89.0369         estimate D2E/DX2                !
 ! A133  A(40,18,42)           131.4957         estimate D2E/DX2                !
 ! A134  A(42,18,62)           139.9425         estimate D2E/DX2                !
 ! A135  A(2,21,5)              80.8917         estimate D2E/DX2                !
 ! A136  A(2,21,22)             95.9934         estimate D2E/DX2                !
 ! A137  A(2,21,23)             84.2591         estimate D2E/DX2                !
 ! A138  A(2,21,48)             92.7302         estimate D2E/DX2                !
 ! A139  A(2,21,49)            140.1194         estimate D2E/DX2                !
 ! A140  A(2,21,63)            131.0356         estimate D2E/DX2                !
 ! A141  A(5,21,22)            130.8214         estimate D2E/DX2                !
 ! A142  A(5,21,23)            139.5208         estimate D2E/DX2                !
 ! A143  A(5,21,48)             91.7466         estimate D2E/DX2                !
 ! A144  A(5,21,49)             83.4617         estimate D2E/DX2                !
 ! A145  A(5,21,63)             96.8775         estimate D2E/DX2                !
 ! A146  A(22,21,23)            87.9525         estimate D2E/DX2                !
 ! A147  A(22,21,48)           137.3682         estimate D2E/DX2                !
 ! A148  A(22,21,49)           121.6101         estimate D2E/DX2                !
 ! A149  A(23,21,49)            84.3388         estimate D2E/DX2                !
 ! A150  A(23,21,63)           120.8488         estimate D2E/DX2                !
 ! A151  A(48,21,63)           136.1724         estimate D2E/DX2                !
 ! A152  A(49,21,63)            87.071          estimate D2E/DX2                !
 ! A153  A(21,22,51)            87.9348         estimate D2E/DX2                !
 ! A154  A(10,24,17)           133.4527         estimate D2E/DX2                !
 ! A155  A(10,24,25)            86.7641         estimate D2E/DX2                !
 ! A156  A(10,24,26)            81.7373         estimate D2E/DX2                !
 ! A157  A(10,24,28)            80.795          estimate D2E/DX2                !
 ! A158  A(10,24,29)           135.7318         estimate D2E/DX2                !
 ! A159  A(17,24,25)            76.1308         estimate D2E/DX2                !
 ! A160  A(17,24,26)            81.2118         estimate D2E/DX2                !
 ! A161  A(17,24,28)           138.1342         estimate D2E/DX2                !
 ! A162  A(17,24,29)            84.8113         estimate D2E/DX2                !
 ! A163  A(25,24,26)           135.5034         estimate D2E/DX2                !
 ! A164  A(25,24,28)            84.492          estimate D2E/DX2                !
 ! A165  A(25,24,29)           130.1293         estimate D2E/DX2                !
 ! A166  A(26,24,28)           134.8165         estimate D2E/DX2                !
 ! A167  A(26,24,29)            84.3223         estimate D2E/DX2                !
 ! A168  A(28,24,29)            79.9229         estimate D2E/DX2                !
 ! A169  A(24,25,33)            81.0521         estimate D2E/DX2                !
 ! A170  A(24,25,36)            82.5587         estimate D2E/DX2                !
 ! A171  A(33,25,36)            89.0995         estimate D2E/DX2                !
 ! A172  A(9,26,13)             83.1695         estimate D2E/DX2                !
 ! A173  A(9,26,24)             81.4821         estimate D2E/DX2                !
 ! A174  A(13,26,24)            82.6907         estimate D2E/DX2                !
 ! A175  A(11,27,15)            80.7404         estimate D2E/DX2                !
 ! A176  A(11,27,28)            80.9344         estimate D2E/DX2                !
 ! A177  A(11,27,29)           134.7352         estimate D2E/DX2                !
 ! A178  A(11,27,55)            81.0024         estimate D2E/DX2                !
 ! A179  A(11,27,56)           136.1209         estimate D2E/DX2                !
 ! A180  A(15,27,28)           132.6183         estimate D2E/DX2                !
 ! A181  A(15,27,29)            82.0754         estimate D2E/DX2                !
 ! A182  A(15,27,55)           135.0756         estimate D2E/DX2                !
 ! A183  A(15,27,56)            83.8377         estimate D2E/DX2                !
 ! A184  A(28,27,29)            80.6757         estimate D2E/DX2                !
 ! A185  A(28,27,55)            83.8105         estimate D2E/DX2                !
 ! A186  A(28,27,56)           136.3121         estimate D2E/DX2                !
 ! A187  A(29,27,55)           136.9527         estimate D2E/DX2                !
 ! A188  A(29,27,56)            82.5091         estimate D2E/DX2                !
 ! A189  A(55,27,56)            81.6271         estimate D2E/DX2                !
 ! A190  A(24,28,27)            84.0809         estimate D2E/DX2                !
 ! A191  A(24,28,30)            81.6291         estimate D2E/DX2                !
 ! A192  A(27,28,30)            82.2398         estimate D2E/DX2                !
 ! A193  A(24,29,27)            84.0779         estimate D2E/DX2                !
 ! A194  A(24,29,30)            80.6798         estimate D2E/DX2                !
 ! A195  A(27,29,30)            81.6943         estimate D2E/DX2                !
 ! A196  A(28,30,29)            82.2858         estimate D2E/DX2                !
 ! A197  A(28,30,31)           133.5694         estimate D2E/DX2                !
 ! A198  A(28,30,32)           139.6816         estimate D2E/DX2                !
 ! A199  A(28,30,33)            98.3477         estimate D2E/DX2                !
 ! A200  A(28,30,34)            88.3097         estimate D2E/DX2                !
 ! A201  A(28,30,64)            95.3995         estimate D2E/DX2                !
 ! A202  A(29,30,31)            99.8478         estimate D2E/DX2                !
 ! A203  A(29,30,32)            79.6863         estimate D2E/DX2                !
 ! A204  A(29,30,33)            88.4646         estimate D2E/DX2                !
 ! A205  A(29,30,34)           138.2493         estimate D2E/DX2                !
 ! A206  A(29,30,64)           132.9475         estimate D2E/DX2                !
 ! A207  A(31,30,32)            85.1645         estimate D2E/DX2                !
 ! A208  A(31,30,33)           127.9816         estimate D2E/DX2                !
 ! A209  A(31,30,34)           115.5049         estimate D2E/DX2                !
 ! A210  A(32,30,34)            81.8248         estimate D2E/DX2                !
 ! A211  A(32,30,64)           123.0543         estimate D2E/DX2                !
 ! A212  A(33,30,64)           137.8394         estimate D2E/DX2                !
 ! A213  A(34,30,64)            88.2786         estimate D2E/DX2                !
 ! A214  A(30,31,57)            87.7383         estimate D2E/DX2                !
 ! A215  A(17,33,25)            78.2447         estimate D2E/DX2                !
 ! A216  A(17,33,30)            97.5965         estimate D2E/DX2                !
 ! A217  A(17,33,32)            92.5745         estimate D2E/DX2                !
 ! A218  A(17,33,34)           137.4926         estimate D2E/DX2                !
 ! A219  A(17,33,59)           115.4155         estimate D2E/DX2                !
 ! A220  A(25,33,30)            87.2458         estimate D2E/DX2                !
 ! A221  A(25,33,32)           138.9063         estimate D2E/DX2                !
 ! A222  A(25,33,34)            77.1728         estimate D2E/DX2                !
 ! A223  A(25,33,59)           115.7149         estimate D2E/DX2                !
 ! A224  A(30,33,59)           142.3371         estimate D2E/DX2                !
 ! A225  A(32,33,34)            83.9208         estimate D2E/DX2                !
 ! A226  A(32,33,59)           104.4775         estimate D2E/DX2                !
 ! A227  A(34,33,59)           106.3998         estimate D2E/DX2                !
 ! A228  A(17,36,25)            77.5889         estimate D2E/DX2                !
 ! A229  A(17,36,35)           104.1432         estimate D2E/DX2                !
 ! A230  A(17,36,37)           139.6023         estimate D2E/DX2                !
 ! A231  A(17,36,38)            81.5245         estimate D2E/DX2                !
 ! A232  A(17,36,39)           132.6222         estimate D2E/DX2                !
 ! A233  A(25,36,35)           102.5365         estimate D2E/DX2                !
 ! A234  A(25,36,37)            86.0198         estimate D2E/DX2                !
 ! A235  A(25,36,38)           140.7077         estimate D2E/DX2                !
 ! A236  A(25,36,39)           137.6276         estimate D2E/DX2                !
 ! A237  A(35,36,37)           115.4368         estimate D2E/DX2                !
 ! A238  A(35,36,38)           114.7211         estimate D2E/DX2                !
 ! A239  A(35,36,39)            97.3991         estimate D2E/DX2                !
 ! A240  A(37,36,38)            88.8698         estimate D2E/DX2                !
 ! A241  A(13,37,36)            78.0174         estimate D2E/DX2                !
 ! A242  A(13,37,39)            78.8633         estimate D2E/DX2                !
 ! A243  A(13,38,36)            77.8732         estimate D2E/DX2                !
 ! A244  A(13,38,39)            79.0088         estimate D2E/DX2                !
 ! A245  A(36,39,40)           150.793          estimate D2E/DX2                !
 ! A246  A(36,39,41)            95.7561         estimate D2E/DX2                !
 ! A247  A(36,39,62)           145.5244         estimate D2E/DX2                !
 ! A248  A(37,39,38)            91.7389         estimate D2E/DX2                !
 ! A249  A(37,39,40)            98.2023         estimate D2E/DX2                !
 ! A250  A(37,39,41)           114.5144         estimate D2E/DX2                !
 ! A251  A(37,39,62)           135.8631         estimate D2E/DX2                !
 ! A252  A(38,39,40)           132.9812         estimate D2E/DX2                !
 ! A253  A(38,39,41)           114.3153         estimate D2E/DX2                !
 ! A254  A(38,39,62)            92.5561         estimate D2E/DX2                !
 ! A255  A(40,39,41)           102.8996         estimate D2E/DX2                !
 ! A256  A(41,39,62)           103.4073         estimate D2E/DX2                !
 ! A257  A(18,40,39)            88.2252         estimate D2E/DX2                !
 ! A258  A(18,42,43)            86.0393         estimate D2E/DX2                !
 ! A259  A(18,42,44)            93.1372         estimate D2E/DX2                !
 ! A260  A(18,42,45)           119.3788         estimate D2E/DX2                !
 ! A261  A(18,42,61)           137.6599         estimate D2E/DX2                !
 ! A262  A(19,42,20)            80.9466         estimate D2E/DX2                !
 ! A263  A(19,42,43)           136.9694         estimate D2E/DX2                !
 ! A264  A(19,42,44)            86.2005         estimate D2E/DX2                !
 ! A265  A(19,42,45)           135.8471         estimate D2E/DX2                !
 ! A266  A(19,42,61)           105.1636         estimate D2E/DX2                !
 ! A267  A(20,42,43)            77.8876         estimate D2E/DX2                !
 ! A268  A(20,42,44)           135.832          estimate D2E/DX2                !
 ! A269  A(20,42,45)           127.8675         estimate D2E/DX2                !
 ! A270  A(20,42,61)           100.2733         estimate D2E/DX2                !
 ! A271  A(43,42,44)            83.6063         estimate D2E/DX2                !
 ! A272  A(43,42,61)           115.1842         estimate D2E/DX2                !
 ! A273  A(44,42,61)           123.8845         estimate D2E/DX2                !
 ! A274  A(45,42,61)           101.4105         estimate D2E/DX2                !
 ! A275  A(6,43,42)             81.549          estimate D2E/DX2                !
 ! A276  A(6,43,45)             81.2391         estimate D2E/DX2                !
 ! A277  A(6,44,42)             82.4726         estimate D2E/DX2                !
 ! A278  A(6,44,45)             81.9735         estimate D2E/DX2                !
 ! A279  A(3,45,42)            132.5631         estimate D2E/DX2                !
 ! A280  A(3,45,43)             83.0994         estimate D2E/DX2                !
 ! A281  A(3,45,44)            136.2934         estimate D2E/DX2                !
 ! A282  A(3,45,46)             83.4344         estimate D2E/DX2                !
 ! A283  A(3,45,47)            132.4168         estimate D2E/DX2                !
 ! A284  A(3,45,66)             80.2042         estimate D2E/DX2                !
 ! A285  A(3,45,68)             84.378          estimate D2E/DX2                !
 ! A286  A(42,45,46)           129.5454         estimate D2E/DX2                !
 ! A287  A(42,45,47)            91.5306         estimate D2E/DX2                !
 ! A288  A(42,45,66)            93.3212         estimate D2E/DX2                !
 ! A289  A(42,45,68)           126.4315         estimate D2E/DX2                !
 ! A290  A(43,45,44)            82.649          estimate D2E/DX2                !
 ! A291  A(43,45,46)           138.7699         estimate D2E/DX2                !
 ! A292  A(43,45,47)           136.5131         estimate D2E/DX2                !
 ! A293  A(43,45,48)           132.8178         estimate D2E/DX2                !
 ! A294  A(43,45,66)            83.3462         estimate D2E/DX2                !
 ! A295  A(43,45,68)           133.337          estimate D2E/DX2                !
 ! A296  A(44,45,46)            80.7216         estimate D2E/DX2                !
 ! A297  A(44,45,47)            83.3122         estimate D2E/DX2                !
 ! A298  A(44,45,48)           130.3752         estimate D2E/DX2                !
 ! A299  A(44,45,66)           138.2241         estimate D2E/DX2                !
 ! A300  A(44,45,68)           133.2436         estimate D2E/DX2                !
 ! A301  A(46,45,47)            78.2523         estimate D2E/DX2                !
 ! A302  A(46,45,66)           131.9613         estimate D2E/DX2                !
 ! A303  A(46,45,68)            83.5265         estimate D2E/DX2                !
 ! A304  A(47,45,48)            86.1151         estimate D2E/DX2                !
 ! A305  A(47,45,66)            80.3525         estimate D2E/DX2                !
 ! A306  A(48,45,66)            86.5614         estimate D2E/DX2                !
 ! A307  A(1,46,45)             80.9231         estimate D2E/DX2                !
 ! A308  A(1,46,48)             81.4646         estimate D2E/DX2                !
 ! A309  A(45,47,65)            79.1132         estimate D2E/DX2                !
 ! A310  A(3,48,21)             90.5173         estimate D2E/DX2                !
 ! A311  A(3,48,23)             81.5063         estimate D2E/DX2                !
 ! A312  A(3,48,46)             85.4304         estimate D2E/DX2                !
 ! A313  A(3,48,49)            136.0319         estimate D2E/DX2                !
 ! A314  A(3,48,50)            128.4399         estimate D2E/DX2                !
 ! A315  A(3,48,68)             92.3939         estimate D2E/DX2                !
 ! A316  A(21,48,45)           121.3709         estimate D2E/DX2                !
 ! A317  A(21,48,46)            89.8404         estimate D2E/DX2                !
 ! A318  A(21,48,50)           121.7886         estimate D2E/DX2                !
 ! A319  A(23,48,45)           132.5624         estimate D2E/DX2                !
 ! A320  A(23,48,46)           135.1214         estimate D2E/DX2                !
 ! A321  A(23,48,49)            79.2674         estimate D2E/DX2                !
 ! A322  A(23,48,50)            91.9174         estimate D2E/DX2                !
 ! A323  A(23,48,68)           131.6623         estimate D2E/DX2                !
 ! A324  A(45,48,49)           132.0835         estimate D2E/DX2                !
 ! A325  A(45,48,50)           116.8383         estimate D2E/DX2                !
 ! A326  A(46,48,49)            81.1016         estimate D2E/DX2                !
 ! A327  A(46,48,50)           128.612          estimate D2E/DX2                !
 ! A328  A(46,48,68)            91.448          estimate D2E/DX2                !
 ! A329  A(49,48,50)            91.4706         estimate D2E/DX2                !
 ! A330  A(49,48,68)           129.4017         estimate D2E/DX2                !
 ! A331  A(14,51,22)            95.6254         estimate D2E/DX2                !
 ! A332  A(14,51,52)            90.4696         estimate D2E/DX2                !
 ! A333  A(14,51,60)           117.1326         estimate D2E/DX2                !
 ! A334  A(14,51,63)           134.744          estimate D2E/DX2                !
 ! A335  A(22,51,52)           134.0322         estimate D2E/DX2                !
 ! A336  A(22,51,54)           147.9247         estimate D2E/DX2                !
 ! A337  A(22,51,60)            99.8034         estimate D2E/DX2                !
 ! A338  A(52,51,60)           117.5405         estimate D2E/DX2                !
 ! A339  A(52,51,63)            95.5704         estimate D2E/DX2                !
 ! A340  A(54,51,60)           100.1084         estimate D2E/DX2                !
 ! A341  A(54,51,63)           147.8512         estimate D2E/DX2                !
 ! A342  A(60,51,63)            99.4284         estimate D2E/DX2                !
 ! A343  A(12,52,51)            81.0061         estimate D2E/DX2                !
 ! A344  A(12,52,54)            77.0848         estimate D2E/DX2                !
 ! A345  A(14,54,52)            84.8743         estimate D2E/DX2                !
 ! A346  A(14,54,53)           105.6021         estimate D2E/DX2                !
 ! A347  A(14,54,55)           142.4947         estimate D2E/DX2                !
 ! A348  A(14,54,56)            83.1796         estimate D2E/DX2                !
 ! A349  A(14,54,57)           133.5247         estimate D2E/DX2                !
 ! A350  A(51,54,53)            83.3235         estimate D2E/DX2                !
 ! A351  A(51,54,55)           131.2758         estimate D2E/DX2                !
 ! A352  A(51,54,56)           132.208          estimate D2E/DX2                !
 ! A353  A(52,54,53)           104.7969         estimate D2E/DX2                !
 ! A354  A(52,54,55)            82.2678         estimate D2E/DX2                !
 ! A355  A(52,54,56)           144.0944         estimate D2E/DX2                !
 ! A356  A(52,54,57)           132.2623         estimate D2E/DX2                !
 ! A357  A(53,54,55)           111.715          estimate D2E/DX2                !
 ! A358  A(53,54,56)           111.0112         estimate D2E/DX2                !
 ! A359  A(53,54,57)            91.9247         estimate D2E/DX2                !
 ! A360  A(55,54,56)            86.9436         estimate D2E/DX2                !
 ! A361  A(27,55,54)            77.6986         estimate D2E/DX2                !
 ! A362  A(27,55,57)            79.5809         estimate D2E/DX2                !
 ! A363  A(27,56,54)            77.9966         estimate D2E/DX2                !
 ! A364  A(27,56,57)            79.7244         estimate D2E/DX2                !
 ! A365  A(31,57,54)           149.8059         estimate D2E/DX2                !
 ! A366  A(31,57,55)           133.5614         estimate D2E/DX2                !
 ! A367  A(31,57,56)            96.9899         estimate D2E/DX2                !
 ! A368  A(31,57,58)           101.5637         estimate D2E/DX2                !
 ! A369  A(54,57,58)            97.3595         estimate D2E/DX2                !
 ! A370  A(54,57,64)           145.6072         estimate D2E/DX2                !
 ! A371  A(55,57,56)            91.7251         estimate D2E/DX2                !
 ! A372  A(55,57,58)           115.1686         estimate D2E/DX2                !
 ! A373  A(55,57,64)            92.6759         estimate D2E/DX2                !
 ! A374  A(56,57,58)           115.9417         estimate D2E/DX2                !
 ! A375  A(56,57,64)           134.2616         estimate D2E/DX2                !
 ! A376  A(58,57,64)           102.9815         estimate D2E/DX2                !
 ! A377  A(42,61,65)            94.4439         estimate D2E/DX2                !
 ! A378  A(18,62,39)            88.777          estimate D2E/DX2                !
 ! A379  A(21,63,51)            88.0986         estimate D2E/DX2                !
 ! A380  A(30,64,57)            88.0255         estimate D2E/DX2                !
 ! A381  A(47,65,61)           120.3223         estimate D2E/DX2                !
 ! A382  A(47,65,66)            89.8306         estimate D2E/DX2                !
 ! A383  A(47,65,67)           109.195          estimate D2E/DX2                !
 ! A384  A(61,65,66)           115.5835         estimate D2E/DX2                !
 ! A385  A(61,65,67)           111.1357         estimate D2E/DX2                !
 ! A386  A(61,65,68)           154.0098         estimate D2E/DX2                !
 ! A387  A(66,65,67)           108.7735         estimate D2E/DX2                !
 ! A388  A(67,65,68)            94.6433         estimate D2E/DX2                !
 ! A389  A(45,66,65)            78.672          estimate D2E/DX2                !
 ! A390  A(45,68,50)           122.2039         estimate D2E/DX2                !
 ! A391  A(45,68,65)            63.0965         estimate D2E/DX2                !
 ! A392  A(45,68,69)           156.6787         estimate D2E/DX2                !
 ! A393  A(47,68,48)           101.4768         estimate D2E/DX2                !
 ! A394  A(47,68,50)           132.8309         estimate D2E/DX2                !
 ! A395  A(47,68,66)            89.8501         estimate D2E/DX2                !
 ! A396  A(47,68,69)           108.3932         estimate D2E/DX2                !
 ! A397  A(48,68,65)           129.6632         estimate D2E/DX2                !
 ! A398  A(48,68,66)           102.3577         estimate D2E/DX2                !
 ! A399  A(48,68,69)           136.7483         estimate D2E/DX2                !
 ! A400  A(50,68,66)           132.1691         estimate D2E/DX2                !
 ! A401  A(50,68,69)            81.1171         estimate D2E/DX2                !
 ! A402  A(65,68,69)            93.5822         estimate D2E/DX2                !
 ! A403  A(66,68,69)           108.1632         estimate D2E/DX2                !
 ! A404  L(42,45,48,47,-1)     177.6457         estimate D2E/DX2                !
 ! A405  L(21,48,68,3,-1)      182.9113         estimate D2E/DX2                !
 ! A406  L(51,54,57,53,-1)     175.2482         estimate D2E/DX2                !
 ! A407  L(50,68,65,45,-1)     185.3004         estimate D2E/DX2                !
 ! A408  L(68,69,70,67,-1)     179.7824         estimate D2E/DX2                !
 ! A409  L(42,45,48,47,-2)     179.7242         estimate D2E/DX2                !
 ! A410  L(21,48,68,3,-2)      181.0609         estimate D2E/DX2                !
 ! A411  L(51,54,57,53,-2)     179.3103         estimate D2E/DX2                !
 ! A412  L(50,68,65,45,-2)     180.1861         estimate D2E/DX2                !
 ! A413  L(68,69,70,67,-2)     180.1285         estimate D2E/DX2                !
 ! D1    D(3,1,2,12)           179.6757         estimate D2E/DX2                !
 ! D2    D(3,1,2,21)            93.7594         estimate D2E/DX2                !
 ! D3    D(4,1,2,12)           -27.5003         estimate D2E/DX2                !
 ! D4    D(4,1,2,21)          -113.4167         estimate D2E/DX2                !
 ! D5    D(5,1,2,12)            42.0821         estimate D2E/DX2                !
 ! D6    D(5,1,2,21)           -43.8343         estimate D2E/DX2                !
 ! D7    D(8,1,2,12)           -97.9204         estimate D2E/DX2                !
 ! D8    D(8,1,2,21)           176.1633         estimate D2E/DX2                !
 ! D9    D(46,1,2,12)          108.6667         estimate D2E/DX2                !
 ! D10   D(46,1,2,21)           22.7504         estimate D2E/DX2                !
 ! D11   D(2,1,3,45)          -178.1934         estimate D2E/DX2                !
 ! D12   D(2,1,3,48)           -97.8166         estimate D2E/DX2                !
 ! D13   D(4,1,3,45)            28.668          estimate D2E/DX2                !
 ! D14   D(4,1,3,48)           109.0449         estimate D2E/DX2                !
 ! D15   D(5,1,3,45)          -109.8383         estimate D2E/DX2                !
 ! D16   D(5,1,3,48)           -29.4614         estimate D2E/DX2                !
 ! D17   D(8,1,3,45)            97.9677         estimate D2E/DX2                !
 ! D18   D(8,1,3,48)           178.3445         estimate D2E/DX2                !
 ! D19   D(46,1,3,45)          -41.2649         estimate D2E/DX2                !
 ! D20   D(46,1,3,48)           39.1119         estimate D2E/DX2                !
 ! D21   D(2,1,4,6)           -112.2795         estimate D2E/DX2                !
 ! D22   D(2,1,4,9)            -29.2816         estimate D2E/DX2                !
 ! D23   D(3,1,4,6)             27.8928         estimate D2E/DX2                !
 ! D24   D(3,1,4,9)            110.8908         estimate D2E/DX2                !
 ! D25   D(5,1,4,6)            179.4338         estimate D2E/DX2                !
 ! D26   D(5,1,4,9)            -97.5683         estimate D2E/DX2                !
 ! D27   D(8,1,4,6)            -41.3874         estimate D2E/DX2                !
 ! D28   D(8,1,4,9)             41.6106         estimate D2E/DX2                !
 ! D29   D(46,1,4,6)            97.7073         estimate D2E/DX2                !
 ! D30   D(46,1,4,9)          -179.2947         estimate D2E/DX2                !
 ! D31   D(2,1,5,12)           -42.1832         estimate D2E/DX2                !
 ! D32   D(2,1,5,21)            43.7607         estimate D2E/DX2                !
 ! D33   D(3,1,5,12)          -111.6805         estimate D2E/DX2                !
 ! D34   D(3,1,5,21)           -25.7365         estimate D2E/DX2                !
 ! D35   D(4,1,5,12)            96.4817         estimate D2E/DX2                !
 ! D36   D(4,1,5,21)          -177.5744         estimate D2E/DX2                !
 ! D37   D(8,1,5,12)            26.0869         estimate D2E/DX2                !
 ! D38   D(8,1,5,21)           112.0308         estimate D2E/DX2                !
 ! D39   D(46,1,5,12)          179.4341         estimate D2E/DX2                !
 ! D40   D(46,1,5,21)          -94.622          estimate D2E/DX2                !
 ! D41   D(2,1,8,6)            179.3933         estimate D2E/DX2                !
 ! D42   D(2,1,8,9)             96.848          estimate D2E/DX2                !
 ! D43   D(3,1,8,6)            -96.8231         estimate D2E/DX2                !
 ! D44   D(3,1,8,9)           -179.3684         estimate D2E/DX2                !
 ! D45   D(4,1,8,6)             41.1927         estimate D2E/DX2                !
 ! D46   D(4,1,8,9)            -41.3526         estimate D2E/DX2                !
 ! D47   D(5,1,8,6)            112.2123         estimate D2E/DX2                !
 ! D48   D(5,1,8,9)             29.667          estimate D2E/DX2                !
 ! D49   D(46,1,8,6)           -28.0797         estimate D2E/DX2                !
 ! D50   D(46,1,8,9)          -110.625          estimate D2E/DX2                !
 ! D51   D(2,1,46,45)          112.7866         estimate D2E/DX2                !
 ! D52   D(2,1,46,48)           32.2856         estimate D2E/DX2                !
 ! D53   D(3,1,46,45)           41.3267         estimate D2E/DX2                !
 ! D54   D(3,1,46,48)          -39.1743         estimate D2E/DX2                !
 ! D55   D(4,1,46,45)          -96.5219         estimate D2E/DX2                !
 ! D56   D(4,1,46,48)         -177.0229         estimate D2E/DX2                !
 ! D57   D(5,1,46,45)          178.9927         estimate D2E/DX2                !
 ! D58   D(5,1,46,48)           98.4917         estimate D2E/DX2                !
 ! D59   D(8,1,46,45)          -27.381          estimate D2E/DX2                !
 ! D60   D(8,1,46,48)         -107.882          estimate D2E/DX2                !
 ! D61   D(1,2,12,5)           -42.2137         estimate D2E/DX2                !
 ! D62   D(1,2,12,11)           26.85           estimate D2E/DX2                !
 ! D63   D(1,2,12,14)         -179.7848         estimate D2E/DX2                !
 ! D64   D(1,2,12,15)           95.9219         estimate D2E/DX2                !
 ! D65   D(1,2,12,52)         -109.1412         estimate D2E/DX2                !
 ! D66   D(21,2,12,5)           39.1364         estimate D2E/DX2                !
 ! D67   D(21,2,12,11)         108.2001         estimate D2E/DX2                !
 ! D68   D(21,2,12,14)         -98.4347         estimate D2E/DX2                !
 ! D69   D(21,2,12,15)         177.272          estimate D2E/DX2                !
 ! D70   D(21,2,12,52)         -27.791          estimate D2E/DX2                !
 ! D71   D(1,2,21,5)            44.1388         estimate D2E/DX2                !
 ! D72   D(1,2,21,22)          174.5943         estimate D2E/DX2                !
 ! D73   D(1,2,21,23)          -98.0801         estimate D2E/DX2                !
 ! D74   D(1,2,21,48)          -47.1939         estimate D2E/DX2                !
 ! D75   D(1,2,21,49)          -24.0388         estimate D2E/DX2                !
 ! D76   D(1,2,21,63)          135.3557         estimate D2E/DX2                !
 ! D77   D(12,2,21,5)          -39.2751         estimate D2E/DX2                !
 ! D78   D(12,2,21,22)          91.1805         estimate D2E/DX2                !
 ! D79   D(12,2,21,23)         178.5061         estimate D2E/DX2                !
 ! D80   D(12,2,21,48)        -130.6078         estimate D2E/DX2                !
 ! D81   D(12,2,21,49)        -107.4526         estimate D2E/DX2                !
 ! D82   D(12,2,21,63)          51.9418         estimate D2E/DX2                !
 ! D83   D(1,3,45,42)          -97.9563         estimate D2E/DX2                !
 ! D84   D(1,3,45,43)          -99.0383         estimate D2E/DX2                !
 ! D85   D(1,3,45,44)          -27.2867         estimate D2E/DX2                !
 ! D86   D(1,3,45,46)           41.9017         estimate D2E/DX2                !
 ! D87   D(1,3,45,47)          109.3966         estimate D2E/DX2                !
 ! D88   D(1,3,45,66)          176.5597         estimate D2E/DX2                !
 ! D89   D(1,3,45,68)          126.0067         estimate D2E/DX2                !
 ! D90   D(1,3,48,21)           49.3327         estimate D2E/DX2                !
 ! D91   D(1,3,48,23)           96.4778         estimate D2E/DX2                !
 ! D92   D(1,3,48,46)          -40.4658         estimate D2E/DX2                !
 ! D93   D(1,3,48,49)           31.6935         estimate D2E/DX2                !
 ! D94   D(1,3,48,50)         -177.8431         estimate D2E/DX2                !
 ! D95   D(1,3,48,68)         -131.7282         estimate D2E/DX2                !
 ! D96   D(1,4,6,7)           -179.734          estimate D2E/DX2                !
 ! D97   D(1,4,6,8)             41.1613         estimate D2E/DX2                !
 ! D98   D(1,4,6,16)           108.878          estimate D2E/DX2                !
 ! D99   D(1,4,6,18)          -178.5278         estimate D2E/DX2                !
 ! D100  D(1,4,6,43)           -31.901          estimate D2E/DX2                !
 ! D101  D(1,4,6,44)           -96.3063         estimate D2E/DX2                !
 ! D102  D(9,4,6,7)             97.427          estimate D2E/DX2                !
 ! D103  D(9,4,6,8)            -41.6777         estimate D2E/DX2                !
 ! D104  D(9,4,6,16)            26.039          estimate D2E/DX2                !
 ! D105  D(9,4,6,18)            98.6332         estimate D2E/DX2                !
 ! D106  D(9,4,6,43)          -114.74           estimate D2E/DX2                !
 ! D107  D(9,4,6,44)          -179.1452         estimate D2E/DX2                !
 ! D108  D(1,4,9,8)            -41.3329         estimate D2E/DX2                !
 ! D109  D(1,4,9,10)          -178.1548         estimate D2E/DX2                !
 ! D110  D(1,4,9,11)            96.1112         estimate D2E/DX2                !
 ! D111  D(1,4,9,15)            29.9918         estimate D2E/DX2                !
 ! D112  D(1,4,9,26)          -110.7962         estimate D2E/DX2                !
 ! D113  D(6,4,9,8)             41.6274         estimate D2E/DX2                !
 ! D114  D(6,4,9,10)           -95.1944         estimate D2E/DX2                !
 ! D115  D(6,4,9,11)           179.0715         estimate D2E/DX2                !
 ! D116  D(6,4,9,15)           112.9522         estimate D2E/DX2                !
 ! D117  D(6,4,9,26)           -27.8358         estimate D2E/DX2                !
 ! D118  D(1,5,12,2)            42.2735         estimate D2E/DX2                !
 ! D119  D(1,5,12,11)          -94.5836         estimate D2E/DX2                !
 ! D120  D(1,5,12,14)          111.1297         estimate D2E/DX2                !
 ! D121  D(1,5,12,15)          -25.9995         estimate D2E/DX2                !
 ! D122  D(1,5,12,52)          179.7478         estimate D2E/DX2                !
 ! D123  D(21,5,12,2)          -39.0719         estimate D2E/DX2                !
 ! D124  D(21,5,12,11)        -175.929          estimate D2E/DX2                !
 ! D125  D(21,5,12,14)          29.7843         estimate D2E/DX2                !
 ! D126  D(21,5,12,15)        -107.3449         estimate D2E/DX2                !
 ! D127  D(21,5,12,52)          98.4024         estimate D2E/DX2                !
 ! D128  D(1,5,21,2)           -44.2249         estimate D2E/DX2                !
 ! D129  D(1,5,21,22)         -134.2963         estimate D2E/DX2                !
 ! D130  D(1,5,21,23)           25.6599         estimate D2E/DX2                !
 ! D131  D(1,5,21,48)           48.2611         estimate D2E/DX2                !
 ! D132  D(1,5,21,49)           98.9668         estimate D2E/DX2                !
 ! D133  D(1,5,21,63)         -174.7962         estimate D2E/DX2                !
 ! D134  D(12,5,21,2)           39.3832         estimate D2E/DX2                !
 ! D135  D(12,5,21,22)         -50.6883         estimate D2E/DX2                !
 ! D136  D(12,5,21,23)         109.268          estimate D2E/DX2                !
 ! D137  D(12,5,21,48)         131.8692         estimate D2E/DX2                !
 ! D138  D(12,5,21,49)        -177.4252         estimate D2E/DX2                !
 ! D139  D(12,5,21,63)         -91.1881         estimate D2E/DX2                !
 ! D140  D(4,6,7,13)           -96.4953         estimate D2E/DX2                !
 ! D141  D(8,6,7,13)           -24.7651         estimate D2E/DX2                !
 ! D142  D(16,6,7,13)           41.5447         estimate D2E/DX2                !
 ! D143  D(43,6,7,13)          113.0488         estimate D2E/DX2                !
 ! D144  D(44,6,7,13)         -176.9788         estimate D2E/DX2                !
 ! D145  D(4,6,8,1)            -41.4145         estimate D2E/DX2                !
 ! D146  D(4,6,8,9)             41.4755         estimate D2E/DX2                !
 ! D147  D(7,6,8,1)           -114.2598         estimate D2E/DX2                !
 ! D148  D(7,6,8,9)            -31.3697         estimate D2E/DX2                !
 ! D149  D(16,6,8,1)           179.3649         estimate D2E/DX2                !
 ! D150  D(16,6,8,9)           -97.7451         estimate D2E/DX2                !
 ! D151  D(18,6,8,1)           174.8856         estimate D2E/DX2                !
 ! D152  D(18,6,8,9)          -102.2244         estimate D2E/DX2                !
 ! D153  D(43,6,8,1)            96.3613         estimate D2E/DX2                !
 ! D154  D(43,6,8,9)           179.2513         estimate D2E/DX2                !
 ! D155  D(44,6,8,1)            25.8867         estimate D2E/DX2                !
 ! D156  D(44,6,8,9)           108.7768         estimate D2E/DX2                !
 ! D157  D(4,6,16,13)           30.99           estimate D2E/DX2                !
 ! D158  D(7,6,16,13)          -41.7667         estimate D2E/DX2                !
 ! D159  D(8,6,16,13)           98.9905         estimate D2E/DX2                !
 ! D160  D(43,6,16,13)        -175.5074         estimate D2E/DX2                !
 ! D161  D(44,6,16,13)        -109.9746         estimate D2E/DX2                !
 ! D162  D(4,6,18,19)           75.4413         estimate D2E/DX2                !
 ! D163  D(4,6,18,20)          156.7394         estimate D2E/DX2                !
 ! D164  D(4,6,18,40)           -9.733          estimate D2E/DX2                !
 ! D165  D(4,6,18,42)          113.9472         estimate D2E/DX2                !
 ! D166  D(4,6,18,62)         -107.3967         estimate D2E/DX2                !
 ! D167  D(8,6,18,19)         -160.1244         estimate D2E/DX2                !
 ! D168  D(8,6,18,20)          -78.8263         estimate D2E/DX2                !
 ! D169  D(8,6,18,40)          114.7014         estimate D2E/DX2                !
 ! D170  D(8,6,18,42)         -121.6185         estimate D2E/DX2                !
 ! D171  D(8,6,18,62)           17.0377         estimate D2E/DX2                !
 ! D172  D(43,6,18,19)         -81.8466         estimate D2E/DX2                !
 ! D173  D(43,6,18,20)          -0.5485         estimate D2E/DX2                !
 ! D174  D(43,6,18,40)        -167.0209         estimate D2E/DX2                !
 ! D175  D(43,6,18,42)         -43.3407         estimate D2E/DX2                !
 ! D176  D(43,6,18,62)          95.3154         estimate D2E/DX2                !
 ! D177  D(44,6,18,19)          -1.9465         estimate D2E/DX2                !
 ! D178  D(44,6,18,20)          79.3515         estimate D2E/DX2                !
 ! D179  D(44,6,18,40)         -87.1208         estimate D2E/DX2                !
 ! D180  D(44,6,18,42)          36.5593         estimate D2E/DX2                !
 ! D181  D(44,6,18,62)         175.2155         estimate D2E/DX2                !
 ! D182  D(4,6,43,42)         -104.539          estimate D2E/DX2                !
 ! D183  D(4,6,43,45)          -22.8849         estimate D2E/DX2                !
 ! D184  D(7,6,43,42)           30.8548         estimate D2E/DX2                !
 ! D185  D(7,6,43,45)          112.5089         estimate D2E/DX2                !
 ! D186  D(8,6,43,42)         -176.5533         estimate D2E/DX2                !
 ! D187  D(8,6,43,45)          -94.8992         estimate D2E/DX2                !
 ! D188  D(16,6,43,42)         101.8728         estimate D2E/DX2                !
 ! D189  D(16,6,43,45)        -176.473          estimate D2E/DX2                !
 ! D190  D(18,6,43,42)          52.3672         estimate D2E/DX2                !
 ! D191  D(18,6,43,45)         134.0213         estimate D2E/DX2                !
 ! D192  D(44,6,43,42)         -40.2018         estimate D2E/DX2                !
 ! D193  D(44,6,43,45)          41.4524         estimate D2E/DX2                !
 ! D194  D(4,6,44,42)         -179.1584         estimate D2E/DX2                !
 ! D195  D(4,6,44,45)           98.4729         estimate D2E/DX2                !
 ! D196  D(7,6,44,42)          -93.3136         estimate D2E/DX2                !
 ! D197  D(7,6,44,45)         -175.6822         estimate D2E/DX2                !
 ! D198  D(8,6,44,42)          112.8421         estimate D2E/DX2                !
 ! D199  D(8,6,44,45)           30.4735         estimate D2E/DX2                !
 ! D200  D(16,6,44,42)         -25.6384         estimate D2E/DX2                !
 ! D201  D(16,6,44,45)        -108.0071         estimate D2E/DX2                !
 ! D202  D(18,6,44,42)         -43.9062         estimate D2E/DX2                !
 ! D203  D(18,6,44,45)        -126.2749         estimate D2E/DX2                !
 ! D204  D(43,6,44,42)          40.6381         estimate D2E/DX2                !
 ! D205  D(43,6,44,45)         -41.7306         estimate D2E/DX2                !
 ! D206  D(6,7,13,10)           94.7882         estimate D2E/DX2                !
 ! D207  D(6,7,13,16)          -41.9071         estimate D2E/DX2                !
 ! D208  D(6,7,13,26)           26.3095         estimate D2E/DX2                !
 ! D209  D(6,7,13,37)          178.2472         estimate D2E/DX2                !
 ! D210  D(6,7,13,38)         -111.7098         estimate D2E/DX2                !
 ! D211  D(18,7,13,10)         174.7171         estimate D2E/DX2                !
 ! D212  D(18,7,13,16)          38.0219         estimate D2E/DX2                !
 ! D213  D(18,7,13,26)         106.2384         estimate D2E/DX2                !
 ! D214  D(18,7,13,37)        -101.8239         estimate D2E/DX2                !
 ! D215  D(18,7,13,38)         -31.7808         estimate D2E/DX2                !
 ! D216  D(13,7,18,16)         -38.6317         estimate D2E/DX2                !
 ! D217  D(13,7,18,19)         178.5168         estimate D2E/DX2                !
 ! D218  D(13,7,18,20)        -118.4397         estimate D2E/DX2                !
 ! D219  D(13,7,18,40)          92.6446         estimate D2E/DX2                !
 ! D220  D(13,7,18,42)        -135.6095         estimate D2E/DX2                !
 ! D221  D(13,7,18,62)          51.3342         estimate D2E/DX2                !
 ! D222  D(1,8,9,4)             41.5965         estimate D2E/DX2                !
 ! D223  D(1,8,9,10)           111.9884         estimate D2E/DX2                !
 ! D224  D(1,8,9,11)           -27.1789         estimate D2E/DX2                !
 ! D225  D(1,8,9,15)           -95.5791         estimate D2E/DX2                !
 ! D226  D(1,8,9,26)           179.8387         estimate D2E/DX2                !
 ! D227  D(6,8,9,4)            -41.4962         estimate D2E/DX2                !
 ! D228  D(6,8,9,10)            28.8958         estimate D2E/DX2                !
 ! D229  D(6,8,9,11)          -110.2715         estimate D2E/DX2                !
 ! D230  D(6,8,9,15)          -178.6717         estimate D2E/DX2                !
 ! D231  D(6,8,9,26)            96.7461         estimate D2E/DX2                !
 ! D232  D(4,9,10,13)           97.295          estimate D2E/DX2                !
 ! D233  D(4,9,10,24)         -178.7888         estimate D2E/DX2                !
 ! D234  D(8,9,10,13)           27.0768         estimate D2E/DX2                !
 ! D235  D(8,9,10,24)          110.993          estimate D2E/DX2                !
 ! D236  D(11,9,10,13)         178.9956         estimate D2E/DX2                !
 ! D237  D(11,9,10,24)         -97.0882         estimate D2E/DX2                !
 ! D238  D(15,9,10,13)        -111.5893         estimate D2E/DX2                !
 ! D239  D(15,9,10,24)         -27.6731         estimate D2E/DX2                !
 ! D240  D(26,9,10,13)         -41.4461         estimate D2E/DX2                !
 ! D241  D(26,9,10,24)          42.4701         estimate D2E/DX2                !
 ! D242  D(4,9,11,12)          -98.0624         estimate D2E/DX2                !
 ! D243  D(4,9,11,27)          179.4963         estimate D2E/DX2                !
 ! D244  D(8,9,11,12)          -29.0605         estimate D2E/DX2                !
 ! D245  D(8,9,11,27)         -111.5019         estimate D2E/DX2                !
 ! D246  D(10,9,11,12)         179.1373         estimate D2E/DX2                !
 ! D247  D(10,9,11,27)          96.696          estimate D2E/DX2                !
 ! D248  D(15,9,11,12)          40.533          estimate D2E/DX2                !
 ! D249  D(15,9,11,27)         -41.9084         estimate D2E/DX2                !
 ! D250  D(26,9,11,12)         109.7501         estimate D2E/DX2                !
 ! D251  D(26,9,11,27)          27.3087         estimate D2E/DX2                !
 ! D252  D(4,9,15,12)           25.9965         estimate D2E/DX2                !
 ! D253  D(4,9,15,27)          108.4219         estimate D2E/DX2                !
 ! D254  D(8,9,15,12)           96.8199         estimate D2E/DX2                !
 ! D255  D(8,9,15,27)          179.2453         estimate D2E/DX2                !
 ! D256  D(10,9,15,12)        -111.7888         estimate D2E/DX2                !
 ! D257  D(10,9,15,27)         -29.3634         estimate D2E/DX2                !
 ! D258  D(11,9,15,12)         -40.5766         estimate D2E/DX2                !
 ! D259  D(11,9,15,27)          41.8487         estimate D2E/DX2                !
 ! D260  D(26,9,15,12)         179.392          estimate D2E/DX2                !
 ! D261  D(26,9,15,27)         -98.1827         estimate D2E/DX2                !
 ! D262  D(4,9,26,13)          -26.9943         estimate D2E/DX2                !
 ! D263  D(4,9,26,24)         -110.5854         estimate D2E/DX2                !
 ! D264  D(8,9,26,13)          -96.362          estimate D2E/DX2                !
 ! D265  D(8,9,26,24)         -179.9531         estimate D2E/DX2                !
 ! D266  D(10,9,26,13)          41.0855         estimate D2E/DX2                !
 ! D267  D(10,9,26,24)         -42.5055         estimate D2E/DX2                !
 ! D268  D(11,9,26,13)         112.1123         estimate D2E/DX2                !
 ! D269  D(11,9,26,24)          28.5213         estimate D2E/DX2                !
 ! D270  D(15,9,26,13)         179.9358         estimate D2E/DX2                !
 ! D271  D(15,9,26,24)          96.3448         estimate D2E/DX2                !
 ! D272  D(9,10,13,7)          -97.3891         estimate D2E/DX2                !
 ! D273  D(9,10,13,16)         -26.4029         estimate D2E/DX2                !
 ! D274  D(9,10,13,26)          41.3106         estimate D2E/DX2                !
 ! D275  D(9,10,13,37)         179.909          estimate D2E/DX2                !
 ! D276  D(9,10,13,38)         109.6981         estimate D2E/DX2                !
 ! D277  D(24,10,13,7)        -179.356          estimate D2E/DX2                !
 ! D278  D(24,10,13,16)       -108.3697         estimate D2E/DX2                !
 ! D279  D(24,10,13,26)        -40.6562         estimate D2E/DX2                !
 ! D280  D(24,10,13,37)         97.9422         estimate D2E/DX2                !
 ! D281  D(24,10,13,38)         27.7312         estimate D2E/DX2                !
 ! D282  D(9,10,24,17)        -112.5343         estimate D2E/DX2                !
 ! D283  D(9,10,24,25)        -179.9346         estimate D2E/DX2                !
 ! D284  D(9,10,24,26)         -43.0368         estimate D2E/DX2                !
 ! D285  D(9,10,24,28)          95.1271         estimate D2E/DX2                !
 ! D286  D(9,10,24,29)          29.9737         estimate D2E/DX2                !
 ! D287  D(13,10,24,17)        -28.1748         estimate D2E/DX2                !
 ! D288  D(13,10,24,25)        -95.5752         estimate D2E/DX2                !
 ! D289  D(13,10,24,26)         41.3226         estimate D2E/DX2                !
 ! D290  D(13,10,24,28)        179.4866         estimate D2E/DX2                !
 ! D291  D(13,10,24,29)        114.3331         estimate D2E/DX2                !
 ! D292  D(9,11,12,2)           28.5514         estimate D2E/DX2                !
 ! D293  D(9,11,12,5)           96.8985         estimate D2E/DX2                !
 ! D294  D(9,11,12,14)        -110.4451         estimate D2E/DX2                !
 ! D295  D(9,11,12,15)         -40.9725         estimate D2E/DX2                !
 ! D296  D(9,11,12,52)         178.1567         estimate D2E/DX2                !
 ! D297  D(27,11,12,2)         112.1696         estimate D2E/DX2                !
 ! D298  D(27,11,12,5)        -179.4833         estimate D2E/DX2                !
 ! D299  D(27,11,12,14)        -26.827          estimate D2E/DX2                !
 ! D300  D(27,11,12,15)         42.6456         estimate D2E/DX2                !
 ! D301  D(27,11,12,52)        -98.2252         estimate D2E/DX2                !
 ! D302  D(9,11,27,15)          42.2829         estimate D2E/DX2                !
 ! D303  D(9,11,27,28)         -93.833          estimate D2E/DX2                !
 ! D304  D(9,11,27,29)         -26.7289         estimate D2E/DX2                !
 ! D305  D(9,11,27,55)        -178.9411         estimate D2E/DX2                !
 ! D306  D(9,11,27,56)         113.2292         estimate D2E/DX2                !
 ! D307  D(12,11,27,15)        -42.5578         estimate D2E/DX2                !
 ! D308  D(12,11,27,28)       -178.6736         estimate D2E/DX2                !
 ! D309  D(12,11,27,29)       -111.5696         estimate D2E/DX2                !
 ! D310  D(12,11,27,55)         96.2182         estimate D2E/DX2                !
 ! D311  D(12,11,27,56)         28.3886         estimate D2E/DX2                !
 ! D312  D(2,12,14,51)         100.6936         estimate D2E/DX2                !
 ! D313  D(2,12,14,54)        -179.5145         estimate D2E/DX2                !
 ! D314  D(5,12,14,51)          32.5886         estimate D2E/DX2                !
 ! D315  D(5,12,14,54)         112.3805         estimate D2E/DX2                !
 ! D316  D(11,12,14,51)       -108.0069         estimate D2E/DX2                !
 ! D317  D(11,12,14,54)        -28.2149         estimate D2E/DX2                !
 ! D318  D(15,12,14,51)       -176.5719         estimate D2E/DX2                !
 ! D319  D(15,12,14,54)        -96.78           estimate D2E/DX2                !
 ! D320  D(52,12,14,51)        -35.5917         estimate D2E/DX2                !
 ! D321  D(52,12,14,54)         44.2002         estimate D2E/DX2                !
 ! D322  D(2,12,15,9)          -95.8706         estimate D2E/DX2                !
 ! D323  D(2,12,15,27)        -179.2406         estimate D2E/DX2                !
 ! D324  D(5,12,15,9)          -28.252          estimate D2E/DX2                !
 ! D325  D(5,12,15,27)        -111.6221         estimate D2E/DX2                !
[...]
 0479519,-0.00093092,0.00593065,-0.00033180,-0.00030312,-0.00011332,-0.
 00019443,-0.00020037,0.00040099,0.00046363,0.00023248,-0.00098993,0.00
 009995,0.00001410,-0.00004216,-0.00040281,0.00034926,0.00024773,-0.000
 15479,0.00018173,-0.00011483,0.00015312,-0.00002293,-0.00001071,0.0000
 7261,-0.00013141,0.00013283,0.00026628,0.00056055,-0.00085810,-0.00046
 704,-0.00004750,0.00001344,-0.00014592,-0.00015768,0.00007908,0.000017
 27,-0.00007878,0.00021612,0.00025658,-0.00009764,-0.00007284,-0.000084
 92,-0.00000018,-0.00004071,0.00014618,0.00090786,-0.00005225,0.0004020
 5,-0.00096253,0.00055001,0.00050848,0.00043209,0.00012053,0.00132677,0
 .00233982,0.00182057,0.00052812,0.00007185,0.00014713,0.00479589,0.003
 61926,0.00373923,-0.00009929,0.00002728,0.00000423,-0.00005373,0.00006
 747,-0.00001553,0.00016337,-0.00001606,-0.00000157,-0.00009527,0.00028
 072,-0.00037738,0.00003702,-0.00006125,0.00005550,0.00002098,-0.000085
 57,0.00007951,0.00009576,0.00002927,0.00010437,-0.00006864,0.00005293,
 -0.00004778,-0.00013441,0.00000886,-0.00006452,0.00035497,0.00001274,0
 .00000294,-0.00008471,-0.00000712,-0.00010243,0.00000764,0.00001356,-0
 .00002229,-0.00005801,-0.00010016,0.00011246,0.00005343,0.00002023,-0.
 00001838,0.00003024,-0.00000087,-0.00001288,0.00019086,0.00009098,-0.0
 0009546,-0.00010119,-0.00019633,0.00006740,0.00000893,-0.00002108,0.00
 002205,0.00035274,-0.00027622,-0.00208088,0.00123719,-0.00027640,-0.00
 089025,0.00079991,0.00060245,0.00055228,-0.01075850,0.02126558,-0.0265
 4499,0.00359367,-0.00239718,-0.00424543,-0.02906114,-0.02267781,-0.072
 90568,-0.00447273,0.00362774,-0.02614561,0.00003933,-0.00062548,-0.001
 01577,-0.04499017,0.02254678,-0.03473612,-0.00018474,-0.00030824,0.000
 65520,-0.00011146,-0.00004559,0.00013265,0.00000437,-0.00009654,0.0001
 2514,0.00010321,0.00044098,-0.00070892,-0.00006011,-0.00007869,0.00009
 939,-0.00006128,-0.00002612,0.00011820,-0.00000322,-0.00014980,0.00017
 733,0.00000643,-0.00002003,0.00003160,-0.00002436,0.00005301,-0.000059
 79,0.00019891,-0.00004464,0.00002629,0.00059187,0.00067052,0.00057531,
 0.00004567,0.00005954,0.00017456,0.00027586,-0.00036594,0.00025956,-0.
 00006032,0.00002740,-0.00003956,-0.00741564,0.00865443,-0.00161228,0.0
 0391243,-0.00629584,-0.01106937,-0.00091091,-0.00120731,-0.00098399,0.
 05000674,-0.06662879,0.25016332,0.00066918,0.00054740,-0.00069396,-0.0
 0006820,-0.00034072,0.00030226,0.00022059,0.00050741,0.00050808,-0.000
 02252,-0.00012695,0.00005178,-0.00006675,-0.00020667,0.00045613,-0.000
 24202,0.00015743,-0.00020392,0.00003004,-0.00002310,0.00002659,0.00000
 792,-0.00003579,0.00013961,-0.00019014,0.00020202,-0.00024532,0.000076
 97,-0.00004054,0.00002146,-0.00002715,-0.00013011,0.00013134,0.0002262
 3,0.00044582,-0.00062479,-0.00029076,0.00006037,-0.00007306,-0.0001530
 6,-0.00010986,-0.00000190,-0.00001072,-0.00009714,0.00016153,0.0000609
 9,-0.00008755,-0.00007181,-0.00003458,-0.00000486,-0.00004282,0.000135
 83,0.00067836,-0.00011579,-0.00022276,-0.00053626,0.00045354,-0.000064
 27,0.00025298,0.00006329,0.00071123,-0.00012498,0.00014947,0.00011315,
 -0.00004405,-0.00011477,0.00058668,0.00041761,0.00051466,-0.00010597,0
 .00002535,-0.00003018,-0.00003413,0.00006361,-0.00000392,0.00006886,-0
 .00002022,0.00004582,0.00005570,0.00020900,-0.00027033,0.00000273,-0.0
 0003816,0.00008188,0.00000628,-0.00009492,0.00007083,0.00008740,0.0000
 6030,0.00007967,-0.00005490,0.00004342,-0.00003253,-0.00005438,0.00001
 519,-0.00001172,0.00016471,-0.00010205,0.00007691,-0.00006801,-0.00000
 154,-0.00011299,-0.00001514,0.00007641,-0.00009924,-0.00000771,-0.0001
 3020,0.00014825,0.00002223,0.00002659,-0.00001190,0.00000104,-0.000003
 57,-0.00002343,0.00017009,-0.00001216,0.00002713,0.00000069,-0.0000899
 3,-0.00001987,-0.00005582,0.00007439,-0.00009553,0.00163187,-0.0002714
 7,-0.00075938,0.00040901,0.00047823,0.00012156,0.00043754,-0.00013464,
 -0.00048331,-0.00416218,-0.00355242,0.00532740,0.00008620,-0.00073806,
 -0.00029451,0.00103417,0.00180821,-0.00074103,-0.00870657,0.00110397,0
 .00076175,0.00042202,-0.00090193,-0.00042177,-0.01560807,-0.00649564,0
 .00983840,-0.00011275,-0.00030392,0.00043439,-0.00014375,0.00005972,0.
 00011606,0.00011848,-0.00008669,0.00010497,0.00000010,0.00045156,-0.00
 063688,-0.00004585,-0.00006499,0.00009305,-0.00004586,-0.00006651,0.00
 010251,-0.00008322,-0.00007682,0.00011671,0.00009661,-0.00003340,0.000
 03456,-0.00002727,0.00011755,-0.00013882,0.00023648,-0.00007964,0.0000
 8409,0.00022025,-0.00069479,0.00099918,0.00005285,0.00006350,0.0000677
 9,0.00012494,0.00009380,0.00000530,-0.00005045,0.00001012,-0.00004351,
 0.00360470,0.00356631,-0.00548815,0.00075178,-0.00009635,-0.00161042,-
 0.00492990,-0.00224602,0.00352340,-0.02771980,0.00184285,-0.00394408,0
 .32019023,0.00004328,0.00133553,-0.00000144,-0.00015752,-0.00004777,0.
 00016065,0.00072117,0.00042546,-0.00019015,-0.00012376,-0.00020385,-0.
 00005136,-0.00012475,-0.00002767,0.00028361,0.00031421,0.00013308,-0.0
 0015118,0.00003351,-0.00000789,0.00011666,0.00003490,-0.00010698,0.000
 05279,0.00000223,0.00010813,-0.00018726,0.00000842,-0.00003100,0.00003
 370,-0.00003830,-0.00007336,0.00010765,0.00031553,0.00032244,-0.000457
 22,-0.00004666,0.00011283,-0.00012716,-0.00008265,-0.00008019,-0.00002
 032,-0.00004832,-0.00011219,0.00011450,-0.00003629,-0.00001697,0.00002
 218,0.00000911,-0.00000484,-0.00003046,0.00000274,0.00006907,0.0000243
 9,-0.00010725,0.00000125,0.00008829,-0.00016631,0.00019349,-0.00008247
 ,-0.00024023,-0.00111903,-0.00011334,0.00011353,-0.00005703,-0.0001141
 5,0.00005955,-0.00114069,-0.00037387,-0.00007517,0.00004427,-0.0000513
 9,-0.00001200,0.00004068,0.00000360,0.00000436,-0.00002663,0.00003748,
 0.00012667,0.00013641,-0.00021278,-0.00001229,-0.00002685,0.00007042,-
 0.00000877,-0.00006653,0.00005891,0.00005392,0.00006103,0.00006302,-0.
 00002610,0.00004391,-0.00001554,0.00000656,0.00001566,0.00002269,0.000
 01887,-0.00016069,0.00011171,-0.00004302,0.00000643,-0.00010153,-0.000
 02672,0.00010155,-0.00012947,0.00002453,-0.00012653,0.00014202,0.00001
 119,0.00002283,0.00000754,0.00000157,-0.00002117,-0.00001805,0.0000738
 3,-0.00011716,0.00016494,-0.00000602,0.00001853,-0.00005248,-0.0000937
 1,0.00013251,-0.00016771,0.00053095,0.00022819,0.00049964,-0.00006757,
 -0.00029275,0.00009748,0.00036502,-0.00041263,-0.00037187,-0.00320279,
 -0.00014818,0.00291473,0.00095768,-0.00178479,0.00094621,0.00220505,0.
 00305512,-0.00079819,-0.01425808,0.01539962,0.00077728,0.00119499,-0.0
 0224299,-0.00136020,-0.00323625,-0.00466707,0.00071628,-0.00022189,-0.
 00021223,0.00026502,-0.00009331,0.00006536,0.00008601,0.00015667,-0.00
 008829,0.00009772,-0.00013106,0.00033597,-0.00043030,-0.00005127,-0.00
 002205,0.00007602,-0.00004929,-0.00005748,0.00005464,-0.00013915,-0.00
 004616,0.00008770,0.00016186,-0.00003340,0.00001899,-0.00002589,0.0001
 3840,-0.00016433,0.00031771,-0.00009189,0.00010861,0.00043570,-0.00002
 412,0.00009180,0.00003490,0.00005051,-0.00003086,0.00022026,-0.0001343
 8,0.00010642,-0.00002664,-0.00000895,-0.00003870,-0.00158820,0.0023686
 6,-0.00530957,-0.00050414,-0.00483698,0.00248409,-0.00135038,-0.002177
 40,0.00319430,0.01184683,-0.05347998,0.01418929,0.25248508,0.34372885,
 0.00004535,-0.00003014,0.00143742,0.00017649,0.00029492,-0.00016385,-0
 .00138019,0.00030556,-0.00196089,-0.00001191,0.00010331,-0.00009221,0.
 00022267,0.00018118,-0.00026526,-0.00044360,-0.00012499,0.00025990,0.0
 0000616,-0.00000032,-0.00009468,0.00010223,-0.00008969,-0.00023937,0.0
 0001890,-0.00021726,0.00025400,-0.00001992,0.00004967,-0.00004459,0.00
 006701,0.00012307,-0.00020128,-0.00045936,-0.00050230,0.00071984,0.000
 09738,-0.00012717,0.00018946,0.00016566,0.00013234,0.00003074,0.000046
 38,0.00012379,-0.00016009,-0.00000827,0.00013566,-0.00003293,-0.000007
 15,0.00000557,0.00005093,0.00010282,0.00004342,0.00016987,0.00024828,-
 0.00005519,0.00022113,0.00015508,-0.00008156,-0.00011918,0.00013615,-0
 .00014335,-0.00114095,-0.00030887,0.00010311,-0.00011516,-0.00172940,-
 0.00152788,-0.00156722,0.00011394,-0.00005606,0.00007060,0.00002223,-0
 .00006217,-0.00000318,-0.00002130,0.00004028,-0.00005379,-0.00017178,-
 0.00022518,0.00031085,0.00001545,0.00004061,-0.00010260,0.00001133,0.0
 0010513,-0.00008731,-0.00008272,-0.00008494,-0.00009264,0.00004458,-0.
 00006347,0.00002531,0.00000130,-0.00002683,-0.00002742,-0.00005581,0.0
 0022529,-0.00016185,0.00006786,-0.00000668,0.00014996,0.00003843,-0.00
 014479,0.00018451,-0.00003256,0.00018199,-0.00021467,-0.00001348,-0.00
 003922,-0.00001616,-0.00000292,0.00002203,0.00002612,-0.00012538,0.000
 16133,-0.00020780,-0.00003213,0.00000196,0.00008557,0.00013185,-0.0001
 8345,0.00023272,-0.00090508,0.00056847,-0.00007080,-0.00045395,-0.0005
 3837,-0.00038382,-0.00016145,0.00025249,-0.00018815,0.00500935,0.00320
 668,-0.00287411,-0.00116356,0.00067081,0.00022730,-0.00043556,-0.00012
 735,-0.00517482,0.02194035,-0.00093009,0.01390847,-0.00062715,0.000051
 48,-0.00061225,0.00569119,0.00108210,-0.00625116,0.00028720,0.00027700
 ,-0.00046474,0.00012720,-0.00009915,-0.00011828,-0.00022708,0.00012879
 ,-0.00014980,0.00017962,-0.00048868,0.00068519,0.00006878,0.00003821,-
 0.00010781,0.00007397,0.00009142,-0.00009227,0.00019686,0.00007321,-0.
 00013160,-0.00022671,0.00004946,-0.00003147,0.00003844,-0.00019985,0.0
 0023703,-0.00045342,0.00015645,-0.00014183,-0.00055664,0.00020607,-0.0
 0010850,-0.00001672,-0.00007121,0.00002444,-0.00020864,-0.00010912,-0.
 00003420,0.00004212,0.00000990,0.00005893,0.00156444,-0.00575967,0.006
 05583,-0.00185909,0.00170343,0.00284458,0.00234352,0.00327914,-0.00457
 291,-0.01799838,0.01510474,-0.06094628,-0.36707298,-0.39452168,0.64289
 480,-0.00036495,-0.00010516,0.00015474,0.00006190,0.00013260,-0.000110
 62,0.00022322,0.00007071,-0.00017652,0.00001766,0.00004573,-0.00003561
 ,0.00006356,0.00007072,-0.00018392,0.00016889,-0.00010707,0.00014153,-
 0.00000656,0.00005190,-0.00001974,0.00000902,0.00002627,-0.00006055,0.
 00002510,-0.00007800,0.00010337,-0.00000322,0.00002484,-0.00002825,0.0
 0003427,0.00005076,-0.00006507,-0.00019881,-0.00020583,0.00030005,0.00
 005902,-0.00006969,0.00008777,0.00007515,0.00006323,0.00001775,0.00002
 703,0.00004578,-0.00006858,-0.00001004,0.00001262,-0.00002968,-0.00000
 661,0.00000306,0.00002231,-0.00000050,-0.00009106,-0.00000347,0.000157
 91,0.00005045,-0.00004062,0.00012518,-0.00008912,0.00001603,-0.0002635
 4,0.00009430,-0.00011198,-0.00009395,-0.00002028,-0.00000219,-0.000333
 37,-0.00034980,-0.00027120,0.00004817,-0.00002511,0.00003471,0.0000075
 6,-0.00002797,-0.00000179,-0.00000038,0.00002044,-0.00003040,-0.000068
 80,-0.00007316,0.00010395,0.00001282,0.00001595,-0.00004366,0.00000864
 ,0.00004309,-0.00003795,-0.00004283,-0.00003879,-0.00003623,0.00001513
 ,-0.00002402,0.00000735,-0.00000689,-0.00000858,-0.00001560,0.00000070
 ,0.00010328,-0.00007353,0.00002764,-0.00000408,0.00006136,0.00001652,-
 0.00006745,0.00008597,-0.00001246,0.00008222,-0.00009497,-0.00000601,-
 0.00001746,-0.00000487,0.00000052,0.00001220,0.00001287,-0.00006047,0.
 00007349,-0.00009906,-0.00001495,0.00000556,0.00003981,0.00006149,-0.0
 0008617,0.00010923,-0.00070422,0.00005615,0.00013433,-0.00011061,-0.00
 007545,-0.00009280,-0.00013361,0.00009519,0.00005088,0.00097384,0.0001
 0413,-0.00023125,0.00024505,0.00014154,-0.00017099,0.00028660,-0.00022
 881,0.00009271,0.00329521,-0.00068563,0.00021075,-0.00024802,0.0004734
 0,0.00032048,0.00360876,0.00172499,-0.00257576,0.00010457,0.00010980,-
 0.00016812,0.00006702,-0.00004855,-0.00006067,-0.00010395,0.00005580,-
 0.00006201,0.00007631,-0.00020566,0.00027833,0.00001474,0.00002226,-0.
 00004332,0.00001550,0.00003364,-0.00003963,0.00010060,0.00002427,-0.00
 004941,-0.00010146,0.00002265,-0.00001469,0.00001529,-0.00008923,0.000
 10652,-0.00017616,0.00006082,-0.00006236,-0.00022204,0.00040874,-0.000
 53931,-0.00002980,-0.00003999,0.00000940,-0.00008369,0.00002014,0.0000
 2155,0.00001529,0.00000556,0.00002160,-0.00133954,-0.00244293,0.003546
 27,0.00029053,0.00001510,0.00009233,0.00194946,0.00245736,-0.00349881,
 -0.01058775,-0.01876786,0.02816194,-0.26941112,-0.24647065,0.35767257,
 0.27244040,-0.00005482,-0.00042576,0.00001031,0.00006100,0.00001580,-0
 .00006468,-0.00005484,-0.00000584,0.00005726,0.00004359,0.00006484,-0.
 00001027,0.00006864,0.00002836,-0.00012015,-0.00000449,-0.00009453,0.0
 0013629,-0.00001315,0.00003862,-0.00004893,-0.00000131,0.00005428,-0.0
 0004016,-0.00003972,-0.00005114,0.00009054,0.00001663,0.00002117,-0.00
 003384,0.00003943,0.00003782,-0.00006573,-0.00022230,-0.00018675,0.000
 27343,-0.00002239,-0.00009451,0.00011506,0.00005751,0.00005563,0.00002
 090,0.00003918,0.00005673,-0.00005877,0.00001185,-0.00000952,-0.000054
 55,-0.00002034,0.00000325,0.00001972,0.00004045,0.00011356,-0.00004735
 ,0.00008915,-0.00012583,0.00010517,0.00012737,-0.00006164,0.00007659,0
 .00016873,0.00048206,-0.00007244,-0.00008384,0.00000090,0.00001166,-0.
 00011054,0.00027268,0.00008289,0.00004758,-0.00003183,0.00004176,0.000
 00088,-0.00002315,-0.00000406,0.00001844,0.00002497,-0.00002863,-0.000
 10782,-0.00006502,0.00010624,0.00001744,0.00001409,-0.00004357,0.00001
 292,0.00003784,-0.00003704,-0.00003777,-0.00004097,-0.00003526,0.00000
 835,-0.00002652,0.00000334,-0.00002516,-0.00000914,-0.00002656,0.00004
 386,0.00012735,-0.00008846,0.00002221,-0.00000676,0.00006271,0.0000208
 7,-0.00007967,0.00010091,-0.00002213,0.00008754,-0.00010032,-0.0000045
 7,-0.00001765,-0.00001198,-0.00000201,0.00001903,0.00001248,-0.0000311
 4,0.00011379,-0.00015226,-0.00000808,-0.00002908,0.00005053,0.00007733
 ,-0.00011002,0.00013894,-0.00023216,-0.00011118,-0.00026713,0.00007392
 ,0.00017725,-0.00013062,-0.00010651,0.00014718,0.00001694,0.00070509,-
 0.00098605,0.00055617,-0.00006060,0.00045634,-0.00055724,0.00005505,-0
 .00065874,0.00033401,0.00437156,-0.00465443,-0.00005969,-0.00050054,0.
 00075207,0.00053361,0.00165009,0.00178506,-0.00126854,0.00015301,0.000
 08510,-0.00012219,0.00005461,-0.00005033,-0.00005229,-0.00012266,0.000
 05574,-0.00005846,0.00011294,-0.00018383,0.00023530,0.00002201,0.00000
 894,-0.00004389,0.00002319,0.00003673,-0.00002800,0.00012045,0.0000154
 2,-0.00004170,-0.00012821,0.00002410,-0.00001096,0.00001601,-0.0001017
 5,0.00012166,-0.00021786,0.00007052,-0.00007515,-0.00026441,0.00007253
 ,-0.00010231,-0.00001667,-0.00003686,0.00004125,-0.00009800,0.00005441
 ,-0.00002906,0.00000987,0.00001149,0.00002255,0.00032294,-0.00151516,0
 .00299021,-0.00013586,0.00131866,-0.00099341,0.00195612,0.00111134,-0.
 00144146,-0.02384319,0.00071747,0.02445316,-0.24769996,-0.29435901,0.3
 7730771,0.26361281,0.29558203,0.00005856,-0.00000936,-0.00047876,-0.00
 009021,-0.00011271,0.00008476,0.00007484,-0.00041520,0.00061643,-0.000
 00867,-0.00004766,0.00006689,-0.00010078,-0.00008077,0.00010947,-0.000
 00116,0.00014522,-0.00018767,0.00000772,-0.00005191,0.00004147,-0.0000
 4241,-0.00000716,0.00009487,0.00004919,0.00009926,-0.00012375,-0.00002
 185,-0.00003334,0.00004848,-0.00005988,-0.00005848,0.00010853,0.000323
 66,0.00028430,-0.00040978,0.00002456,0.00012375,-0.00016935,-0.0000962
 7,-0.00008482,-0.00003216,-0.00005032,-0.00007018,0.00008548,-0.000001
 49,-0.00002387,0.00008336,0.00002753,-0.00000412,-0.00003156,-0.000104
 83,-0.00022490,-0.00000485,-0.00014907,0.00020840,-0.00027246,-0.00016
 582,0.00003096,-0.00001660,-0.00016055,-0.00005642,0.00056710,0.000155
 82,-0.00001730,0.00005796,0.00072629,0.00062499,0.00051236,-0.00007103
 ,0.00004294,-0.00005921,-0.00000293,0.00003433,0.00000522,-0.00002150,
 -0.00003630,0.00003985,0.00015185,0.00010148,-0.00015482,-0.00002422,-
 0.00002077,0.00006314,-0.00001877,-0.00005765,0.00005423,0.00005591,0.
 00005799,0.00005087,-0.00001400,0.00003855,-0.00000578,0.00003296,0.00
 001502,0.00003685,-0.00005402,-0.00018172,0.00012856,-0.00003397,0.000
 00886,-0.00009135,-0.00003010,0.00011453,-0.00014515,0.00003070,-0.000
 12629,0.00014886,0.00000522,0.00002779,0.00001944,0.00000356,-0.000024
 33,-0.00001811,0.00005168,-0.00016209,0.00020916,0.00002522,0.00003204
 ,-0.00007761,-0.00011069,0.00015648,-0.00019772,0.00039242,-0.00005719
 ,0.00020876,0.00011904,0.00003051,0.00019041,-0.00001834,-0.00019579,0
 .00022023,-0.00113411,0.00049128,-0.00120694,0.00010837,-0.00011043,0.
 00018430,0.00012497,-0.00036860,0.00145206,-0.00678072,0.00051740,-0.0
 0438233,0.00032746,-0.00013056,0.00005630,-0.00256398,-0.00130018,0.00
 294302,-0.00021077,-0.00011459,0.00020173,-0.00007772,0.00007319,0.000
 07567,0.00017699,-0.00008190,0.00008766,-0.00016059,0.00026696,-0.0003
 5971,-0.00003051,-0.00001483,0.00006354,-0.00003324,-0.00005437,0.0000
 4433,-0.00017340,-0.00002476,0.00006226,0.00018315,-0.00003529,0.00001
 695,-0.00002346,0.00014709,-0.00017582,0.00031332,-0.00010792,0.000104
 84,0.00036415,-0.00018387,0.00014112,0.00001397,0.00005327,-0.00005158
 ,0.00012013,-0.00000653,-0.00000469,-0.00001527,-0.00001579,-0.0000331
 8,-0.00021792,0.00323738,-0.00367780,-0.00013357,-0.00021824,-0.000457
 36,-0.00283385,-0.00149504,0.00247388,0.03526270,0.02398534,-0.0189136
 4,0.35929328,0.37717606,-0.58173562,-0.38276326,-0.40170218,0.60171497
 \\-0.00001254,-0.00000962,0.00001224,0.00000845,0.00000581,-0.00000417
 ,0.00000389,0.00001174,-0.00001417,0.00000087,0.00000411,-0.00000204,0
 .00000714,0.00000608,-0.00000519,-0.00002232,0.00002531,-0.00004844,0.
 00000801,-0.00000698,-0.00003105,0.00000131,-0.00000893,0.00000909,0.0
 0001576,-0.00001683,0.00000033,0.00000346,0.00000145,-0.00000020,-0.00
 000265,-0.00000147,-0.00000552,0.00000149,0.00000639,-0.00001168,-0.00
 001848,0.00000268,0.00003057,-0.00000314,-0.00000065,0.,0.00000219,0.0
 0000613,0.00000606,0.00001918,-0.00001134,-0.00000078,-0.00000883,-0.0
 0000644,0.00000828,-0.00000280,0.00001319,0.00009688,-0.00000174,0.000
 00176,0.00002550,-0.00000036,0.00001293,-0.00002279,-0.00001922,-0.000
 00006,-0.00001386,0.00000432,-0.00000026,0.00000787,0.00000490,0.00000
 095,-0.00000329,0.00000445,-0.00000045,-0.00000367,-0.00001186,0.00000
 323,0.00000785,-0.00000119,0.00000358,-0.00000254,-0.00000822,-0.00000
 744,-0.00000796,-0.00000466,0.00000330,-0.00000565,0.00000364,0.000004
 59,0.00000417,-0.00000120,-0.00000842,0.00002235,-0.00000251,0.0000056
 3,-0.00000005,-0.00000517,0.00000119,-0.00000632,-0.00000065,0.0000018
 4,-0.00000435,0.00000018,0.00000265,-0.00000516,-0.00000548,-0.0000010
 2,-0.00000073,0.00001811,0.00001132,-0.00001755,-0.00000743,-0.0000022
 4,-0.00000078,-0.00000827,-0.00001150,0.00000531,-0.00001164,0.0000106
 1,-0.00000887,0.00001751,-0.00002211,-0.00001369,0.00000534,-0.0000011
 4,0.00000013,0.00000124,-0.00001892,-0.00003967,0.00000163,-0.00000293
 ,-0.00000455,0.00001264,-0.00002608,0.00001849,0.00003573,0.00000322,0
 .00008519,0.00000101,0.00001967,-0.00001951,-0.00002403,0.00001330,-0.
 00001400,0.00002097,-0.00002273,0.00000477,-0.00000002,0.00000311,0.00
 000101,-0.00000622,0.00000361,-0.00000426,0.00000084,-0.00000219,-0.00
 001010,0.00000342,-0.00000123,-0.00000013,-0.00000238,0.00000415,-0.00
 000340,-0.00000739,0.00000756,-0.00000605,-0.00000211,-0.00000029,0.00
 000071,0.00001185,0.00000858,0.00000533,0.00000508,0.00000089,0.000005
 43,-0.00000042,0.00000145,-0.00000506,-0.00000200,0.00000245,0.0000011
 5,-0.00000513,-0.00000169,0.00000136,-0.00002003,-0.00000217,0.0000050
 8,-0.00001159,0.00000099,0.00000750,0.00000585,0.00000080,0.00000233,0
 .00000026,-0.00000105,-0.00000595,0.00001273,0.00001454,-0.00001252,-0
 .00000915,0.00000385,-0.00001312,-0.00000375,-0.00000346,-0.00000180,0
 .00001251,-0.00003730,0.00000579,0.00001166,0.00000845,0.00000227,-0.0
 0001306,-0.00000613,-0.00000242\\\@
 The archive entry for this job was punched.


 MOM AND DAD WENT TO ALPHA CENTAURI AND ALL
 I GOT WAS THIS DUMB T-SHIRT.
 Job cpu time:       9 days  1 hours  5 minutes 12.4 seconds.
 Elapsed time:       0 days  4 hours 32 minutes  4.6 seconds.
 File lengths (MBytes):  RWF=  18395 Int=      0 D2E=      0 Chk=    165 Scr=      2
 Normal termination of Gaussian 16 at Mon Mar  6 18:39:13 2023.
