 Entering Gaussian System, Link 0=g16
 Initial command:
 /home/chesagar/softwares/G16_AVX2//g16/l1.exe "/home/chesagar/scratch/Gau-47433.inp" -scrdir="/home/chesagar/scratch/"
 Entering Link 1 = /home/chesagar/softwares/G16_AVX2//g16/l1.exe PID=     47434.
  
 Copyright (c) 1988-2019, Gaussian, Inc.  All Rights Reserved.
  
 This is part of the Gaussian(R) 16 program.  It is based on
 the Gaussian(R) 09 system (copyright 2009, Gaussian, Inc.),
 the Gaussian(R) 03 system (copyright 2003, Gaussian, Inc.),
 the Gaussian(R) 98 system (copyright 1998, Gaussian, Inc.),
 the Gaussian(R) 94 system (copyright 1995, Gaussian, Inc.),
 the Gaussian 92(TM) system (copyright 1992, Gaussian, Inc.),
 the Gaussian 90(TM) system (copyright 1990, Gaussian, Inc.),
 the Gaussian 88(TM) system (copyright 1988, Gaussian, Inc.),
 the Gaussian 86(TM) system (copyright 1986, Carnegie Mellon
 University), and the Gaussian 82(TM) system (copyright 1983,
 Carnegie Mellon University). Gaussian is a federally registered
 trademark of Gaussian, Inc.
  
 This software contains proprietary and confidential information,
 including trade secrets, belonging to Gaussian, Inc.
  
 This software is provided under written license and may be
 used, copied, transmitted, or stored only in accord with that
 written license.
  
 The following legend is applicable only to US Government
 contracts under FAR:
  
                    RESTRICTED RIGHTS LEGEND
  
 Use, reproduction and disclosure by the US Government is
 subject to restrictions as set forth in subparagraphs (a)
 and (c) of the Commercial Computer Software - Restricted
 Rights clause in FAR 52.227-19.
  
 Gaussian, Inc.
 340 Quinnipiac St., Bldg. 40, Wallingford CT 06492
  
  
 ---------------------------------------------------------------
 Warning -- This program may not be used in any manner that
 competes with the business of Gaussian, Inc. or will provide
 assistance to any competitor of Gaussian, Inc.  The licensee
 of this program is prohibited from giving any competitor of
 Gaussian, Inc. access to this program.  By using this program,
 the user acknowledges that Gaussian, Inc. is engaged in the
 business of creating and licensing software in the field of
 computational chemistry and represents and warrants to the
 licensee that it is not a competitor of Gaussian, Inc. and that
 it will not use this program in any manner prohibited above.
 ---------------------------------------------------------------
  

 Cite this work as:
 Gaussian 16, Revision C.01,
 M. J. Frisch, G. W. Trucks, H. B. Schlegel, G. E. Scuseria, 
 M. A. Robb, J. R. Cheeseman, G. Scalmani, V. Barone, 
 G. A. Petersson, H. Nakatsuji, X. Li, M. Caricato, A. V. Marenich, 
 J. Bloino, B. G. Janesko, R. Gomperts, B. Mennucci, H. P. Hratchian, 
 J. V. Ortiz, A. F. Izmaylov, J. L. Sonnenberg, D. Williams-Young, 
 F. Ding, F. Lipparini, F. Egidi, J. Goings, B. Peng, A. Petrone, 
 T. Henderson, D. Ranasinghe, V. G. Zakrzewski, J. Gao, N. Rega, 
 G. Zheng, W. Liang, M. Hada, M. Ehara, K. Toyota, R. Fukuda, 
 J. Hasegawa, M. Ishida, T. Nakajima, Y. Honda, O. Kitao, H. Nakai, 
 T. Vreven, K. Throssell, J. A. Montgomery, Jr., J. E. Peralta, 
 F. Ogliaro, M. J. Bearpark, J. J. Heyd, E. N. Brothers, K. N. Kudin, 
 V. N. Staroverov, T. A. Keith, R. Kobayashi, J. Normand, 
 K. Raghavachari, A. P. Rendell, J. C. Burant, S. S. Iyengar, 
 J. Tomasi, M. Cossi, J. M. Millam, M. Klene, C. Adamo, R. Cammi, 
 J. W. Ochterski, R. L. Martin, K. Morokuma, O. Farkas, 
 J. B. Foresman, and D. J. Fox, Gaussian, Inc., Wallingford CT, 2019.
 
 ******************************************
 Gaussian 16:  ES64L-G16RevC.01  3-Jul-2019
                 7-Mar-2023 
 ******************************************
 %nprocshared=46
 Will use up to   46 processors via shared memory.
 %chk=Mo20S47_Mozz_Mo_H2S.chk
 %mem=100GB
 ----------------------------------------------------------
 # opt freq b3lyp/gen nosymm pseudo=read scf=maxcycles=1000
 ----------------------------------------------------------
 1/18=20,19=15,26=3,38=1/1,3;
 2/9=110,12=2,15=1,17=6,18=5,40=1/2;
 3/5=7,11=2,16=1,17=8,25=1,30=1,71=1,74=-5/1,2,3;
 4//1;
 5/5=2,7=1000,38=5/2;
 6/7=2,8=2,9=2,10=2,28=1/1;
 7/30=1/1,2,3,16;
 1/18=20,19=15,26=3/3(2);
 2/9=110,15=1/2;
 99//99;
 2/9=110,15=1/2;
 3/5=7,6=1,11=2,16=1,17=8,25=1,30=1,71=1,74=-5,82=7/1,2,3;
 4/5=5,16=3,69=1/1;
 5/5=2,7=1000,38=5/2;
 7/30=1/1,2,3,16;
 1/18=20,19=15,26=3/3(-5);
 2/9=110,15=1/2;
 6/7=2,8=2,9=2,10=2,19=2,28=1/1;
 99/9=1/99;
 -------------------
 Title Card Required
 -------------------
 Symbolic Z-matrix:
 Charge =  0 Multiplicity = 1
 42                    0.29845   0.95213   12.45052 
 16                    2.27154   1.79269   13.63834 
 16                   -0.81793   1.53348   14.55312 
 16                   -0.40168   0.74      10.13259 
 16                    1.9532   -0.69612   11.69775 
 42                   -2.06088   2.36442   10.84011 
 16                   -2.73724   2.11157   8.50029 
 16                   -0.12336   3.30194   11.98349 
 42                    0.9512    2.75895   9.88216 
 16                    0.24546   2.60409   7.54137 
 16                    2.65812   1.14929   9.19201 
 42                    3.35737   1.28062   11.52621 
 42                   -1.47705   4.17157   8.24827 
 16                    5.38521   2.18766   12.73393 
 16                    2.92329   3.63224   11.04869 
 16                   -2.59447   4.69833   10.3237 
 16                    0.98341   7.04204   6.88925 
 42                   -4.46286   3.57328   9.274 
 16                   -5.81255   1.72526   9.57313 
 16                   -5.5685    4.27378   11.40641 
 42                    2.47945  -0.58825   14.02769 
 16                    4.65197  -0.59083   15.22714 
 16                    1.45051   0.04534   16.2293 
 42                    1.57623   4.61061   7.35347 
 16                    0.97051   4.6623    4.92858 
 16                    0.45414   5.11382   9.42554 
 42                    4.02168   3.15396   8.92361 
 16                    3.23592   2.97317   6.63064 
 16                    3.55325   5.49081   8.50176 
 42                    4.52758   4.95715   6.36228 
 16                    6.91017   5.5067    6.82846 
 16                    4.21982   7.46652   6.12399 
 42                    2.44441   6.71906   4.99235 
 16                    3.94957   4.9635    4.12897 
 16                   -1.31749   7.2807    4.09668 
 42                   -0.93878   6.00608   5.74025 
 16                   -2.14515   3.91077   5.76365 
 16                   -2.08154   6.63048   7.77617 
 42                   -3.71385   5.51722   6.48277 
 16                   -5.4665    3.82085   6.99007 
 16                   -4.55604   6.6627    4.92368 
 42                   -5.06193   2.09247   11.90031 
 16                   -3.11079   2.95755   12.96081 
 16                   -3.51723   0.39057   11.17646 
 42                   -2.79076   0.62001   13.47622 
 16                   -1.10393  -1.0407    12.81968 
 16                   -4.28133  -1.37226   13.93012 
 42                   -0.35682  -0.7915    15.1153 
 16                    1.24052  -2.51124   14.3528 
 16                   -1.42503  -2.44193   16.30507 
 42                    5.76045  -0.13839   13.02811 
 16                    5.09678  -0.40762   10.77642 
 16                    8.41121   1.26437   10.78031 
 42                    6.34602   1.71043   10.49326 
 16                    5.73159   1.41411   8.15903 
 16                    6.06015   4.10111   10.11965 
 42                    7.06663   3.35036   8.11151 
 16                    9.15574   3.03605   8.14611 
 16                    2.17324   8.1124    3.41618 
 16                    7.7607   -0.69325   13.43356 
 16                   -6.90287   1.28386   13.01868 
 16                   -5.54581   5.54299   8.21461 
 16                    4.45482  -2.11248   13.79825 
 16                    6.62041   3.74223   5.70094 
 42                   -5.65824   0.36073   14.75995 
 16                   -3.73276   1.38549   15.64041 
 16                   -6.7677   -0.4126    16.41086 
 42                   -3.17765  -0.96055   16.03167 
 16                   -3.38557  -0.25466   18.50396 
 1                    -4.34966  -1.01934   19.06475 
 1                    -4.14775   0.85992   18.50379 
 

 GradGradGradGradGradGradGradGradGradGradGradGradGradGradGradGradGradGrad
 Berny optimization.
 Initialization pass.
                           ----------------------------
                           !    Initial Parameters    !
                           ! (Angstroms and Degrees)  !
 --------------------------                            --------------------------
 ! Name  Definition              Value          Derivative Info.                !
 --------------------------------------------------------------------------------
 ! R1    R(1,2)                  2.4516         estimate D2E/DX2                !
 ! R2    R(1,3)                  2.4505         estimate D2E/DX2                !
 ! R3    R(1,4)                  2.4306         estimate D2E/DX2                !
 ! R4    R(1,5)                  2.4539         estimate D2E/DX2                !
 ! R5    R(1,8)                  2.4326         estimate D2E/DX2                !
 ! R6    R(1,21)                 3.1011         estimate D2E/DX2                !
 ! R7    R(1,46)                 2.4646         estimate D2E/DX2                !
 ! R8    R(2,12)                 2.4295         estimate D2E/DX2                !
 ! R9    R(2,21)                 2.4215         estimate D2E/DX2                !
 ! R10   R(3,45)                 2.4261         estimate D2E/DX2                !
 ! R11   R(3,48)                 2.436          estimate D2E/DX2                !
 ! R12   R(4,6)                  2.4274         estimate D2E/DX2                !
 ! R13   R(4,9)                  2.4432         estimate D2E/DX2                !
 ! R14   R(5,12)                 2.4308         estimate D2E/DX2                !
 ! R15   R(5,21)                 2.3911         estimate D2E/DX2                !
 ! R16   R(6,7)                  2.4487         estimate D2E/DX2                !
 ! R17   R(6,8)                  2.4373         estimate D2E/DX2                !
 ! R18   R(6,16)                 2.4492         estimate D2E/DX2                !
 ! R19   R(6,18)                 3.1118         estimate D2E/DX2                !
 ! R20   R(6,43)                 2.4396         estimate D2E/DX2                !
 ! R21   R(6,44)                 2.4759         estimate D2E/DX2                !
 ! R22   R(7,13)                 2.428          estimate D2E/DX2                !
 ! R23   R(7,18)                 2.3902         estimate D2E/DX2                !
 ! R24   R(8,9)                  2.4218         estimate D2E/DX2                !
 ! R25   R(9,10)                 2.4498         estimate D2E/DX2                !
 ! R26   R(9,11)                 2.4456         estimate D2E/DX2                !
 ! R27   R(9,15)                 2.4521         estimate D2E/DX2                !
 ! R28   R(9,26)                 2.4497         estimate D2E/DX2                !
 ! R29   R(10,13)                2.4339         estimate D2E/DX2                !
 ! R30   R(10,24)                2.415          estimate D2E/DX2                !
 ! R31   R(11,12)                2.4402         estimate D2E/DX2                !
 ! R32   R(11,27)                2.4393         estimate D2E/DX2                !
 ! R33   R(12,14)                2.5285         estimate D2E/DX2                !
 ! R34   R(12,15)                2.4386         estimate D2E/DX2                !
 ! R35   R(12,52)                2.5373         estimate D2E/DX2                !
 ! R36   R(13,16)                2.4153         estimate D2E/DX2                !
 ! R37   R(13,26)                2.4502         estimate D2E/DX2                !
 ! R38   R(13,37)                2.5861         estimate D2E/DX2                !
 ! R39   R(13,38)                2.5758         estimate D2E/DX2                !
 ! R40   R(14,51)                2.3744         estimate D2E/DX2                !
 ! R41   R(14,54)                2.4843         estimate D2E/DX2                !
 ! R42   R(15,27)                2.4395         estimate D2E/DX2                !
 ! R43   R(16,18)                2.4204         estimate D2E/DX2                !
 ! R44   R(17,24)                2.5454         estimate D2E/DX2                !
 ! R45   R(17,33)                2.416          estimate D2E/DX2                !
 ! R46   R(17,36)                2.4674         estimate D2E/DX2                !
 ! R47   R(18,19)                2.3079         estimate D2E/DX2                !
 ! R48   R(18,20)                2.5021         estimate D2E/DX2                !
 ! R49   R(18,40)                2.507          estimate D2E/DX2                !
 ! R50   R(18,42)                3.0739         estimate D2E/DX2                !
 ! R51   R(18,62)                2.4849         estimate D2E/DX2                !
 ! R52   R(19,42)                2.4727         estimate D2E/DX2                !
 ! R53   R(20,42)                2.2932         estimate D2E/DX2                !
 ! R54   R(21,22)                2.4816         estimate D2E/DX2                !
 ! R55   R(21,23)                2.5114         estimate D2E/DX2                !
 ! R56   R(21,48)                3.0444         estimate D2E/DX2                !
 ! R57   R(21,49)                2.3105         estimate D2E/DX2                !
 ! R58   R(21,63)                2.5056         estimate D2E/DX2                !
 ! R59   R(22,51)                2.5038         estimate D2E/DX2                !
 ! R60   R(22,63)                2.0967         estimate D2E/DX2                !
 ! R61   R(23,48)                2.2821         estimate D2E/DX2                !
 ! R62   R(24,25)                2.4999         estimate D2E/DX2                !
 ! R63   R(24,26)                2.4095         estimate D2E/DX2                !
 ! R64   R(24,28)                2.441          estimate D2E/DX2                !
 ! R65   R(24,29)                2.4499         estimate D2E/DX2                !
 ! R66   R(25,33)                2.5311         estimate D2E/DX2                !
 ! R67   R(25,36)                2.4718         estimate D2E/DX2                !
 ! R68   R(27,28)                2.4306         estimate D2E/DX2                !
 ! R69   R(27,29)                2.4204         estimate D2E/DX2                !
 ! R70   R(27,55)                2.5565         estimate D2E/DX2                !
 ! R71   R(27,56)                2.5462         estimate D2E/DX2                !
 ! R72   R(28,30)                2.3826         estimate D2E/DX2                !
 ! R73   R(29,30)                2.4107         estimate D2E/DX2                !
 ! R74   R(30,31)                2.4892         estimate D2E/DX2                !
 ! R75   R(30,32)                2.5394         estimate D2E/DX2                !
 ! R76   R(30,33)                3.053          estimate D2E/DX2                !
 ! R77   R(30,34)                2.3069         estimate D2E/DX2                !
 ! R78   R(30,64)                2.5087         estimate D2E/DX2                !
 ! R79   R(31,57)                2.5141         estimate D2E/DX2                !
 ! R80   R(31,64)                2.1139         estimate D2E/DX2                !
 ! R81   R(32,33)                2.2341         estimate D2E/DX2                !
 ! R82   R(33,34)                2.4684         estimate D2E/DX2                !
 ! R83   R(33,59)                2.1211         estimate D2E/DX2                !
 ! R84   R(35,36)                2.1141         estimate D2E/DX2                !
 ! R85   R(36,37)                2.4179         estimate D2E/DX2                !
 ! R86   R(36,38)                2.4168         estimate D2E/DX2                !
 ! R87   R(36,39)                2.914          estimate D2E/DX2                !
 ! R88   R(37,39)                2.3577         estimate D2E/DX2                !
 ! R89   R(38,39)                2.3615         estimate D2E/DX2                !
 ! R90   R(39,40)                2.4913         estimate D2E/DX2                !
 ! R91   R(39,41)                2.11           estimate D2E/DX2                !
 ! R92   R(39,62)                2.5211         estimate D2E/DX2                !
 ! R93   R(40,62)                2.1146         estimate D2E/DX2                !
 ! R94   R(42,43)                2.3833         estimate D2E/DX2                !
 ! R95   R(42,44)                2.4097         estimate D2E/DX2                !
 ! R96   R(42,61)                2.3008         estimate D2E/DX2                !
 ! R97   R(43,45)                2.415          estimate D2E/DX2                !
 ! R98   R(44,45)                2.4227         estimate D2E/DX2                !
 ! R99   R(45,46)                2.4565         estimate D2E/DX2                !
 ! R100  R(45,47)                2.5292         estimate D2E/DX2                !
 ! R101  R(45,66)                2.4813         estimate D2E/DX2                !
 ! R102  R(45,68)                3.0295         estimate D2E/DX2                !
 ! R103  R(46,48)                2.427          estimate D2E/DX2                !
 ! R104  R(47,65)                2.3638         estimate D2E/DX2                !
 ! R105  R(47,68)                2.4092         estimate D2E/DX2                !
 ! R106  R(48,49)                2.4679         estimate D2E/DX2                !
 ! R107  R(48,50)                2.2979         estimate D2E/DX2                !
 ! R108  R(48,68)                2.9708         estimate D2E/DX2                !
 ! R109  R(50,68)                2.3111         estimate D2E/DX2                !
 ! R110  R(51,52)                2.3628         estimate D2E/DX2                !
 ! R111  R(51,60)                2.115          estimate D2E/DX2                !
 ! R112  R(51,63)                2.4889         estimate D2E/DX2                !
 ! R113  R(52,54)                2.4753         estimate D2E/DX2                !
 ! R114  R(53,54)                2.1322         estimate D2E/DX2                !
 ! R115  R(54,55)                2.4319         estimate D2E/DX2                !
 ! R116  R(54,56)                2.4365         estimate D2E/DX2                !
 ! R117  R(54,57)                2.9802         estimate D2E/DX2                !
 ! R118  R(55,57)                2.3524         estimate D2E/DX2                !
 ! R119  R(56,57)                2.3684         estimate D2E/DX2                !
 ! R120  R(57,58)                2.1129         estimate D2E/DX2                !
 ! R121  R(57,64)                2.4826         estimate D2E/DX2                !
 ! R122  R(61,65)                2.3309         estimate D2E/DX2                !
 ! R123  R(65,66)                2.3522         estimate D2E/DX2                !
 ! R124  R(65,67)                2.1341         estimate D2E/DX2                !
 ! R125  R(65,68)                3.0849         estimate D2E/DX2                !
 ! R126  R(66,68)                2.4424         estimate D2E/DX2                !
 ! R127  R(68,69)                2.5795         estimate D2E/DX2                !
 ! R128  R(69,70)                1.3523         estimate D2E/DX2                !
 ! R129  R(69,71)                1.3503         estimate D2E/DX2                !
 ! A1    A(2,1,3)               82.5071         estimate D2E/DX2                !
 ! A2    A(2,1,4)              136.3671         estimate D2E/DX2                !
 ! A3    A(2,1,5)               80.5732         estimate D2E/DX2                !
 ! A4    A(2,1,8)               84.3406         estimate D2E/DX2                !
 ! A5    A(2,1,46)             131.498          estimate D2E/DX2                !
 ! A6    A(3,1,4)              135.049          estimate D2E/DX2                !
 ! A7    A(3,1,5)              136.866          estimate D2E/DX2                !
 ! A8    A(3,1,8)               81.7542         estimate D2E/DX2                !
 ! A9    A(3,1,21)              90.1067         estimate D2E/DX2                !
 ! A10   A(3,1,46)              78.7017         estimate D2E/DX2                !
 ! A11   A(4,1,5)               80.9714         estimate D2E/DX2                !
 ! A12   A(4,1,8)               81.4468         estimate D2E/DX2                !
 ! A13   A(4,1,21)             130.1076         estimate D2E/DX2                !
 ! A14   A(4,1,46)              84.7428         estimate D2E/DX2                !
 ! A15   A(5,1,8)              134.9796         estimate D2E/DX2                !
 ! A16   A(5,1,46)              83.4852         estimate D2E/DX2                !
 ! A17   A(8,1,21)             134.3787         estimate D2E/DX2                !
 ! A18   A(8,1,46)             135.3279         estimate D2E/DX2                !
 ! A19   A(21,1,46)             85.5476         estimate D2E/DX2                !
 ! A20   A(1,2,12)              82.3121         estimate D2E/DX2                !
 ! A21   A(12,2,21)             83.9248         estimate D2E/DX2                !
 ! A22   A(1,3,45)              84.2766         estimate D2E/DX2                !
 ! A23   A(1,3,48)              83.4173         estimate D2E/DX2                !
 ! A24   A(45,3,48)             84.0885         estimate D2E/DX2                !
 ! A25   A(1,4,6)               81.9823         estimate D2E/DX2                !
 ! A26   A(1,4,9)               82.3065         estimate D2E/DX2                !
 ! A27   A(6,4,9)               81.6841         estimate D2E/DX2                !
 ! A28   A(1,5,12)              82.2393         estimate D2E/DX2                !
 ! A29   A(12,5,21)             84.5452         estimate D2E/DX2                !
 ! A30   A(4,6,7)               80.8618         estimate D2E/DX2                !
 ! A31   A(4,6,8)               81.418          estimate D2E/DX2                !
 ! A32   A(4,6,16)             136.4824         estimate D2E/DX2                !
 ! A33   A(4,6,18)             129.8573         estimate D2E/DX2                !
 ! A34   A(4,6,43)             135.255          estimate D2E/DX2                !
 ! A35   A(4,6,44)              84.73           estimate D2E/DX2                !
 ! A36   A(7,6,8)              135.0368         estimate D2E/DX2                !
 ! A37   A(7,6,16)              80.6044         estimate D2E/DX2                !
 ! A38   A(7,6,43)             137.4657         estimate D2E/DX2                !
 ! A39   A(7,6,44)              83.3975         estimate D2E/DX2                !
 ! A40   A(8,6,16)              84.5805         estimate D2E/DX2                !
 ! A41   A(8,6,18)             134.45           estimate D2E/DX2                !
 ! A42   A(8,6,43)              80.8394         estimate D2E/DX2                !
 ! A43   A(8,6,44)             135.2778         estimate D2E/DX2                !
 ! A44   A(16,6,43)             81.8274         estimate D2E/DX2                !
 ! A45   A(16,6,44)            131.3144         estimate D2E/DX2                !
 ! A46   A(18,6,43)             90.6218         estimate D2E/DX2                !
 ! A47   A(18,6,44)             85.6435         estimate D2E/DX2                !
 ! A48   A(43,6,44)             79.7809         estimate D2E/DX2                !
 ! A49   A(6,7,13)              82.4272         estimate D2E/DX2                !
 ! A50   A(13,7,18)             83.6534         estimate D2E/DX2                !
 ! A51   A(1,8,6)               81.7407         estimate D2E/DX2                !
 ! A52   A(1,8,9)               82.7077         estimate D2E/DX2                !
 ! A53   A(6,8,9)               81.9196         estimate D2E/DX2                !
 ! A54   A(4,9,8)               81.4105         estimate D2E/DX2                !
 ! A55   A(4,9,10)              83.4644         estimate D2E/DX2                !
 ! A56   A(4,9,11)              82.6176         estimate D2E/DX2                !
 ! A57   A(4,9,15)             133.7005         estimate D2E/DX2                !
 ! A58   A(4,9,26)             134.5171         estimate D2E/DX2                !
 ! A59   A(8,9,10)             135.6778         estimate D2E/DX2                !
 ! A60   A(8,9,11)             134.5973         estimate D2E/DX2                !
 ! A61   A(8,9,15)              82.1963         estimate D2E/DX2                !
 ! A62   A(8,9,26)              81.7305         estimate D2E/DX2                !
 ! A63   A(10,9,11)             83.6743         estimate D2E/DX2                !
 ! A64   A(10,9,15)            135.1361         estimate D2E/DX2                !
 ! A65   A(10,9,26)             79.8751         estimate D2E/DX2                !
 ! A66   A(11,9,15)             78.891          estimate D2E/DX2                !
 ! A67   A(11,9,26)            136.1977         estimate D2E/DX2                !
 ! A68   A(15,9,26)             84.808          estimate D2E/DX2                !
 ! A69   A(9,10,13)             83.434          estimate D2E/DX2                !
 ! A70   A(9,10,24)             82.13           estimate D2E/DX2                !
 ! A71   A(13,10,24)            82.9631         estimate D2E/DX2                !
 ! A72   A(9,11,12)             83.9522         estimate D2E/DX2                !
 ! A73   A(9,11,27)             83.1248         estimate D2E/DX2                !
 ! A74   A(12,11,27)            84.3094         estimate D2E/DX2                !
 ! A75   A(2,12,5)              81.4815         estimate D2E/DX2                !
 ! A76   A(2,12,11)            135.6329         estimate D2E/DX2                !
 ! A77   A(2,12,14)             82.3908         estimate D2E/DX2                !
 ! A78   A(2,12,15)             83.5359         estimate D2E/DX2                !
 ! A79   A(2,12,52)            134.7123         estimate D2E/DX2                !
 ! A80   A(5,12,11)             81.8483         estimate D2E/DX2                !
 ! A81   A(5,12,14)            136.1615         estimate D2E/DX2                !
 ! A82   A(5,12,15)            134.0443         estimate D2E/DX2                !
 ! A83   A(5,12,52)             82.864          estimate D2E/DX2                !
 ! A84   A(11,12,14)           134.9105         estimate D2E/DX2                !
 ! A85   A(11,12,15)            79.2559         estimate D2E/DX2                !
 ! A86   A(11,12,52)            82.9904         estimate D2E/DX2                !
 ! A87   A(14,12,15)            83.7051         estimate D2E/DX2                !
 ! A88   A(14,12,52)            80.2147         estimate D2E/DX2                !
 ! A89   A(15,12,52)           134.8952         estimate D2E/DX2                !
 ! A90   A(7,13,10)             81.4342         estimate D2E/DX2                !
 ! A91   A(7,13,16)             81.7045         estimate D2E/DX2                !
 ! A92   A(7,13,26)            133.2744         estimate D2E/DX2                !
 ! A93   A(7,13,37)             83.1121         estimate D2E/DX2                !
 ! A94   A(7,13,38)            135.0047         estimate D2E/DX2                !
 ! A95   A(10,13,16)           135.8453         estimate D2E/DX2                !
 ! A96   A(10,13,26)            80.1777         estimate D2E/DX2                !
 ! A97   A(10,13,37)            80.7256         estimate D2E/DX2                !
 ! A98   A(10,13,38)           136.6914         estimate D2E/DX2                !
 ! A99   A(16,13,26)            82.4091         estimate D2E/DX2                !
 ! A100  A(16,13,37)           136.7242         estimate D2E/DX2                !
 ! A101  A(16,13,38)            80.8349         estimate D2E/DX2                !
 ! A102  A(26,13,37)           134.7528         estimate D2E/DX2                !
 ! A103  A(26,13,38)            84.6017         estimate D2E/DX2                !
 ! A104  A(37,13,38)            81.9261         estimate D2E/DX2                !
 ! A105  A(12,14,51)            80.4737         estimate D2E/DX2                !
 ! A106  A(12,14,54)            79.074          estimate D2E/DX2                !
 ! A107  A(51,14,54)            82.0932         estimate D2E/DX2                !
 ! A108  A(9,15,12)             83.8503         estimate D2E/DX2                !
 ! A109  A(9,15,27)             82.9852         estimate D2E/DX2                !
 ! A110  A(12,15,27)            84.3397         estimate D2E/DX2                !
 ! A111  A(6,16,13)             82.6783         estimate D2E/DX2                !
 ! A112  A(13,16,18)            83.2863         estimate D2E/DX2                !
 ! A113  A(24,17,33)            82.7992         estimate D2E/DX2                !
 ! A114  A(24,17,36)            82.2588         estimate D2E/DX2                !
 ! A115  A(33,17,36)            92.8283         estimate D2E/DX2                !
 ! A116  A(6,18,19)             94.3079         estimate D2E/DX2                !
 ! A117  A(6,18,20)             91.199          estimate D2E/DX2                !
 ! A118  A(6,18,40)            143.6951         estimate D2E/DX2                !
 ! A119  A(6,18,42)             62.1802         estimate D2E/DX2                !
 ! A120  A(6,18,62)            149.1908         estimate D2E/DX2                !
 ! A121  A(7,18,16)             82.3766         estimate D2E/DX2                !
 ! A122  A(7,18,19)             88.5379         estimate D2E/DX2                !
 ! A123  A(7,18,20)            140.0068         estimate D2E/DX2                !
 ! A124  A(7,18,40)             93.1253         estimate D2E/DX2                !
 ! A125  A(7,18,42)             97.046          estimate D2E/DX2                !
 ! A126  A(7,18,62)            131.4055         estimate D2E/DX2                !
 ! A127  A(16,18,19)           140.1226         estimate D2E/DX2                !
 ! A128  A(16,18,20)            80.872          estimate D2E/DX2                !
 ! A129  A(16,18,40)           131.1649         estimate D2E/DX2                !
 ! A130  A(16,18,42)            90.2189         estimate D2E/DX2                !
 ! A131  A(16,18,62)            98.7927         estimate D2E/DX2                !
 ! A132  A(19,18,20)            81.6796         estimate D2E/DX2                !
 ! A133  A(19,18,40)            87.8816         estimate D2E/DX2                !
 ! A134  A(19,18,62)           115.7924         estimate D2E/DX2                !
 ! A135  A(20,18,40)           124.8816         estimate D2E/DX2                !
 ! A136  A(20,18,62)            87.0676         estimate D2E/DX2                !
 ! A137  A(40,18,42)           138.4101         estimate D2E/DX2                !
 ! A138  A(42,18,62)           131.3883         estimate D2E/DX2                !
 ! A139  A(1,21,22)            149.5439         estimate D2E/DX2                !
 ! A140  A(1,21,23)             91.8558         estimate D2E/DX2                !
 ! A141  A(1,21,48)             63.8735         estimate D2E/DX2                !
 ! A142  A(1,21,49)             96.1915         estimate D2E/DX2                !
 ! A143  A(1,21,63)            144.1018         estimate D2E/DX2                !
 ! A144  A(2,21,5)              82.4599         estimate D2E/DX2                !
 ! A145  A(2,21,22)             98.8534         estimate D2E/DX2                !
 ! A146  A(2,21,23)             81.8201         estimate D2E/DX2                !
 ! A147  A(2,21,48)             92.4699         estimate D2E/DX2                !
 ! A148  A(2,21,49)            142.6472         estimate D2E/DX2                !
 ! A149  A(2,21,63)            130.6252         estimate D2E/DX2                !
 ! A150  A(5,21,22)            131.5753         estimate D2E/DX2                !
 ! A151  A(5,21,23)            140.8447         estimate D2E/DX2                !
 ! A152  A(5,21,48)             98.0512         estimate D2E/DX2                !
 ! A153  A(5,21,49)             88.9428         estimate D2E/DX2                !
 ! A154  A(5,21,63)             93.2585         estimate D2E/DX2                !
 ! A155  A(22,21,23)            86.2861         estimate D2E/DX2                !
 ! A156  A(22,21,48)           130.0039         estimate D2E/DX2                !
 ! A157  A(22,21,49)           113.6121         estimate D2E/DX2                !
 ! A158  A(23,21,49)            82.3531         estimate D2E/DX2                !
 ! A159  A(23,21,63)           123.8315         estimate D2E/DX2                !
 ! A160  A(48,21,63)           136.6            estimate D2E/DX2                !
 ! A161  A(49,21,63)            85.9473         estimate D2E/DX2                !
 ! A162  A(21,22,51)            87.8729         estimate D2E/DX2                !
 ! A163  A(10,24,17)           132.8055         estimate D2E/DX2                !
 ! A164  A(10,24,25)            87.6578         estimate D2E/DX2                !
 ! A165  A(10,24,26)            81.3729         estimate D2E/DX2                !
 ! A166  A(10,24,28)            80.8139         estimate D2E/DX2                !
 ! A167  A(10,24,29)           134.9688         estimate D2E/DX2                !
 ! A168  A(17,24,25)            75.3397         estimate D2E/DX2                !
 ! A169  A(17,24,26)            81.3083         estimate D2E/DX2                !
 ! A170  A(17,24,28)           138.172          estimate D2E/DX2                !
 ! A171  A(17,24,29)            85.9992         estimate D2E/DX2                !
 ! A172  A(25,24,26)           135.8062         estimate D2E/DX2                !
 ! A173  A(25,24,28)            83.7639         estimate D2E/DX2                !
 ! A174  A(25,24,29)           129.9966         estimate D2E/DX2                !
 ! A175  A(26,24,28)           135.3481         estimate D2E/DX2                !
 ! A176  A(26,24,29)            84.1285         estimate D2E/DX2                !
 ! A177  A(28,24,29)            80.2772         estimate D2E/DX2                !
 ! A178  A(24,25,33)            81.447          estimate D2E/DX2                !
 ! A179  A(24,25,36)            83.1011         estimate D2E/DX2                !
 ! A180  A(33,25,36)            89.9862         estimate D2E/DX2                !
 ! A181  A(9,26,13)             83.097          estimate D2E/DX2                !
 ! A182  A(9,26,24)             82.2438         estimate D2E/DX2                !
 ! A183  A(13,26,24)            82.7351         estimate D2E/DX2                !
 ! A184  A(11,27,15)            79.2559         estimate D2E/DX2                !
 ! A185  A(11,27,28)            82.0655         estimate D2E/DX2                !
 ! A186  A(11,27,29)           134.7859         estimate D2E/DX2                !
 ! A187  A(11,27,55)            81.2274         estimate D2E/DX2                !
 ! A188  A(11,27,56)           134.5527         estimate D2E/DX2                !
 ! A189  A(15,27,28)           133.6944         estimate D2E/DX2                !
 ! A190  A(15,27,29)            82.8422         estimate D2E/DX2                !
 ! A191  A(15,27,55)           134.0362         estimate D2E/DX2                !
 ! A192  A(15,27,56)            83.0123         estimate D2E/DX2                !
 ! A193  A(28,27,29)            81.0734         estimate D2E/DX2                !
 ! A194  A(28,27,55)            83.3078         estimate D2E/DX2                !
 ! A195  A(28,27,56)           136.8557         estimate D2E/DX2                !
 ! A196  A(29,27,55)           137.2572         estimate D2E/DX2                !
 ! A197  A(29,27,56)            82.9731         estimate D2E/DX2                !
 ! A198  A(55,27,56)            81.8459         estimate D2E/DX2                !
 ! A199  A(24,28,27)            83.7165         estimate D2E/DX2                !
 ! A200  A(24,28,30)            80.9885         estimate D2E/DX2                !
 ! A201  A(27,28,30)            82.4757         estimate D2E/DX2                !
 ! A202  A(24,29,27)            83.7416         estimate D2E/DX2                !
 ! A203  A(24,29,30)            80.2497         estimate D2E/DX2                !
 ! A204  A(27,29,30)            82.1099         estimate D2E/DX2                !
 ! A205  A(28,30,29)            82.2567         estimate D2E/DX2                !
 ! A206  A(28,30,31)           132.9738         estimate D2E/DX2                !
 ! A207  A(28,30,32)           140.151          estimate D2E/DX2                !
 ! A208  A(28,30,33)            99.2758         estimate D2E/DX2                !
 ! A209  A(28,30,34)            88.5958         estimate D2E/DX2                !
 ! A210  A(28,30,64)            94.5131         estimate D2E/DX2                !
 ! A211  A(29,30,31)            99.8913         estimate D2E/DX2                !
 ! A212  A(29,30,32)            79.3706         estimate D2E/DX2                !
 ! A213  A(29,30,33)            89.6963         estimate D2E/DX2                !
 ! A214  A(29,30,34)           139.2269         estimate D2E/DX2                !
 ! A215  A(29,30,64)           132.7148         estimate D2E/DX2                !
 ! A216  A(31,30,32)            85.1477         estimate D2E/DX2                !
 ! A217  A(31,30,33)           127.5711         estimate D2E/DX2                !
 ! A218  A(31,30,34)           114.8677         estimate D2E/DX2                !
 ! A219  A(32,30,34)            82.8809         estimate D2E/DX2                !
 ! A220  A(32,30,64)           123.7064         estimate D2E/DX2                !
 ! A221  A(33,30,64)           136.9229         estimate D2E/DX2                !
 ! A222  A(34,30,64)            87.429          estimate D2E/DX2                !
 ! A223  A(30,31,57)            88.0393         estimate D2E/DX2                !
 ! A224  A(17,33,25)            77.0725         estimate D2E/DX2                !
 ! A225  A(17,33,30)            97.901          estimate D2E/DX2                !
 ! A226  A(17,33,32)            92.1855         estimate D2E/DX2                !
 ! A227  A(17,33,34)           137.5987         estimate D2E/DX2                !
 ! A228  A(17,33,59)           114.7272         estimate D2E/DX2                !
 ! A229  A(25,33,30)            86.542          estimate D2E/DX2                !
 ! A230  A(25,33,32)           138.3621         estimate D2E/DX2                !
 ! A231  A(25,33,34)            76.605          estimate D2E/DX2                !
 ! A232  A(25,33,59)           116.1427         estimate D2E/DX2                !
 ! A233  A(30,33,59)           143.1072         estimate D2E/DX2                !
 ! A234  A(32,33,34)            86.0171         estimate D2E/DX2                !
 ! A235  A(32,33,59)           104.9637         estimate D2E/DX2                !
 ! A236  A(34,33,59)           106.5729         estimate D2E/DX2                !
 ! A237  A(17,36,25)            77.2573         estimate D2E/DX2                !
 ! A238  A(17,36,35)           104.3853         estimate D2E/DX2                !
 ! A239  A(17,36,37)           138.4187         estimate D2E/DX2                !
 ! A240  A(17,36,38)            82.3915         estimate D2E/DX2                !
 ! A241  A(17,36,39)           133.9207         estimate D2E/DX2                !
 ! A242  A(25,36,35)           102.1723         estimate D2E/DX2                !
 ! A243  A(25,36,37)            85.2653         estimate D2E/DX2                !
 ! A244  A(25,36,38)           141.4728         estimate D2E/DX2                !
 ! A245  A(25,36,39)           136.7246         estimate D2E/DX2                !
 ! A246  A(35,36,37)           116.1437         estimate D2E/DX2                !
 ! A247  A(35,36,38)           114.4846         estimate D2E/DX2                !
 ! A248  A(35,36,39)            97.3915         estimate D2E/DX2                !
 ! A249  A(37,36,38)            88.8436         estimate D2E/DX2                !
 ! A250  A(13,37,36)            78.0537         estimate D2E/DX2                !
 ! A251  A(13,37,39)            79.0548         estimate D2E/DX2                !
 ! A252  A(13,38,36)            78.2754         estimate D2E/DX2                !
 ! A253  A(13,38,39)            79.1972         estimate D2E/DX2                !
 ! A254  A(36,39,40)           146.7279         estimate D2E/DX2                !
 ! A255  A(36,39,41)            95.7827         estimate D2E/DX2                !
 ! A256  A(36,39,62)           149.9203         estimate D2E/DX2                !
 ! A257  A(37,39,38)            91.6252         estimate D2E/DX2                !
 ! A258  A(37,39,40)            93.7978         estimate D2E/DX2                !
 ! A259  A(37,39,41)           114.2112         estimate D2E/DX2                !
 ! A260  A(37,39,62)           134.4244         estimate D2E/DX2                !
 ! A261  A(38,39,40)           134.0855         estimate D2E/DX2                !
 ! A262  A(38,39,41)           115.1296         estimate D2E/DX2                !
 ! A263  A(38,39,62)            96.9621         estimate D2E/DX2                !
 ! A264  A(40,39,41)           103.8462         estimate D2E/DX2                !
 ! A265  A(41,39,62)           102.2391         estimate D2E/DX2                !
 ! A266  A(18,40,39)            88.3449         estimate D2E/DX2                !
 ! A267  A(18,42,43)            92.6236         estimate D2E/DX2                !
 ! A268  A(18,42,44)            87.6306         estimate D2E/DX2                !
 ! A269  A(18,42,61)           137.7769         estimate D2E/DX2                !
 ! A270  A(19,42,20)            82.6172         estimate D2E/DX2                !
 ! A271  A(19,42,43)           136.1561         estimate D2E/DX2                !
 ! A272  A(19,42,44)            78.8717         estimate D2E/DX2                !
 ! A273  A(19,42,61)            99.3459         estimate D2E/DX2                !
 ! A274  A(20,42,43)            86.0674         estimate D2E/DX2                !
 ! A275  A(20,42,44)           138.4812         estimate D2E/DX2                !
 ! A276  A(20,42,61)           105.2033         estimate D2E/DX2                !
 ! A277  A(43,42,44)            82.2542         estimate D2E/DX2                !
 ! A278  A(43,42,61)           124.4944         estimate D2E/DX2                !
 ! A279  A(44,42,61)           114.2492         estimate D2E/DX2                !
 ! A280  A(6,43,42)             82.9502         estimate D2E/DX2                !
 ! A281  A(6,43,45)             83.867          estimate D2E/DX2                !
 ! A282  A(42,43,45)            81.4961         estimate D2E/DX2                !
 ! A283  A(6,44,42)             81.6518         estimate D2E/DX2                !
 ! A284  A(6,44,45)             82.939          estimate D2E/DX2                !
 ! A285  A(42,44,45)            80.804          estimate D2E/DX2                !
 ! A286  A(3,45,43)             80.6802         estimate D2E/DX2                !
 ! A287  A(3,45,44)            134.4952         estimate D2E/DX2                !
 ! A288  A(3,45,46)             79.327          estimate D2E/DX2                !
 ! A289  A(3,45,47)            134.1183         estimate D2E/DX2                !
 ! A290  A(3,45,66)             78.7793         estimate D2E/DX2                !
 ! A291  A(3,45,68)             85.7485         estimate D2E/DX2                !
 ! A292  A(43,45,44)            81.3345         estimate D2E/DX2                !
 ! A293  A(43,45,46)           133.4977         estimate D2E/DX2                !
 ! A294  A(43,45,47)           136.2729         estimate D2E/DX2                !
 ! A295  A(43,45,66)            80.6322         estimate D2E/DX2                !
 ! A296  A(43,45,68)           131.919          estimate D2E/DX2                !
 ! A297  A(44,45,46)            83.5798         estimate D2E/DX2                !
 ! A298  A(44,45,47)            85.356          estimate D2E/DX2                !
 ! A299  A(44,45,66)           138.0144         estimate D2E/DX2                !
 ! A300  A(44,45,68)           135.4806         estimate D2E/DX2                !
 ! A301  A(46,45,47)            85.4189         estimate D2E/DX2                !
 ! A302  A(46,45,66)           134.6161         estimate D2E/DX2                !
 ! A303  A(46,45,68)            87.7325         estimate D2E/DX2                !
 ! A304  A(47,45,66)            82.1109         estimate D2E/DX2                !
 ! A305  A(1,46,45)             83.3458         estimate D2E/DX2                !
 ! A306  A(1,46,48)             83.3095         estimate D2E/DX2                !
 ! A307  A(45,46,48)            83.6367         estimate D2E/DX2                !
 ! A308  A(45,47,65)            80.1424         estimate D2E/DX2                !
 ! A309  A(3,48,21)             91.7294         estimate D2E/DX2                !
 ! A310  A(3,48,23)             84.9845         estimate D2E/DX2                !
 ! A311  A(3,48,46)             79.714          estimate D2E/DX2                !
 ! A312  A(3,48,49)            135.7497         estimate D2E/DX2                !
 ! A313  A(3,48,50)            135.8056         estimate D2E/DX2                !
 ! A314  A(3,48,68)             86.8908         estimate D2E/DX2                !
 ! A315  A(21,48,46)            87.4628         estimate D2E/DX2                !
 ! A316  A(21,48,50)           131.7577         estimate D2E/DX2                !
 ! A317  A(23,48,46)           138.0038         estimate D2E/DX2                !
 ! A318  A(23,48,49)            83.901          estimate D2E/DX2                !
 ! A319  A(23,48,50)           112.2586         estimate D2E/DX2                !
 ! A320  A(23,48,68)           128.4842         estimate D2E/DX2                !
 ! A321  A(46,48,49)            80.5288         estimate D2E/DX2                !
 ! A322  A(46,48,50)           105.8363         estimate D2E/DX2                !
 ! A323  A(46,48,68)            89.6348         estimate D2E/DX2                !
 ! A324  A(49,48,50)            87.7279         estimate D2E/DX2                !
 ! A325  A(49,48,68)           132.0858         estimate D2E/DX2                !
 ! A326  A(14,51,22)           102.4666         estimate D2E/DX2                !
 ! A327  A(14,51,52)            87.0864         estimate D2E/DX2                !
 ! A328  A(14,51,60)           115.4809         estimate D2E/DX2                !
 ! A329  A(14,51,63)           137.0901         estimate D2E/DX2                !
 ! A330  A(22,51,52)           133.7896         estimate D2E/DX2                !
 ! A331  A(22,51,60)           101.7078         estimate D2E/DX2                !
 ! A332  A(52,51,60)           114.7353         estimate D2E/DX2                !
 ! A333  A(52,51,63)            93.2765         estimate D2E/DX2                !
 ! A334  A(60,51,63)           103.2214         estimate D2E/DX2                !
 ! A335  A(12,52,51)            80.5102         estimate D2E/DX2                !
 ! A336  A(12,52,54)            79.0728         estimate D2E/DX2                !
 ! A337  A(51,52,54)            82.5163         estimate D2E/DX2                !
 ! A338  A(14,54,52)            82.2996         estimate D2E/DX2                !
 ! A339  A(14,54,53)           107.0592         estimate D2E/DX2                !
 ! A340  A(14,54,55)           142.3192         estimate D2E/DX2                !
 ! A341  A(14,54,56)            84.5164         estimate D2E/DX2                !
 ! A342  A(14,54,57)           135.1251         estimate D2E/DX2                !
 ! A343  A(52,54,53)           107.1222         estimate D2E/DX2                !
 ! A344  A(52,54,55)            82.9938         estimate D2E/DX2                !
 ! A345  A(52,54,56)           142.9314         estimate D2E/DX2                !
 ! A346  A(52,54,57)           133.1829         estimate D2E/DX2                !
 ! A347  A(53,54,55)           110.3923         estimate D2E/DX2                !
 ! A348  A(53,54,56)           109.8493         estimate D2E/DX2                !
 ! A349  A(53,54,57)            89.3419         estimate D2E/DX2                !
 ! A350  A(55,54,56)            86.717          estimate D2E/DX2                !
 ! A351  A(27,55,54)            78.4043         estimate D2E/DX2                !
 ! A352  A(27,55,57)            79.9479         estimate D2E/DX2                !
 ! A353  A(27,56,54)            78.5198         estimate D2E/DX2                !
 ! A354  A(27,56,57)            79.8644         estimate D2E/DX2                !
 ! A355  A(31,57,54)           149.8607         estimate D2E/DX2                !
 ! A356  A(31,57,55)           132.92           estimate D2E/DX2                !
 ! A357  A(31,57,56)            97.7235         estimate D2E/DX2                !
 ! A358  A(31,57,58)           101.3899         estimate D2E/DX2                !
 ! A359  A(54,57,58)            98.287          estimate D2E/DX2                !
 ! A360  A(54,57,64)           145.0243         estimate D2E/DX2                !
 ! A361  A(55,57,56)            90.1492         estimate D2E/DX2                !
 ! A362  A(55,57,58)           115.9994         estimate D2E/DX2                !
 ! A363  A(55,57,64)            92.7243         estimate D2E/DX2                !
 ! A364  A(56,57,58)           116.9651         estimate D2E/DX2                !
 ! A365  A(56,57,64)           134.1759         estimate D2E/DX2                !
 ! A366  A(58,57,64)           102.5384         estimate D2E/DX2                !
 ! A367  A(42,61,65)            94.3048         estimate D2E/DX2                !
 ! A368  A(18,62,39)            88.1707         estimate D2E/DX2                !
 ! A369  A(21,63,51)            87.6734         estimate D2E/DX2                !
 ! A370  A(30,64,57)            88.3045         estimate D2E/DX2                !
 ! A371  A(47,65,61)           109.8234         estimate D2E/DX2                !
 ! A372  A(47,65,66)            88.5091         estimate D2E/DX2                !
 ! A373  A(47,65,67)           107.9822         estimate D2E/DX2                !
 ! A374  A(61,65,66)           122.9687         estimate D2E/DX2                !
 ! A375  A(61,65,67)           116.3467         estimate D2E/DX2                !
 ! A376  A(61,65,68)           155.0871         estimate D2E/DX2                !
 ! A377  A(66,65,67)           107.0895         estimate D2E/DX2                !
 ! A378  A(67,65,68)            86.7853         estimate D2E/DX2                !
 ! A379  A(45,66,65)            81.3669         estimate D2E/DX2                !
 ! A380  A(45,68,48)            65.7234         estimate D2E/DX2                !
 ! A381  A(45,68,50)           109.7158         estimate D2E/DX2                !
 ! A382  A(45,68,65)            62.0632         estimate D2E/DX2                !
 ! A383  A(45,68,69)           132.5304         estimate D2E/DX2                !
 ! A384  A(47,68,48)           100.1159         estimate D2E/DX2                !
 ! A385  A(47,68,50)           109.9419         estimate D2E/DX2                !
 ! A386  A(47,68,66)            85.4281         estimate D2E/DX2                !
 ! A387  A(47,68,69)           147.7688         estimate D2E/DX2                !
 ! A388  A(48,68,65)           127.7342         estimate D2E/DX2                !
 ! A389  A(48,68,66)            96.4156         estimate D2E/DX2                !
 ! A390  A(48,68,69)           110.8922         estimate D2E/DX2                !
 ! A391  A(50,68,65)           158.9285         estimate D2E/DX2                !
 ! A392  A(50,68,66)           143.8075         estimate D2E/DX2                !
 ! A393  A(50,68,69)            97.0744         estimate D2E/DX2                !
 ! A394  A(65,68,69)           102.3036         estimate D2E/DX2                !
 ! A395  A(66,68,69)            82.6667         estimate D2E/DX2                !
 ! A396  A(68,69,70)           107.4685         estimate D2E/DX2                !
 ! A397  A(68,69,71)           105.7393         estimate D2E/DX2                !
 ! A398  A(70,69,71)            93.6922         estimate D2E/DX2                !
 ! A399  L(21,48,68,3,-1)      178.6203         estimate D2E/DX2                !
 ! A400  L(21,48,68,3,-2)      177.2989         estimate D2E/DX2                !
 ! D1    D(3,1,2,12)          -178.2739         estimate D2E/DX2                !
 ! D2    D(4,1,2,12)           -24.5735         estimate D2E/DX2                !
 ! D3    D(5,1,2,12)            41.5555         estimate D2E/DX2                !
 ! D4    D(8,1,2,12)           -95.8782         estimate D2E/DX2                !
 ! D5    D(46,1,2,12)          114.0714         estimate D2E/DX2                !
 ! D6    D(2,1,3,45)          -177.4859         estimate D2E/DX2                !
 ! D7    D(2,1,3,48)           -92.8009         estimate D2E/DX2                !
 ! D8    D(4,1,3,45)            28.1555         estimate D2E/DX2                !
 ! D9    D(4,1,3,48)           112.8405         estimate D2E/DX2                !
 ! D10   D(5,1,3,45)          -109.944          estimate D2E/DX2                !
 ! D11   D(5,1,3,48)           -25.2589         estimate D2E/DX2                !
 ! D12   D(8,1,3,45)            97.1855         estimate D2E/DX2                !
 ! D13   D(8,1,3,48)          -178.1294         estimate D2E/DX2                !
 ! D14   D(21,1,3,45)         -127.8689         estimate D2E/DX2                !
 ! D15   D(21,1,3,48)          -43.1838         estimate D2E/DX2                !
 ! D16   D(46,1,3,45)          -42.4309         estimate D2E/DX2                !
 ! D17   D(46,1,3,48)           42.2542         estimate D2E/DX2                !
 ! D18   D(2,1,4,6)           -114.2277         estimate D2E/DX2                !
 ! D19   D(2,1,4,9)            -31.6025         estimate D2E/DX2                !
 ! D20   D(3,1,4,6)             27.3269         estimate D2E/DX2                !
 ! D21   D(3,1,4,9)            109.9522         estimate D2E/DX2                !
 ! D22   D(5,1,4,6)            179.789          estimate D2E/DX2                !
 ! D23   D(5,1,4,9)            -97.5857         estimate D2E/DX2                !
 ! D24   D(8,1,4,6)            -41.822          estimate D2E/DX2                !
 ! D25   D(8,1,4,9)             40.8033         estimate D2E/DX2                !
 ! D26   D(21,1,4,6)           175.2344         estimate D2E/DX2                !
 ! D27   D(21,1,4,9)          -102.1403         estimate D2E/DX2                !
 ! D28   D(46,1,4,6)            95.5712         estimate D2E/DX2                !
 ! D29   D(46,1,4,9)           178.1965         estimate D2E/DX2                !
 ! D30   D(2,1,5,12)           -41.5373         estimate D2E/DX2                !
 ! D31   D(3,1,5,12)          -109.7875         estimate D2E/DX2                !
 ! D32   D(4,1,5,12)            98.751          estimate D2E/DX2                !
 ! D33   D(8,1,5,12)            30.5701         estimate D2E/DX2                !
 ! D34   D(46,1,5,12)         -175.5637         estimate D2E/DX2                !
 ! D35   D(2,1,8,6)           -179.7287         estimate D2E/DX2                !
 ! D36   D(2,1,8,9)             97.4301         estimate D2E/DX2                !
 ! D37   D(3,1,8,6)            -96.5082         estimate D2E/DX2                !
 ! D38   D(3,1,8,9)           -179.3495         estimate D2E/DX2                !
 ! D39   D(4,1,8,6)             41.6459         estimate D2E/DX2                !
 ! D40   D(4,1,8,9)            -41.1954         estimate D2E/DX2                !
 ! D41   D(5,1,8,6)            109.644          estimate D2E/DX2                !
 ! D42   D(5,1,8,9)             26.8027         estimate D2E/DX2                !
 ! D43   D(21,1,8,6)          -178.5081         estimate D2E/DX2                !
 ! D44   D(21,1,8,9)            98.6507         estimate D2E/DX2                !
 ! D45   D(46,1,8,6)           -31.8594         estimate D2E/DX2                !
 ! D46   D(46,1,8,9)          -114.7007         estimate D2E/DX2                !
 ! D47   D(3,1,21,22)          -88.0502         estimate D2E/DX2                !
 ! D48   D(3,1,21,23)           -2.2224         estimate D2E/DX2                !
 ! D49   D(3,1,21,48)           37.2916         estimate D2E/DX2                !
 ! D50   D(3,1,21,49)           80.2847         estimate D2E/DX2                !
 ! D51   D(3,1,21,63)          171.9256         estimate D2E/DX2                !
 ! D52   D(4,1,21,22)          113.9961         estimate D2E/DX2                !
 ! D53   D(4,1,21,23)         -160.176          estimate D2E/DX2                !
 ! D54   D(4,1,21,48)         -120.6621         estimate D2E/DX2                !
 ! D55   D(4,1,21,49)          -77.669          estimate D2E/DX2                !
 ! D56   D(4,1,21,63)           13.9719         estimate D2E/DX2                !
 ! D57   D(8,1,21,22)           -9.5194         estimate D2E/DX2                !
 ! D58   D(8,1,21,23)           76.3085         estimate D2E/DX2                !
 ! D59   D(8,1,21,48)          115.8224         estimate D2E/DX2                !
 ! D60   D(8,1,21,49)          158.8155         estimate D2E/DX2                !
 ! D61   D(8,1,21,63)         -109.5436         estimate D2E/DX2                !
 ! D62   D(46,1,21,22)        -166.7088         estimate D2E/DX2                !
 ! D63   D(46,1,21,23)         -80.8809         estimate D2E/DX2                !
 ! D64   D(46,1,21,48)         -41.367          estimate D2E/DX2                !
 ! D65   D(46,1,21,49)           1.6261         estimate D2E/DX2                !
 ! D66   D(46,1,21,63)          93.2671         estimate D2E/DX2                !
 ! D67   D(2,1,46,45)          111.1273         estimate D2E/DX2                !
 ! D68   D(2,1,46,48)           26.7896         estimate D2E/DX2                !
 ! D69   D(3,1,46,45)           41.8776         estimate D2E/DX2                !
 ! D70   D(3,1,46,48)          -42.4602         estimate D2E/DX2                !
 ! D71   D(4,1,46,45)          -96.1211         estimate D2E/DX2                !
 ! D72   D(4,1,46,48)          179.5412         estimate D2E/DX2                !
 ! D73   D(5,1,46,45)         -177.6039         estimate D2E/DX2                !
 ! D74   D(5,1,46,48)           98.0583         estimate D2E/DX2                !
 ! D75   D(8,1,46,45)          -23.9102         estimate D2E/DX2                !
 ! D76   D(8,1,46,48)         -108.2479         estimate D2E/DX2                !
 ! D77   D(21,1,46,45)         132.8781         estimate D2E/DX2                !
 ! D78   D(21,1,46,48)          48.5404         estimate D2E/DX2                !
 ! D79   D(1,2,12,5)           -41.9116         estimate D2E/DX2                !
 ! D80   D(1,2,12,11)           27.1007         estimate D2E/DX2                !
 ! D81   D(1,2,12,14)          178.9905         estimate D2E/DX2                !
 ! D82   D(1,2,12,15)           94.5104         estimate D2E/DX2                !
 ! D83   D(1,2,12,52)         -112.9437         estimate D2E/DX2                !
 ! D84   D(21,2,12,5)           37.8032         estimate D2E/DX2                !
 ! D85   D(21,2,12,11)         106.8155         estimate D2E/DX2                !
 ! D86   D(21,2,12,14)        -101.2947         estimate D2E/DX2                !
 ! D87   D(21,2,12,15)         174.2252         estimate D2E/DX2                !
 ! D88   D(21,2,12,52)         -33.2289         estimate D2E/DX2                !
 ! D89   D(12,2,21,5)          -38.435          estimate D2E/DX2                !
 ! D90   D(12,2,21,22)          92.6248         estimate D2E/DX2                !
 ! D91   D(12,2,21,23)         177.5407         estimate D2E/DX2                !
 ! D92   D(12,2,21,48)        -136.2342         estimate D2E/DX2                !
 ! D93   D(12,2,21,49)        -116.6584         estimate D2E/DX2                !
 ! D94   D(12,2,21,63)          49.3869         estimate D2E/DX2                !
 ! D95   D(1,3,45,43)          -95.3017         estimate D2E/DX2                !
 ! D96   D(1,3,45,44)          -27.3439         estimate D2E/DX2                !
 ! D97   D(1,3,45,46)           42.4929         estimate D2E/DX2                !
 ! D98   D(1,3,45,47)          115.2776         estimate D2E/DX2                !
 ! D99   D(1,3,45,66)         -177.508          estimate D2E/DX2                !
 ! D100  D(1,3,45,68)          130.9824         estimate D2E/DX2                !
 ! D101  D(48,3,45,43)        -179.2486         estimate D2E/DX2                !
 ! D102  D(48,3,45,44)        -111.2909         estimate D2E/DX2                !
 ! D103  D(48,3,45,46)         -41.454          estimate D2E/DX2                !
 ! D104  D(48,3,45,47)          31.3307         estimate D2E/DX2                !
 ! D105  D(48,3,45,66)          98.5451         estimate D2E/DX2                !
 ! D106  D(48,3,45,68)          47.0354         estimate D2E/DX2                !
 ! D107  D(1,3,48,21)           44.2187         estimate D2E/DX2                !
 ! D108  D(1,3,48,23)           97.8417         estimate D2E/DX2                !
 ! D109  D(1,3,48,46)          -42.8872         estimate D2E/DX2                !
 ! D110  D(1,3,48,49)           21.9014         estimate D2E/DX2                !
 ! D111  D(1,3,48,50)         -145.0802         estimate D2E/DX2                !
 ! D112  D(1,3,48,68)         -133.0803         estimate D2E/DX2                !
 ! D113  D(45,3,48,21)         129.114          estimate D2E/DX2                !
 ! D114  D(45,3,48,23)        -177.263          estimate D2E/DX2                !
 ! D115  D(45,3,48,46)          42.0082         estimate D2E/DX2                !
 ! D116  D(45,3,48,49)         106.7968         estimate D2E/DX2                !
 ! D117  D(45,3,48,50)         -60.1849         estimate D2E/DX2                !
 ! D118  D(45,3,48,68)         -48.185          estimate D2E/DX2                !
 ! D119  D(1,4,6,7)           -179.7638         estimate D2E/DX2                !
 ! D120  D(1,4,6,8)             41.7283         estimate D2E/DX2                !
 ! D121  D(1,4,6,16)           114.4119         estimate D2E/DX2                !
 ! D122  D(1,4,6,18)          -175.4657         estimate D2E/DX2                !
 ! D123  D(1,4,6,43)           -25.8772         estimate D2E/DX2                !
 ! D124  D(1,4,6,44)           -95.6248         estimate D2E/DX2                !
 ! D125  D(9,4,6,7)             96.9            estimate D2E/DX2                !
 ! D126  D(9,4,6,8)            -41.6079         estimate D2E/DX2                !
 ! D127  D(9,4,6,16)            31.0757         estimate D2E/DX2                !
 ! D128  D(9,4,6,18)           101.1981         estimate D2E/DX2                !
 ! D129  D(9,4,6,43)          -109.2135         estimate D2E/DX2                !
 ! D130  D(9,4,6,44)          -178.961          estimate D2E/DX2                !
 ! D131  D(1,4,9,8)            -41.0294         estimate D2E/DX2                !
 ! D132  D(1,4,9,10)          -179.2379         estimate D2E/DX2                !
 ! D133  D(1,4,9,11)            96.3276         estimate D2E/DX2                !
 ! D134  D(1,4,9,15)            29.4412         estimate D2E/DX2                !
 ! D135  D(1,4,9,26)          -110.3876         estimate D2E/DX2                !
 ! D136  D(6,4,9,8)             41.9345         estimate D2E/DX2                !
 ! D137  D(6,4,9,10)           -96.274          estimate D2E/DX2                !
 ! D138  D(6,4,9,11)           179.2915         estimate D2E/DX2                !
 ! D139  D(6,4,9,15)           112.4051         estimate D2E/DX2                !
 ! D140  D(6,4,9,26)           -27.4237         estimate D2E/DX2                !
 ! D141  D(1,5,12,2)            41.8732         estimate D2E/DX2                !
 ! D142  D(1,5,12,11)          -96.863          estimate D2E/DX2                !
 ! D143  D(1,5,12,14)          111.4292         estimate D2E/DX2                !
 ! D144  D(1,5,12,15)          -30.4749         estimate D2E/DX2                !
 ! D145  D(1,5,12,52)          179.2397         estimate D2E/DX2                !
 ! D146  D(21,5,12,2)          -38.3216         estimate D2E/DX2                !
 ! D147  D(21,5,12,11)        -177.0578         estimate D2E/DX2                !
 ! D148  D(21,5,12,14)          31.2344         estimate D2E/DX2                !
 ! D149  D(21,5,12,15)        -110.6697         estimate D2E/DX2                !
 ! D150  D(21,5,12,52)          99.0448         estimate D2E/DX2                !
 ! D151  D(12,5,21,2)           38.3613         estimate D2E/DX2                !
 ! D152  D(12,5,21,22)         -56.8088         estimate D2E/DX2                !
 ! D153  D(12,5,21,23)         105.416          estimate D2E/DX2                !
 ! D154  D(12,5,21,48)         129.8041         estimate D2E/DX2                !
 ! D155  D(12,5,21,49)        -178.0838         estimate D2E/DX2                !
 ! D156  D(12,5,21,63)         -92.2041         estimate D2E/DX2                !
 ! D157  D(4,6,7,13)           -99.5173         estimate D2E/DX2                !
 ! D158  D(8,6,7,13)           -31.5386         estimate D2E/DX2                !
 ! D159  D(16,6,7,13)           40.9345         estimate D2E/DX2                !
 ! D160  D(43,6,7,13)          107.762          estimate D2E/DX2                !
 ! D161  D(44,6,7,13)          174.7857         estimate D2E/DX2                !
 ! D162  D(4,6,8,1)            -41.7176         estimate D2E/DX2                !
 ! D163  D(4,6,8,9)             42.0282         estimate D2E/DX2                !
 ! D164  D(7,6,8,1)           -109.4831         estimate D2E/DX2                !
 ! D165  D(7,6,8,9)            -25.7373         estimate D2E/DX2                !
 ! D166  D(16,6,8,1)           179.6067         estimate D2E/DX2                !
 ! D167  D(16,6,8,9)           -96.6475         estimate D2E/DX2                !
 ! D168  D(18,6,8,1)           178.8285         estimate D2E/DX2                !
 ! D169  D(18,6,8,9)           -97.4257         estimate D2E/DX2                !
 ! D170  D(43,6,8,1)            97.0381         estimate D2E/DX2                !
 ! D171  D(43,6,8,9)          -179.2161         estimate D2E/DX2                !
 ! D172  D(44,6,8,1)            31.76           estimate D2E/DX2                !
 ! D173  D(44,6,8,9)           115.5057         estimate D2E/DX2                !
 ! D174  D(4,6,16,13)           24.7498         estimate D2E/DX2                !
 ! D175  D(7,6,16,13)          -41.1683         estimate D2E/DX2                !
 ! D176  D(8,6,16,13)           96.232          estimate D2E/DX2                !
 ! D177  D(43,6,16,13)         177.7248         estimate D2E/DX2                !
 ! D178  D(44,6,16,13)        -113.6742         estimate D2E/DX2                !
 ! D179  D(4,6,18,19)           78.968          estimate D2E/DX2                !
 ! D180  D(4,6,18,20)          160.7133         estimate D2E/DX2                !
 ! D181  D(4,6,18,40)          -13.3199         estimate D2E/DX2                !
 ! D182  D(4,6,18,42)          121.9192         estimate D2E/DX2                !
 ! D183  D(4,6,18,62)         -113.0026         estimate D2E/DX2                !
 ! D184  D(8,6,18,19)         -157.8927         estimate D2E/DX2                !
 ! D185  D(8,6,18,20)          -76.1474         estimate D2E/DX2                !
 ! D186  D(8,6,18,40)          109.8195         estimate D2E/DX2                !
 ! D187  D(8,6,18,42)         -114.9415         estimate D2E/DX2                !
 ! D188  D(8,6,18,62)           10.1368         estimate D2E/DX2                !
 ! D189  D(43,6,18,19)         -80.1547         estimate D2E/DX2                !
 ! D190  D(43,6,18,20)           1.5905         estimate D2E/DX2                !
 ! D191  D(43,6,18,40)        -172.4426         estimate D2E/DX2                !
 ! D192  D(43,6,18,42)         -37.2035         estimate D2E/DX2                !
 ! D193  D(43,6,18,62)          87.8747         estimate D2E/DX2                !
 ! D194  D(44,6,18,19)          -0.4525         estimate D2E/DX2                !
 ! D195  D(44,6,18,20)          81.2927         estimate D2E/DX2                !
 ! D196  D(44,6,18,40)         -92.7404         estimate D2E/DX2                !
 ! D197  D(44,6,18,42)          42.4987         estimate D2E/DX2                !
 ! D198  D(44,6,18,62)         167.5769         estimate D2E/DX2                !
 ! D199  D(4,6,43,42)         -113.1053         estimate D2E/DX2                !
 ! D200  D(4,6,43,45)          -30.9548         estimate D2E/DX2                !
 ! D201  D(7,6,43,42)           26.8926         estimate D2E/DX2                !
 ! D202  D(7,6,43,45)          109.0431         estimate D2E/DX2                !
 ! D203  D(8,6,43,42)          179.0688         estimate D2E/DX2                !
 ! D204  D(8,6,43,45)          -98.7808         estimate D2E/DX2                !
 ! D205  D(16,6,43,42)          93.2832         estimate D2E/DX2                !
 ! D206  D(16,6,43,45)         175.4336         estimate D2E/DX2                !
 ! D207  D(18,6,43,42)          44.0267         estimate D2E/DX2                !
 ! D208  D(18,6,43,45)         126.1772         estimate D2E/DX2                !
 ! D209  D(44,6,43,42)         -41.4337         estimate D2E/DX2                !
 ! D210  D(44,6,43,45)          40.7168         estimate D2E/DX2                !
 ! D211  D(4,6,44,42)          178.8839         estimate D2E/DX2                !
 ! D212  D(4,6,44,45)           97.1969         estimate D2E/DX2                !
 ! D213  D(7,6,44,42)          -99.7361         estimate D2E/DX2                !
 ! D214  D(7,6,44,45)          178.577          estimate D2E/DX2                !
 ! D215  D(8,6,44,42)          106.7085         estimate D2E/DX2                !
 ! D216  D(8,6,44,45)           25.0216         estimate D2E/DX2                !
 ! D217  D(16,6,44,42)         -28.4315         estimate D2E/DX2                !
 ! D218  D(16,6,44,45)        -110.1185         estimate D2E/DX2                !
 ! D219  D(18,6,44,42)         -50.3865         estimate D2E/DX2                !
 ! D220  D(18,6,44,45)        -132.0734         estimate D2E/DX2                !
 ! D221  D(43,6,44,42)          41.0342         estimate D2E/DX2                !
 ! D222  D(43,6,44,45)         -40.6528         estimate D2E/DX2                !
 ! D223  D(6,7,13,10)           97.5576         estimate D2E/DX2                !
 ! D224  D(6,7,13,16)          -41.4842         estimate D2E/DX2                !
 ! D225  D(6,7,13,26)           29.8147         estimate D2E/DX2                !
 ! D226  D(6,7,13,37)          179.1641         estimate D2E/DX2                !
 ! D227  D(6,7,13,38)         -109.5536         estimate D2E/DX2                !
 ! D228  D(18,7,13,10)         178.301          estimate D2E/DX2                !
 ! D229  D(18,7,13,16)          39.2592         estimate D2E/DX2                !
 ! D230  D(18,7,13,26)         110.5582         estimate D2E/DX2                !
 ! D231  D(18,7,13,37)        -100.0924         estimate D2E/DX2                !
 ! D232  D(18,7,13,38)         -28.8101         estimate D2E/DX2                !
 ! D233  D(13,7,18,16)         -39.0829         estimate D2E/DX2                !
 ! D234  D(13,7,18,19)         179.8457         estimate D2E/DX2                !
 ! D235  D(13,7,18,20)        -104.967          estimate D2E/DX2                !
 ! D236  D(13,7,18,40)          92.0479         estimate D2E/DX2                !
 ! D237  D(13,7,18,42)        -128.3575         estimate D2E/DX2                !
 ! D238  D(13,7,18,62)          55.9423         estimate D2E/DX2                !
 ! D239  D(1,8,9,4)             40.9431         estimate D2E/DX2                !
 ! D240  D(1,8,9,10)           112.3153         estimate D2E/DX2                !
 ! D241  D(1,8,9,11)           -29.701          estimate D2E/DX2                !
 ! D242  D(1,8,9,15)           -95.6056         estimate D2E/DX2                !
 ! D243  D(1,8,9,26)           178.5451         estimate D2E/DX2                !
 ! D244  D(6,8,9,4)            -41.6966         estimate D2E/DX2                !
 ! D245  D(6,8,9,10)            29.6756         estimate D2E/DX2                !
 ! D246  D(6,8,9,11)          -112.3407         estimate D2E/DX2                !
 ! D247  D(6,8,9,15)          -178.2453         estimate D2E/DX2                !
 ! D248  D(6,8,9,26)            95.9054         estimate D2E/DX2                !
 ! D249  D(4,9,10,13)           95.6706         estimate D2E/DX2                !
 ! D250  D(4,9,10,24)          179.4371         estimate D2E/DX2                !
 ! D251  D(8,9,10,13)           25.0893         estimate D2E/DX2                !
 ! D252  D(8,9,10,24)          108.8559         estimate D2E/DX2                !
 ! D253  D(11,9,10,13)         178.9272         estimate D2E/DX2                !
 ! D254  D(11,9,10,24)         -97.3063         estimate D2E/DX2                !
 ! D255  D(15,9,10,13)        -113.7906         estimate D2E/DX2                !
 ! D256  D(15,9,10,24)         -30.0241         estimate D2E/DX2                !
 ! D257  D(26,9,10,13)         -41.834          estimate D2E/DX2                !
 ! D258  D(26,9,10,24)          41.9325         estimate D2E/DX2                !
 ! D259  D(4,9,11,12)          -95.3273         estimate D2E/DX2                !
 ! D260  D(4,9,11,27)          179.7017         estimate D2E/DX2                !
 ! D261  D(8,9,11,12)          -25.159          estimate D2E/DX2                !
 ! D262  D(8,9,11,27)         -110.13           estimate D2E/DX2                !
 ! D263  D(10,9,11,12)        -179.524          estimate D2E/DX2                !
 ! D264  D(10,9,11,27)          95.5049         estimate D2E/DX2                !
 ! D265  D(15,9,11,12)          42.0144         estimate D2E/DX2                !
 ! D266  D(15,9,11,27)         -42.9566         estimate D2E/DX2                !
 ! D267  D(26,9,11,12)         112.2607         estimate D2E/DX2                !
 ! D268  D(26,9,11,27)          27.2897         estimate D2E/DX2                !
 ! D269  D(4,9,15,12)           26.301          estimate D2E/DX2                !
 ! D270  D(4,9,15,27)          111.3277         estimate D2E/DX2                !
 ! D271  D(8,9,15,12)           96.4552         estimate D2E/DX2                !
 ! D272  D(8,9,15,27)         -178.518          estimate D2E/DX2                !
 ! D273  D(10,9,15,12)        -111.1762         estimate D2E/DX2                !
 ! D274  D(10,9,15,27)         -26.1495         estimate D2E/DX2                !
 ! D275  D(11,9,15,12)         -42.0594         estimate D2E/DX2                !
 ! D276  D(11,9,15,27)          42.9673         estimate D2E/DX2                !
 ! D277  D(26,9,15,12)         178.7938         estimate D2E/DX2                !
 ! D278  D(26,9,15,27)         -96.1794         estimate D2E/DX2                !
 ! D279  D(4,9,26,13)          -28.7315         estimate D2E/DX2                !
 ! D280  D(4,9,26,24)         -112.297          estimate D2E/DX2                !
 ! D281  D(8,9,26,13)          -97.9641         estimate D2E/DX2                !
 ! D282  D(8,9,26,24)          178.4704         estimate D2E/DX2                !
 ! D283  D(10,9,26,13)          41.5291         estimate D2E/DX2                !
 ! D284  D(10,9,26,24)         -42.0364         estimate D2E/DX2                !
 ! D285  D(11,9,26,13)         111.1701         estimate D2E/DX2                !
 ! D286  D(11,9,26,24)          27.6046         estimate D2E/DX2                !
 ! D287  D(15,9,26,13)         179.1915         estimate D2E/DX2                !
 ! D288  D(15,9,26,24)          95.626          estimate D2E/DX2                !
 ! D289  D(9,10,13,7)          -95.0776         estimate D2E/DX2                !
 ! D290  D(9,10,13,16)         -26.4601         estimate D2E/DX2                !
 ! D291  D(9,10,13,26)          41.7766         estimate D2E/DX2                !
 ! D292  D(9,10,13,37)        -179.4369         estimate D2E/DX2                !
 ! D293  D(9,10,13,38)         112.9404         estimate D2E/DX2                !
 ! D294  D(24,10,13,7)        -177.916          estimate D2E/DX2                !
 ! D295  D(24,10,13,16)       -109.2985         estimate D2E/DX2                !
 ! D296  D(24,10,13,26)        -41.0618         estimate D2E/DX2                !
 ! D297  D(24,10,13,37)         97.7247         estimate D2E/DX2                !
 ! D298  D(24,10,13,38)         30.1021         estimate D2E/DX2                !
 ! D299  D(9,10,24,17)        -112.1511         estimate D2E/DX2                !
 ! D300  D(9,10,24,25)        -179.623          estimate D2E/DX2                !
 ! D301  D(9,10,24,26)         -42.5684         estimate D2E/DX2                !
 ! D302  D(9,10,24,28)          96.3185         estimate D2E/DX2                !
 ! D303  D(9,10,24,29)          30.1059         estimate D2E/DX2                !
 ! D304  D(13,10,24,17)        -27.847          estimate D2E/DX2                !
 ! D305  D(13,10,24,25)        -95.3189         estimate D2E/DX2                !
 ! D306  D(13,10,24,26)         41.7356         estimate D2E/DX2                !
 ! D307  D(13,10,24,28)       -179.3774         estimate D2E/DX2                !
 ! D308  D(13,10,24,29)        114.41           estimate D2E/DX2                !
 ! D309  D(9,11,12,2)           26.7944         estimate D2E/DX2                !
 ! D310  D(9,11,12,5)           95.6671         estimate D2E/DX2                !
 ! D311  D(9,11,12,14)        -111.9487         estimate D2E/DX2                !
 ! D312  D(9,11,12,15)         -42.2367         estimate D2E/DX2                !
 ! D313  D(9,11,12,52)         179.4195         estimate D2E/DX2                !
 ! D314  D(27,11,12,2)         110.4552         estimate D2E/DX2                !
 ! D315  D(27,11,12,5)         179.3279         estimate D2E/DX2                !
 ! D316  D(27,11,12,14)        -28.2879         estimate D2E/DX2                !
 ! D317  D(27,11,12,15)         41.424          estimate D2E/DX2                !
 ! D318  D(27,11,12,52)        -96.9197         estimate D2E/DX2                !
 ! D319  D(9,11,27,15)          43.1655         estimate D2E/DX2                !
 ! D320  D(9,11,27,28)         -94.2586         estimate D2E/DX2                !
 ! D321  D(9,11,27,29)         -25.3022         estimate D2E/DX2                !
 ! D322  D(9,11,27,55)        -178.6607         estimate D2E/DX2                !
 ! D323  D(9,11,27,56)         112.0299         estimate D2E/DX2                !
 ! D324  D(12,11,27,15)        -41.4044         estimate D2E/DX2                !
 ! D325  D(12,11,27,28)       -178.8284         estimate D2E/DX2                !
 ! D326  D(12,11,27,29)       -109.872          estimate D2E/DX2                !
 ! D327  D(12,11,27,55)         96.7695         estimate D2E/DX2                !
 ! D328  D(12,11,27,56)         27.4601         estimate D2E/DX2                !
 ! D329  D(2,12,14,51)          98.6779         estimate D2E/DX2                !
 ! D330  D(2,12,14,54)        -177.6181         estimate D2E/DX2                !
 ! D331  D(5,12,14,51)          29.4643         estimate D2E/DX2                !
 ! D332  D(5,12,14,54)         113.1683         estimate D2E/DX2                !
 ! D333  D(11,12,14,51)       -109.0459         estimate D2E/DX2                !
 ! D334  D(11,12,14,54)        -25.3419         estimate D2E/DX2                !
 ! D335  D(15,12,14,51)       -177.0344         estimate D2E/DX2                !
 ! D336  D(15,12,14,54)        -93.3304         estimate D2E/DX2                !
 ! D337  D(52,12,14,51)        -39.3369         estimate D2E/DX2                !
 ! D338  D(52,12,14,54)         44.3671         estimate D2E/DX2                !
[...]
 -0.00012197,0.00001500,0.00000502,0.00030352,0.00021977,-0.00040622,0.
 00017864,-0.00002702,-0.00008795,0.00004149,-0.00005898,0.00031622,-0.
 00013608,-0.00001436,0.00002243,-0.00009157,-0.00003101,0.00014799,0.0
 0005085,0.00001633,-0.00001716,-0.00005391,-0.00011336,0.00010858,0.00
 001433,0.00013168,-0.00013847,-0.00000151,0.00018538,-0.00019354,-0.00
 066796,-0.00033020,0.00016443,0.00026480,0.00020401,0.00024017,0.00103
 814,0.00059583,0.00006247,-0.00005915,-0.00003818,0.00005920,0.0000737
 4,-0.00005389,-0.00002813,-0.00006777,-0.00000557,0.00002066,-0.000043
 57,-0.00020402,0.00029815,-0.00011586,0.00000945,-0.00003367,-0.000104
 21,0.00005066,0.00001244,0.00011585,-0.00011361,0.00000742,0.00013036,
 0.00002275,0.00009111,0.00000963,-0.00004124,-0.00004827,-0.00028345,0
 .00010266,0.00014362,0.00005512,-0.00003826,0.00009536,0.00001676,0.00
 000633,-0.00000537,-0.00008687,0.00001902,-0.00001007,0.00000796,0.000
 02603,0.00000460,-0.00002279,-0.00000793,-0.00000765,-0.00003566,-0.00
 006655,0.00008727,0.00002699,0.00003640,-0.00005593,-0.00002368,0.0000
 2175,-0.00003039,-0.00011530,-0.00046335,0.00037544,-0.00023558,0.0003
 3595,0.00053314,-0.00004810,0.00012121,0.00045141,0.00072018,0.0029905
 8,-0.00054706,-0.00028886,-0.00015981,0.00067672,-0.00151237,-0.000069
 33,-0.00037355,-0.00001137,-0.00188858,0.00068716,0.00055770,0.0001664
 6,-0.00000062,0.00483149,-0.00085859,-0.00063731,-0.00035459,0.0003533
 4,-0.00048551,0.00005651,-0.00020788,0.00007394,-0.00018294,-0.0000485
 1,0.00004217,0.00024867,-0.00011504,0.00003440,0.00013323,-0.00003958,
 -0.00008770,0.00011422,0.00012673,-0.00002723,-0.00041689,-0.00013155,
 0.00018240,0.00013073,-0.00002019,0.00000706,0.00003195,-0.00003046,0.
 00001696,0.00011363,-0.00004602,0.00001417,-0.00013217,0.00041305,-0.0
 0053049,-0.00001336,0.00006481,-0.00004322,0.00016232,-0.00003405,-0.0
 0021811,0.00008133,-0.00008309,0.00003594,-0.00151013,-0.00024843,0.00
 006961,-0.00110543,0.00299091,-0.00436574,-0.00082749,0.00066614,-0.00
 241272,-0.00226356,-0.01173662,-0.03284606,-0.03586436,-0.05784236,0.0
 7393071,-0.00000284,-0.00001542,0.00003834,0.00001187,0.00000920,-0.00
 000458,-0.00003047,0.00006882,-0.00011862,0.00000433,-0.00000007,-0.00
 000333,0.00001750,-0.00002215,0.00000103,-0.00002052,-0.00000239,0.000
 01675,0.00000734,0.00000825,-0.00000061,0.00000694,0.00000743,-0.00000
 433,-0.00000772,0.00000234,-0.00000474,0.00000485,0.00000147,-0.000003
 70,0.00000193,-0.00000120,-0.00000017,-0.00000782,0.00001840,-0.000008
 25,-0.00001378,-0.00000935,0.00001486,-0.00000014,0.00000059,0.0000110
 0,0.00000146,-0.00000077,0.00000226,0.00000654,-0.00000379,-0.00000376
 ,-0.00000389,0.00000060,0.00000082,0.00001115,0.00000709,-0.00001569,0
 .00001127,0.00000341,0.00001744,0.00000834,-0.00003501,0.00002001,-0.0
 0003814,0.00005792,-0.00002274,-0.00000798,-0.00002106,-0.00001726,0.0
 0003303,-0.00002911,0.00001567,0.00000160,-0.00000123,0.00000283,-0.00
 000110,-0.00000126,-0.00000059,0.00000474,0.00000242,-0.00000362,-0.00
 000766,0.00000318,-0.00000578,0.00000290,-0.00000033,-0.00000189,0.000
 00169,0.00000026,-0.00000100,-0.00000030,-0.00000406,0.00000199,-0.000
 00077,-0.00000008,-0.00000126,-0.00000605,-0.00000054,-0.00000441,0.00
 001348,0.00001224,-0.00000786,-0.00000075,-0.00000062,0.00000241,0.000
 00239,-0.00000618,0.00000814,-0.00000414,0.00000587,-0.00000568,0.0000
 0165,-0.00000197,-0.00000263,0.00000263,0.00000340,-0.00000013,-0.0000
 0111,0.00000936,-0.00001556,0.00000048,-0.00000311,0.00000357,0.000007
 27,-0.00000840,0.00001204,-0.00001581,0.00005970,-0.00005954,0.0000053
 2,0.00000225,-0.00004177,0.00000415,0.00004805,0.00001829,0.00012143,0
 .00042533,-0.00009435,0.00000047,-0.00003311,-0.00001340,0.00015794,0.
 00076633,0.00020923,0.00005116,-0.00011112,0.00027776,-0.00002291,0.00
 001061,0.00001628,-0.00004448,0.00032219,-0.00038886,0.00000957,0.0000
 0390,0.00000120,-0.00000058,-0.00001025,0.00000144,-0.00001652,0.00000
 179,-0.00000091,0.00001949,-0.00000008,-0.00000531,-0.00000033,-0.0000
 0118,-0.00000029,-0.00000051,0.00000153,0.00000075,0.00000801,-0.00000
 446,0.00000395,-0.00001090,0.00000097,0.00000075,0.00000062,-0.0000076
 8,0.00000928,-0.00001719,0.00000531,-0.00000684,0.00000007,0.00002260,
 -0.00000320,-0.00000216,-0.00000487,0.00000555,0.00000202,0.00000846,0
 .00001175,-0.00000050,0.00000142,0.00000059,0.00012455,-0.00002176,-0.
 00012763,-0.00023756,0.00013395,-0.00070927,0.00012817,-0.00002297,0.0
 0024355,-0.00104265,-0.00254972,0.00232877,-0.07010885,-0.09929330,0.0
 3626781,0.06327910,-0.00002534,0.00006094,0.00001977,0.00004072,-0.000
 01618,-0.00000707,0.00011052,-0.00007254,-0.00008894,-0.00000211,-0.00
 000483,-0.00000171,0.00001334,-0.00000922,-0.00001125,0.00000138,-0.00
 002867,0.00002183,0.00000212,0.00000815,0.00000606,0.00001244,0.000007
 82,-0.00000974,-0.00000289,-0.00000256,0.00000935,0.00000861,0.0000010
 0,-0.00000158,0.00000867,-0.00000496,0.00000134,-0.00001614,-0.0000117
 9,0.00002170,-0.00001206,0.00000755,0.00000394,-0.00001095,0.00000039,
 -0.00002430,0.00001235,-0.00000004,-0.00000083,0.00001121,-0.00000315,
 -0.00001703,-0.00000310,-0.00000116,0.00000106,-0.00000623,0.00003026,
 0.00000947,0.00000779,-0.00001666,0.00002497,0.00000158,0.00003619,-0.
 00002574,0.00008305,0.00008318,-0.00000278,-0.00003994,-0.00004633,-0.
 00002177,-0.00010580,-0.00008379,-0.00000854,0.00000385,0.00000345,-0.
 00000616,-0.00000626,0.00000680,0.00000232,0.00000396,-0.00000110,-0.0
 0000045,0.00000828,0.00002241,-0.00003100,0.00001010,-0.00000201,0.000
 00546,0.00000938,-0.00000640,-0.00000005,-0.00000815,0.00001379,0.0000
 0081,-0.00001281,-0.00000101,-0.00000894,0.00000072,0.00000413,0.00000
 595,0.00002180,-0.00001779,-0.00000718,-0.00000616,0.00000399,-0.00001
 225,-0.00000317,0.00000435,-0.00000617,0.00000909,-0.00000749,0.000006
 35,-0.00000139,-0.00000079,0.,0.00000199,-0.00000135,0.00000043,0.0000
 0504,-0.00000143,0.00000331,-0.00000563,-0.00000144,0.00000333,-0.0000
 0343,0.00000455,-0.00000650,-0.00000307,-0.00000052,0.00003941,-0.0000
 3382,0.00001008,-0.00001599,0.00002575,-0.00006105,-0.00004725,0.00000
 503,0.00010487,0.00010380,0.00001168,-0.00002613,0.00002938,-0.0002875
 2,0.00001507,-0.00026808,0.00002647,0.00014799,-0.00019859,-0.00006733
 ,0.00003377,0.00001693,-0.00005368,-0.00011632,0.00027593,0.00002046,-
 0.00003919,0.00004737,-0.00001104,0.00002406,-0.00000805,0.00002040,0.
 00000209,-0.00000025,-0.00001846,0.00002590,-0.00002593,-0.00001481,0.
 00000251,0.00001141,-0.00001204,-0.00001492,0.00000518,0.00003232,0.00
 001280,-0.00001466,-0.00000464,0.00000050,-0.00000025,-0.00000386,0.00
 000928,-0.00000938,0.00000137,0.00000056,0.,-0.00004071,-0.00000852,-0
 .00001094,0.00000542,-0.00000173,0.00000120,-0.00001074,0.00002042,0.0
 0002311,-0.00000827,0.00000712,-0.00000493,-0.00034398,-0.00008833,0.0
 0009500,-0.00024180,0.00015574,-0.00041346,0.00001758,0.00019328,-0.00
 042530,0.00044328,0.00220555,0.00289375,-0.07333919,-0.19551881,0.0563
 5065,0.07992295,0.20553342,-0.00000907,0.00011700,-0.00004886,0.000081
 26,-0.00002834,-0.00000849,0.00013206,-0.00005908,0.00003382,0.0000142
 7,-0.00000698,-0.00000298,0.00005363,-0.00001551,-0.00000971,0.0000041
 0,-0.00008747,0.00006995,0.00000328,0.00002029,0.00000859,0.00002681,0
 .00001834,-0.00001976,-0.00003019,-0.00000459,0.00000955,0.00002359,0.
 00000238,-0.00000739,0.00002215,-0.00000997,0.00000572,-0.00003814,-0.
 00000723,0.00003201,-0.00003667,0.00000716,0.00002662,-0.00001359,0.00
 001150,-0.00003650,0.00002466,0.00000222,0.00000502,0.00002473,0.00000
 751,-0.00002348,-0.00001125,-0.00000205,0.00000415,-0.00000374,0.00003
 780,-0.00002966,-0.00001100,-0.00003563,0.00001176,-0.00003099,-0.0000
 4865,0.00000400,0.00012310,0.00023271,-0.00009739,-0.00006663,-0.00010
 981,-0.00009425,-0.00025078,-0.00019834,0.00002227,0.00000587,0.000006
 88,-0.00001003,-0.00001414,0.00001044,0.00000430,0.00001555,0.00000244
 ,-0.00000369,0.00001286,0.00004071,-0.00006342,0.00002113,-0.00000259,
 0.00000789,0.00002009,-0.00001187,-0.00000182,-0.00001870,0.00002119,0
 .00000100,-0.00002476,-0.00000332,-0.00001764,-0.00000563,0.00000781,0
 .00000643,0.00005647,-0.00001695,-0.00002487,-0.00001173,0.00000581,-0
 .00001885,-0.00000316,-0.00000189,0.00000126,0.00002099,-0.00000154,-0
 .00000022,-0.00000469,-0.00000549,-0.00000117,0.00000509,0.00000126,0.
 00000138,0.00001019,0.00001401,-0.00001873,-0.00000800,-0.00000608,0.0
 0001556,0.00000428,-0.00000401,0.00000520,0.00005091,0.00018747,-0.000
 13875,-0.00004734,-0.00006693,-0.00001927,-0.00003937,-0.00005726,-0.0
 0012287,-0.00026885,-0.00063173,0.00056135,-0.00002471,0.00001504,0.00
 000018,-0.00096287,-0.00073898,-0.00070106,0.00024019,0.00065839,-0.00
 060653,-0.00025371,0.00003647,0.00008001,-0.00115351,-0.00041163,0.001
 08341,0.00003831,-0.00004831,0.00009532,-0.00002831,0.00001477,-0.0000
 0707,0.00000793,0.00001078,-0.00000330,0.00001006,0.00005616,-0.000058
 41,-0.00003138,0.00000210,0.00002026,-0.00002415,-0.00002559,0.0000094
 3,0.00007229,0.00001760,-0.00002034,-0.00002428,0.00000239,0.00000047,
 -0.00000603,0.00000576,-0.00000366,-0.00001363,0.00000751,-0.00000865,
 0.00014019,-0.00009343,0.00018816,0.00000810,-0.00001437,0.00000523,-0
 .00002507,0.00004932,0.00010365,-0.00001631,0.00001516,-0.00000858,0.0
 0064023,0.00074844,-0.00050835,0.00043052,-0.00038393,-0.00216206,-0.0
 0005133,-0.00050045,0.00096373,0.00424592,0.00877204,-0.00266753,0.028
 63437,0.05353297,-0.02621771,-0.03117306,-0.06145109,0.03124546,-0.000
 03749,0.00003381,-0.00007132,0.00000745,-0.00001412,-0.00000418,0.0000
 3645,0.00003692,0.00006710,0.00001355,0.00001802,0.00000322,0.00001399
 ,-0.00000097,0.00000670,-0.00000272,-0.00002615,-0.00005246,0.00001325
 ,0.00001211,0.00000229,0.00000875,-0.00000785,0.00000772,-0.00001552,-
 0.00000532,-0.00000444,0.00001070,0.00000118,-0.00000463,0.00000366,-0
 .00000471,0.00000097,-0.00001654,0.00000212,0.00000107,-0.00004522,-0.
 00001174,0.00001368,-0.00000351,-0.00000004,-0.00000585,0.00000406,0.0
 0000191,0.00000344,0.00001284,-0.00000485,0.00001692,-0.00000890,-0.00
 000050,0.00000034,-0.00000394,-0.00000516,-0.00007460,0.00001150,0.000
 02737,-0.00001975,-0.00002120,-0.00013746,0.00004096,0.00002580,-0.000
 00726,0.00005059,-0.00000014,-0.00001141,-0.00001875,0.00003738,-0.000
 02387,-0.00002736,0.00000108,0.00000229,0.00000206,-0.00000693,0.00000
 267,0.00000053,0.00001435,0.00000387,-0.00000286,-0.00000792,0.0000096
 3,-0.00000960,0.00000887,-0.00000110,0.00000050,0.00000682,-0.00000374
 ,-0.00000254,-0.00000797,0.00000239,0.00000102,-0.00000756,-0.00000218
 ,-0.00000547,-0.00000849,0.00000219,-0.00000201,0.00003443,0.00000840,
 -0.00001711,-0.00000473,0.00000096,-0.00000386,0.00000154,-0.00000762,
 0.00001016,0.00000304,0.00000578,-0.00000549,0.00000172,-0.00000156,0.
 00000008,0.00000427,0.00000379,-0.00000102,0.00000706,0.00001904,-0.00
 002871,0.00000598,-0.00000242,0.00001318,0.00001010,-0.00001177,0.0000
 1699,0.00015413,0.00019518,-0.00017179,-0.00002889,0.00003309,0.000087
 27,-0.00006928,0.00005905,0.00004010,-0.00034368,-0.00019472,0.0000014
 1,0.00001878,0.00001578,0.00008170,-0.00043975,0.00005745,-0.00011962,
 -0.00001718,0.00018205,-0.00014858,0.00000741,-0.00000838,0.00003566,0
 .00022811,0.00003652,0.00028424,0.00002655,-0.00001589,0.00002552,-0.0
 0000500,0.00000244,0.00000044,-0.00001062,0.00000423,-0.00000188,0.000
 01085,0.00000377,-0.00000567,-0.00000269,-0.00000155,0.00000131,-0.000
 00282,-0.00000257,0.00000262,0.00002506,0.00000154,-0.00000372,-0.0000
 1808,0.00000193,0.00000056,-0.00000114,-0.00000710,0.00000988,-0.00001
 786,0.00000693,-0.00000494,0.00009170,-0.00009526,0.00015387,-0.000006
 78,-0.00001195,0.00000763,-0.00000627,0.00001061,0.00001399,-0.0000047
 6,0.00000635,-0.00000021,0.00141070,0.00089257,-0.00184242,-0.00004995
 ,-0.00060379,-0.00014293,-0.00077768,-0.00043257,0.00190490,-0.0010242
 9,0.00047177,0.00166188,-0.21064142,0.10775053,0.00151469,0.00759867,-
 0.00615419,-0.00048842,0.20379630,0.00000327,-0.00002526,0.00001020,0.
 00002041,0.00001266,-0.00002016,0.00008155,-0.00007719,0.00003868,-0.0
 0001465,0.00001150,-0.00000511,0.00001344,-0.00000158,-0.00001699,0.00
 003376,-0.00003489,0.00002758,0.00000011,0.00000728,-0.00000154,0.0000
 0015,0.00001217,-0.00000884,0.00000690,-0.00001615,0.00001759,0.000003
 24,0.00000382,-0.00000413,0.00000221,0.00000096,-0.00000635,-0.0000195
 8,-0.00000485,0.00004342,-0.00000289,-0.00000079,0.00000980,-0.0000032
 1,0.00000121,-0.00001608,0.00000727,0.00000491,-0.00001071,0.00001481,
 0.00000789,-0.00001601,-0.00000112,-0.00000127,0.00000467,0.00000807,0
 .00001647,0.00001930,0.00000023,-0.00000320,0.00003583,0.00000112,-0.0
 0003956,-0.00001026,0.00008093,-0.00000504,0.00000987,-0.00001837,-0.0
 0001316,-0.00000800,-0.00004216,-0.00005944,0.00001145,0.00000761,0.00
 000325,-0.00000698,-0.00000303,-0.00000126,0.00000293,-0.00000218,0.00
 000233,0.00000048,0.00000304,-0.00000530,0.00000436,0.00000650,0.00000
 284,-0.00000143,0.00000600,0.00000030,-0.00000456,-0.00001255,0.000003
 18,-0.00000399,-0.00000524,-0.00000363,-0.00000359,0.00000197,0.000001
 18,0.00000174,0.00000695,0.00000187,-0.00001153,0.00000129,0.00000161,
 0.00000033,0.00000030,-0.00000597,0.00000774,0.00000826,0.00000717,-0.
 00001158,-0.00000568,-0.00000617,-0.00000365,-0.00000002,0.00000265,0.
 00000244,-0.00000355,0.00000996,-0.00001068,-0.00000392,0.00000140,0.0
 0000923,0.00000673,-0.00000729,0.00000991,0.00002539,0.00006507,-0.000
 12880,-0.00003534,0.00002631,0.00005817,0.00002477,-0.00001028,-0.0000
 5684,-0.00064362,-0.00017545,-0.00006644,0.00005672,-0.00002716,0.0000
 1275,0.00018840,0.00038490,0.00013982,-0.00010550,0.00028233,-0.000293
 44,0.00001611,0.00004461,0.00002626,-0.00030706,0.00031829,0.00022546,
 0.00004678,-0.00001788,0.00001248,0.00000119,0.00001293,-0.00000593,0.
 00000060,0.00000896,-0.00000909,-0.00001267,-0.00000379,0.00001090,-0.
 00000235,0.00000470,0.00000109,-0.00000189,-0.00000605,-0.00000229,0.0
 0002583,0.00001044,-0.00001400,-0.00001414,0.00000261,-0.00000106,-0.0
 0000020,-0.00000561,0.00000761,-0.00002086,0.00000578,-0.00000205,0.00
 018726,-0.00011831,0.00009550,0.00000739,-0.00000790,-0.00000010,-0.00
 000970,0.00000406,-0.00000080,-0.00000268,0.00000474,-0.00000028,0.000
 09875,0.00037432,-0.00050516,-0.00028250,-0.00020752,0.00053123,-0.000
 14399,-0.00034298,0.00067092,0.00177599,-0.00132746,-0.00255485,0.0807
 7679,-0.06989997,0.00866540,0.02026900,-0.01258574,0.00039123,-0.10210
 645,0.08338145,0.00001490,-0.00002718,-0.00000492,-0.00001083,0.000023
 87,-0.00001146,-0.00001823,-0.00000503,0.00014087,0.00001117,-0.000004
 87,0.00000145,0.00000094,0.00001420,-0.00000121,-0.00005143,0.00005225
 ,0.00001231,0.00001663,0.00001392,0.00000254,0.00001387,-0.00000813,0.
 00001384,-0.00002763,-0.00000724,0.00000712,0.00001098,0.00000527,-0.0
 0000342,0.00001200,0.00000054,-0.00000378,-0.00006198,-0.00004202,0.00
 007521,-0.00003979,-0.00000229,0.00000783,0.00000565,0.00000761,-0.000
 03963,0.00001671,0.00000234,-0.00000744,0.00001254,-0.00000556,-0.0000
 0657,-0.00000858,-0.00000224,0.00000096,-0.00001805,-0.00003282,-0.000
 05463,0.00000513,-0.00001172,-0.00003683,-0.00001420,-0.00012819,0.000
 07631,0.00004853,-0.00009554,0.00005269,0.00000070,0.00003163,0.000004
 19,0.00000817,-0.00000082,-0.00006481,0.00001204,0.00000473,-0.0000057
 4,-0.00000846,0.00000489,0.00000261,0.00000889,-0.00000097,-0.00000467
 ,-0.00000153,0.00001702,-0.00001968,0.00001283,0.00000009,0.00000166,0
 .00001096,-0.00000302,-0.00000309,-0.00001679,0.00000766,-0.00000433,-
 0.00001251,-0.00000533,-0.00000825,-0.00000348,0.00000413,0.00000366,0
 .00003923,0.00000133,-0.00002470,-0.00000416,0.00000291,-0.00000588,0.
 00000031,-0.00000715,0.00000984,0.00000320,0.00000297,-0.00000317,0.00
 000098,-0.00000140,0.00000029,0.00000431,0.00000393,-0.00000136,0.0000
 0386,0.00002048,-0.00003059,0.00000803,-0.00000603,0.00000958,0.000010
 80,-0.00001260,0.00001809,0.00010776,0.00028481,-0.00023678,0.00005537
 ,0.00000782,0.00002076,-0.00001704,0.00001425,-0.00002135,-0.00078767,
 -0.00037036,0.00017403,0.00003833,-0.00008879,-0.00005540,0.00014998,0
 .00048881,-0.00038990,-0.00057257,0.00000680,0.00020659,0.00010480,-0.
 00006702,0.00000206,-0.00045953,0.00029159,-0.00064793,0.00006974,-0.0
 0003766,0.00003059,0.00001027,0.00002559,-0.00000991,0.00002457,0.0000
 0894,-0.00001169,-0.00005111,-0.00002226,0.00004834,-0.00000868,0.0000
 0739,0.00000263,-0.00000824,-0.00001051,-0.00000154,0.00005287,0.00001
 752,-0.00002760,-0.00002275,0.00000440,-0.00000166,-0.00000225,-0.0000
 0606,0.00000963,-0.00002682,0.00000904,0.00000109,0.00027187,-0.000223
 42,0.00027329,-0.00000639,-0.00001110,0.00001111,-0.00002102,-0.000023
 46,-0.00002154,-0.00000758,0.00000964,-0.00000115,-0.00004193,0.001567
 21,-0.00198970,0.00007670,-0.00009217,0.00052573,-0.00087012,-0.000674
 70,0.00202791,0.00851942,-0.00581776,-0.00296385,0.00290482,0.00902931
 ,-0.00898856,-0.00668350,0.00315357,-0.00084012,-0.00279502,-0.0072930
 7,0.01278001\\0.00001064,-0.00002318,0.00000610,0.00000143,0.00000361,
 -0.00000097,0.00001120,-0.00000264,-0.00003552,-0.00000219,0.00000195,
 0.00000774,0.00000161,0.00000341,-0.00000611,-0.00000187,0.00000049,-0
 .00001213,-0.00000091,0.00000124,-0.00000292,0.00000486,0.00000055,0.0
 0000562,-0.00000915,0.00000633,-0.00000689,0.00000358,-0.00000206,0.00
 000094,0.00000531,0.00000063,-0.00000034,-0.00000599,-0.00000170,0.000
 00230,0.00000280,0.00000235,0.00000302,0.00000641,-0.00000404,-0.00001
 027,0.00000297,0.00000035,-0.00000070,0.00000071,-0.00000034,-0.000000
 70,-0.00000020,-0.00000039,0.00000003,-0.00000422,-0.00000231,0.000027
 12,0.00000066,-0.00000382,-0.00000140,-0.00000388,0.00000231,-0.000008
 60,0.00000068,0.00001264,0.00001350,0.00000253,-0.00000841,0.00000221,
 -0.00000094,-0.00000497,-0.00000705,-0.00000754,0.00000045,0.00000055,
 -0.00000323,0.00000166,-0.00000059,0.00000025,-0.00000164,0.00000116,-
 0.00000508,0.00000178,-0.00000504,0.00000165,0.00000044,-0.00000130,-0
 .00000050,0.00000278,0.00000040,-0.00000368,0.00000315,-0.00000484,-0.
 00000398,0.00000208,0.00000051,-0.00000300,0.00000298,0.00000093,0.000
 00414,-0.00000156,0.00000019,-0.00000440,0.00000220,0.00000077,-0.0000
 0365,-0.00000086,0.00000103,-0.00000158,0.00000248,0.00000087,-0.00000
 236,0.00000012,-0.00000269,-0.00000226,-0.00000198,0.00000047,-0.00000
 146,-0.00000315,0.00000397,-0.00000234,-0.00000245,0.00000099,-0.00000
 234,-0.00000115,0.00000157,-0.00000180,-0.00001812,0.00000907,0.000005
 83,-0.00000336,-0.00001378,0.00000194,0.00000262,-0.00000505,-0.000020
 12,0.00002512,0.00005753,-0.00000584,0.00000298,-0.00000563,-0.0000133
 9,0.00000152,-0.00000138,-0.00001909,0.00002020,0.00003061,0.00001164,
 0.00000058,-0.00000454,0.00001511,-0.00001104,0.00001480,-0.00001016,-
 0.00000832,0.00002241,0.00000247,0.00000565,0.00000329,0.00000146,0.00
 000226,0.00000344,0.00001262,0.00001483,-0.00003258,-0.00000423,0.0000
 0152,0.00000002,0.00000258,0.00000358,0.00000097,-0.00000105,0.0000028
 5,0.00000069,-0.00000314,-0.00000010,0.00000315,-0.00000474,0.00000057
 ,0.00000079,0.00000500,0.00000676,-0.00000222,-0.00000788,0.00001472,-
 0.00000105,0.00000087,0.00000167,-0.00000187,-0.00000122,-0.00000603,-
 0.00001477,-0.00000259,0.00000164,-0.00000045,0.00002236,-0.00000510,-
 0.00000218,-0.00001072,0.00000445,-0.00002481,-0.00000149,-0.00000537,
 -0.00000131,0.00004500,-0.00003734,0.00000804,-0.00000831,-0.00000114,
 -0.00001879,0.00000408,-0.00000518,-0.00000099,0.00000016,-0.00000178,
 0.00000266\\\@
 The archive entry for this job was punched.


 I LOVE THOSE WHO LONG FOR THE IMPOSSIBLE.

                                 -- GOETHE
 Job cpu time:       9 days  9 hours 10 minutes 10.3 seconds.
 Elapsed time:       0 days  4 hours 54 minutes 41.6 seconds.
 File lengths (MBytes):  RWF=  18651 Int=      0 D2E=      0 Chk=    166 Scr=      2
 Normal termination of Gaussian 16 at Wed Mar  8 00:33:21 2023.
