 Entering Gaussian System, Link 0=/apps/GAU16/avx2/g16/g16
 Initial command:
 /apps/GAU16/avx2//g16/l1.exe "/localscratch/chegho/Gau-228358.inp" -scrdir="/localscratch/chegho/"
 Entering Link 1 = /apps/GAU16/avx2//g16/l1.exe PID=    228361.
  
 Copyright (c) 1988-2019, Gaussian, Inc.  All Rights Reserved.
  
 This is part of the Gaussian(R) 16 program.  It is based on
 the Gaussian(R) 09 system (copyright 2009, Gaussian, Inc.),
 the Gaussian(R) 03 system (copyright 2003, Gaussian, Inc.),
 the Gaussian(R) 98 system (copyright 1998, Gaussian, Inc.),
 the Gaussian(R) 94 system (copyright 1995, Gaussian, Inc.),
 the Gaussian 92(TM) system (copyright 1992, Gaussian, Inc.),
 the Gaussian 90(TM) system (copyright 1990, Gaussian, Inc.),
 the Gaussian 88(TM) system (copyright 1988, Gaussian, Inc.),
 the Gaussian 86(TM) system (copyright 1986, Carnegie Mellon
 University), and the Gaussian 82(TM) system (copyright 1983,
 Carnegie Mellon University). Gaussian is a federally registered
 trademark of Gaussian, Inc.
  
 This software contains proprietary and confidential information,
 including trade secrets, belonging to Gaussian, Inc.
  
 This software is provided under written license and may be
 used, copied, transmitted, or stored only in accord with that
 written license.
  
 The following legend is applicable only to US Government
 contracts under FAR:
  
                    RESTRICTED RIGHTS LEGEND
  
 Use, reproduction and disclosure by the US Government is
 subject to restrictions as set forth in subparagraphs (a)
 and (c) of the Commercial Computer Software - Restricted
 Rights clause in FAR 52.227-19.
  
 Gaussian, Inc.
 340 Quinnipiac St., Bldg. 40, Wallingford CT 06492
  
  
 ---------------------------------------------------------------
 Warning -- This program may not be used in any manner that
 competes with the business of Gaussian, Inc. or will provide
 assistance to any competitor of Gaussian, Inc.  The licensee
 of this program is prohibited from giving any competitor of
 Gaussian, Inc. access to this program.  By using this program,
 the user acknowledges that Gaussian, Inc. is engaged in the
 business of creating and licensing software in the field of
 computational chemistry and represents and warrants to the
 licensee that it is not a competitor of Gaussian, Inc. and that
 it will not use this program in any manner prohibited above.
 ---------------------------------------------------------------
  

 Cite this work as:
 Gaussian 16, Revision C.01,
 M. J. Frisch, G. W. Trucks, H. B. Schlegel, G. E. Scuseria, 
 M. A. Robb, J. R. Cheeseman, G. Scalmani, V. Barone, 
 G. A. Petersson, H. Nakatsuji, X. Li, M. Caricato, A. V. Marenich, 
 J. Bloino, B. G. Janesko, R. Gomperts, B. Mennucci, H. P. Hratchian, 
 J. V. Ortiz, A. F. Izmaylov, J. L. Sonnenberg, D. Williams-Young, 
 F. Ding, F. Lipparini, F. Egidi, J. Goings, B. Peng, A. Petrone, 
 T. Henderson, D. Ranasinghe, V. G. Zakrzewski, J. Gao, N. Rega, 
 G. Zheng, W. Liang, M. Hada, M. Ehara, K. Toyota, R. Fukuda, 
 J. Hasegawa, M. Ishida, T. Nakajima, Y. Honda, O. Kitao, H. Nakai, 
 T. Vreven, K. Throssell, J. A. Montgomery, Jr., J. E. Peralta, 
 F. Ogliaro, M. J. Bearpark, J. J. Heyd, E. N. Brothers, K. N. Kudin, 
 V. N. Staroverov, T. A. Keith, R. Kobayashi, J. Normand, 
 K. Raghavachari, A. P. Rendell, J. C. Burant, S. S. Iyengar, 
 J. Tomasi, M. Cossi, J. M. Millam, M. Klene, C. Adamo, R. Cammi, 
 J. W. Ochterski, R. L. Martin, K. Morokuma, O. Farkas, 
 J. B. Foresman, and D. J. Fox, Gaussian, Inc., Wallingford CT, 2019.
 
 ******************************************
 Gaussian 16:  ES64L-G16RevC.01  3-Jul-2019
                 9-Mar-2023 
 ******************************************
 %nprocshared=48
 Will use up to   48 processors via shared memory.
 %chk=Mo20S47_Mozz_Mo_SH_2.chk
 %mem=100GB
 ----------------------------------------------------------------------
 # opt freq b3lyp/gen nosymm pseudo=read scf=maxcycles=1000 geom=check 
 guess=read
 ----------------------------------------------------------------------
 1/18=20,19=15,26=3,29=2,38=1/1,3;
 2/9=110,12=2,15=1,40=1/2;
 3/5=7,11=2,14=-4,16=1,17=8,25=1,30=1,71=1,74=-5,116=-2/1,2,3;
 4/5=1/1;
 5/5=2,7=1000,38=6/2;
 6/7=2,8=2,9=2,10=2,28=1/1;
 7/30=1/1,2,3,16;
 1/18=20,19=15,26=3/3(2);
 2/9=110,15=1/2;
 99//99;
 2/9=110,15=1/2;
 3/5=7,6=1,11=2,14=-2,16=1,17=8,25=1,30=1,71=1,74=-5,82=7/1,2,3;
 4/5=5,16=3,69=1/1;
 5/5=2,7=1000,38=5/2;
 7/30=1/1,2,3,16;
 1/18=20,19=15,26=3/3(-5);
 2/9=110,15=1/2;
 6/7=2,8=2,9=2,10=2,19=2,28=1/1;
 99/9=1/99;
 -------------------
 Title Card Required
 -------------------
 Structure from the checkpoint file:  "Mo20S47_Mozz_Mo_SH_2.chk"
 Charge =  0 Multiplicity = 1
 Redundant internal coordinates found in file.  (old form).
 Mo,0,0.264244608,1.1264927688,12.5431652675
 S,0,2.254612348,2.0373228369,13.637698285
 S,0,-0.8249094567,1.770115335,14.6723101192
 S,0,-0.4709936151,0.8530963305,10.2407786772
 S,0,1.8952113629,-0.5732613914,11.9068947215
 Mo,0,-2.0946898919,2.5155160718,10.9259831063
 S,0,-2.8921428483,2.2997720264,8.6238699389
 S,0,-0.1446663617,3.4608735597,12.0260688492
 Mo,0,0.9124974145,2.8225520333,9.9271250739
 S,0,0.1193266948,2.6032340008,7.6158942805
 S,0,2.5303557409,1.1112348405,9.2725556353
 Mo,0,3.3224291472,1.3663655124,11.5533063898
 Mo,0,-1.5015702251,4.2678377013,8.3084688174
 S,0,5.3970732078,2.3014858985,12.7134999307
 S,0,2.924741219,3.698671877,11.0126298553
 S,0,-2.5277222268,4.8718294129,10.4249560353
 S,0,1.0754509231,6.9736780189,6.808193194
 Mo,0,-4.4953180814,3.894516782,9.4604241496
 S,0,-5.8461278591,1.8606815281,9.6731645293
 S,0,-5.5974508883,4.4549909035,11.4185131632
 Mo,0,2.4975262735,-0.2876862674,14.2273620366
 S,0,4.7510053699,-0.0247396022,15.322199771
 S,0,1.5685679704,0.3507938811,16.2689869944
 Mo,0,1.5388452266,4.5340253456,7.3341180698
 S,0,0.8687416502,4.5008598401,4.9267403856
 S,0,0.4851528584,5.172424104,9.4085973017
 Mo,0,3.9691410614,3.032506581,8.9244936704
 S,0,3.1070530057,2.7849589346,6.6571927645
 S,0,3.5886633853,5.3714598203,8.388666703
 Mo,0,4.499139487,4.6721981221,6.2692350653
 S,0,6.9284231,5.1351438337,6.6674900525
 S,0,4.3010434695,7.161775964,5.8812825802
 Mo,0,2.415591422,6.4771551071,4.876757869
 S,0,3.8581739095,4.6126010769,4.0634946864
 S,0,-1.2852299852,7.2473673755,4.0705288916
 Mo,0,-0.9321547766,6.0042924871,5.7431879426
 S,0,-2.288756222,4.0027658821,5.8666011559
 S,0,-1.9587597239,6.7592487117,7.7980788007
 Mo,0,-3.7114176636,5.7421016348,6.6066981931
 S,0,-5.6552471695,4.3004472901,7.2833562019
 S,0,-4.522012467,6.9308526002,5.0624284117
 Mo,0,-5.0941372093,2.0717597136,11.8732034386
 S,0,-3.2615299035,3.1013134799,13.0360409352
 S,0,-3.4372320537,0.4752314308,11.2506371966
 Mo,0,-2.756649334,0.7755283181,13.5555660799
 S,0,-1.1277292456,-0.8786246954,12.8836729192
 S,0,-4.0537127979,-1.3135406853,13.8039433493
 Mo,0,-0.4400219033,-0.5359854961,15.1748526149
 S,0,1.1654454562,-2.2299378229,14.5346594655
 S,0,-1.0817344522,-1.2608117218,17.2248206737
 Mo,0,5.763542404,0.0106046836,13.0543152592
 S,0,4.9691602985,-0.4774192619,10.9037653432
 S,0,8.3009199873,1.0465975118,10.8293706112
 Mo,0,6.2693427878,1.5851153452,10.5171088023
 S,0,5.6059811939,1.1781671315,8.1972708047
 S,0,6.0980547701,3.9736482277,10.0021291383
 Mo,0,7.0006020092,3.0471254004,8.0397742335
 S,0,9.0784162783,2.6395824821,8.0598463905
 S,0,2.1817264464,7.7951783514,3.2332331334
 S,0,7.751618424,-0.5814212636,13.5153948991
 S,0,-6.988957203,1.6051193724,13.0648814931
 S,0,-5.3473920042,6.0285230993,8.4606539775
 S,0,4.5036770564,-1.8034475485,14.2148082081
 S,0,6.5352168503,3.3381893087,5.6234787159
 Mo,0,-5.7047509159,0.2609526319,14.4507505933
 S,0,-3.9782938013,1.2615176661,15.7148662327
 S,0,-6.9029511991,-0.8576417285,15.7928457955
 Mo,0,-3.1248469741,-1.0023466938,16.1162401721
 S,0,-3.7867934659,-0.8205496382,18.4289031925
 H,0,-5.0538987228,-0.3979955469,18.2100090309
 S,0,-3.9153476232,-3.2526187242,16.3623538387
 H,0,-3.8411875465,-3.7045720969,15.0910068942
 Recover connectivity data from disk.

 GradGradGradGradGradGradGradGradGradGradGradGradGradGradGradGradGradGrad
 Berny optimization.
 Initialization pass.
                           ----------------------------
                           !    Initial Parameters    !
                           ! (Angstroms and Degrees)  !
 --------------------------                            --------------------------
 ! Name  Definition              Value          Derivative Info.                !
 --------------------------------------------------------------------------------
 ! R1    R(1,2)                  2.4473         estimate D2E/DX2                !
 ! R2    R(1,3)                  2.4766         estimate D2E/DX2                !
 ! R3    R(1,4)                  2.4323         estimate D2E/DX2                !
 ! R4    R(1,5)                  2.4401         estimate D2E/DX2                !
 ! R5    R(1,8)                  2.4257         estimate D2E/DX2                !
 ! R6    R(1,21)                 3.1343         estimate D2E/DX2                !
 ! R7    R(1,46)                 2.4646         estimate D2E/DX2                !
 ! R8    R(2,12)                 2.4362         estimate D2E/DX2                !
 ! R9    R(2,21)                 2.4109         estimate D2E/DX2                !
 ! R10   R(3,45)                 2.4429         estimate D2E/DX2                !
 ! R11   R(3,48)                 2.3914         estimate D2E/DX2                !
 ! R12   R(4,6)                  2.4227         estimate D2E/DX2                !
 ! R13   R(4,9)                  2.4272         estimate D2E/DX2                !
 ! R14   R(5,12)                 2.434          estimate D2E/DX2                !
 ! R15   R(5,21)                 2.4143         estimate D2E/DX2                !
 ! R16   R(6,7)                  2.4459         estimate D2E/DX2                !
 ! R17   R(6,8)                  2.4303         estimate D2E/DX2                !
 ! R18   R(6,16)                 2.4476         estimate D2E/DX2                !
 ! R19   R(6,18)                 3.1325         estimate D2E/DX2                !
 ! R20   R(6,43)                 2.4813         estimate D2E/DX2                !
 ! R21   R(6,44)                 2.4639         estimate D2E/DX2                !
 ! R22   R(7,13)                 2.4303         estimate D2E/DX2                !
 ! R23   R(7,18)                 2.4111         estimate D2E/DX2                !
 ! R24   R(8,9)                  2.4353         estimate D2E/DX2                !
 ! R25   R(9,10)                 2.4534         estimate D2E/DX2                !
 ! R26   R(9,11)                 2.4443         estimate D2E/DX2                !
 ! R27   R(9,15)                 2.4485         estimate D2E/DX2                !
 ! R28   R(9,26)                 2.4441         estimate D2E/DX2                !
 ! R29   R(10,13)                2.4244         estimate D2E/DX2                !
 ! R30   R(10,24)                2.413          estimate D2E/DX2                !
 ! R31   R(11,12)                2.4278         estimate D2E/DX2                !
 ! R32   R(11,27)                2.4254         estimate D2E/DX2                !
 ! R33   R(12,14)                2.5543         estimate D2E/DX2                !
 ! R34   R(12,15)                2.427          estimate D2E/DX2                !
 ! R35   R(12,52)                2.556          estimate D2E/DX2                !
 ! R36   R(13,16)                2.4284         estimate D2E/DX2                !
 ! R37   R(13,26)                2.4445         estimate D2E/DX2                !
 ! R38   R(13,37)                2.5793         estimate D2E/DX2                !
 ! R39   R(13,38)                2.5839         estimate D2E/DX2                !
 ! R40   R(14,51)                2.3449         estimate D2E/DX2                !
 ! R41   R(14,54)                2.4694         estimate D2E/DX2                !
 ! R42   R(15,27)                2.4279         estimate D2E/DX2                !
 ! R43   R(16,18)                2.3994         estimate D2E/DX2                !
 ! R44   R(17,24)                2.5384         estimate D2E/DX2                !
 ! R45   R(17,33)                2.4027         estimate D2E/DX2                !
 ! R46   R(17,36)                2.4707         estimate D2E/DX2                !
 ! R47   R(18,19)                2.4508         estimate D2E/DX2                !
 ! R48   R(18,20)                2.3158         estimate D2E/DX2                !
 ! R49   R(18,40)                2.5            estimate D2E/DX2                !
 ! R50   R(18,42)                3.0826         estimate D2E/DX2                !
 ! R51   R(18,62)                2.5059         estimate D2E/DX2                !
 ! R52   R(19,42)                2.3346         estimate D2E/DX2                !
 ! R53   R(20,42)                2.4779         estimate D2E/DX2                !
 ! R54   R(21,22)                2.5191         estimate D2E/DX2                !
 ! R55   R(21,23)                2.3321         estimate D2E/DX2                !
 ! R56   R(21,48)                3.0965         estimate D2E/DX2                !
 ! R57   R(21,49)                2.3751         estimate D2E/DX2                !
 ! R58   R(21,63)                2.5144         estimate D2E/DX2                !
 ! R59   R(22,51)                2.4839         estimate D2E/DX2                !
 ! R60   R(22,63)                2.1098         estimate D2E/DX2                !
 ! R61   R(23,48)                2.4531         estimate D2E/DX2                !
 ! R62   R(24,25)                2.4991         estimate D2E/DX2                !
 ! R63   R(24,26)                2.4127         estimate D2E/DX2                !
 ! R64   R(24,28)                2.4447         estimate D2E/DX2                !
 ! R65   R(24,29)                2.4526         estimate D2E/DX2                !
 ! R66   R(25,33)                2.5102         estimate D2E/DX2                !
 ! R67   R(25,36)                2.484          estimate D2E/DX2                !
 ! R68   R(27,28)                2.4383         estimate D2E/DX2                !
 ! R69   R(27,29)                2.4295         estimate D2E/DX2                !
 ! R70   R(27,55)                2.5781         estimate D2E/DX2                !
 ! R71   R(27,56)                2.565          estimate D2E/DX2                !
 ! R72   R(28,30)                2.377          estimate D2E/DX2                !
 ! R73   R(29,30)                2.4104         estimate D2E/DX2                !
 ! R74   R(30,31)                2.5049         estimate D2E/DX2                !
 ! R75   R(30,32)                2.5274         estimate D2E/DX2                !
 ! R76   R(30,33)                3.0884         estimate D2E/DX2                !
 ! R77   R(30,34)                2.2978         estimate D2E/DX2                !
 ! R78   R(30,64)                2.5184         estimate D2E/DX2                !
 ! R79   R(31,57)                2.4996         estimate D2E/DX2                !
 ! R80   R(31,64)                2.1151         estimate D2E/DX2                !
 ! R81   R(32,33)                2.2434         estimate D2E/DX2                !
 ! R82   R(33,34)                2.4938         estimate D2E/DX2                !
 ! R83   R(33,59)                2.1197         estimate D2E/DX2                !
 ! R84   R(35,36)                2.1137         estimate D2E/DX2                !
 ! R85   R(36,37)                2.4211         estimate D2E/DX2                !
 ! R86   R(36,38)                2.4179         estimate D2E/DX2                !
 ! R87   R(36,39)                2.9221         estimate D2E/DX2                !
 ! R88   R(37,39)                2.3658         estimate D2E/DX2                !
 ! R89   R(38,39)                2.3507         estimate D2E/DX2                !
 ! R90   R(39,40)                2.5129         estimate D2E/DX2                !
 ! R91   R(39,41)                2.1107         estimate D2E/DX2                !
 ! R92   R(39,62)                2.4891         estimate D2E/DX2                !
 ! R93   R(40,62)                2.1135         estimate D2E/DX2                !
 ! R94   R(42,43)                2.4022         estimate D2E/DX2                !
 ! R95   R(42,44)                2.3837         estimate D2E/DX2                !
 ! R96   R(42,61)                2.2865         estimate D2E/DX2                !
 ! R97   R(43,45)                2.436          estimate D2E/DX2                !
 ! R98   R(44,45)                2.422          estimate D2E/DX2                !
 ! R99   R(45,46)                2.4168         estimate D2E/DX2                !
 ! R100  R(45,47)                2.4715         estimate D2E/DX2                !
 ! R101  R(45,66)                2.5281         estimate D2E/DX2                !
 ! R102  R(46,48)                2.4166         estimate D2E/DX2                !
 ! R103  R(47,65)                2.3714         estimate D2E/DX2                !
 ! R104  R(47,68)                2.5112         estimate D2E/DX2                !
 ! R105  R(48,49)                2.4201         estimate D2E/DX2                !
 ! R106  R(48,50)                2.2671         estimate D2E/DX2                !
 ! R107  R(48,68)                2.8831         estimate D2E/DX2                !
 ! R108  R(50,68)                2.3388         estimate D2E/DX2                !
 ! R109  R(51,52)                2.3439         estimate D2E/DX2                !
 ! R110  R(51,60)                2.125          estimate D2E/DX2                !
 ! R111  R(51,63)                2.495          estimate D2E/DX2                !
 ! R112  R(52,54)                2.4686         estimate D2E/DX2                !
 ! R113  R(53,54)                2.1248         estimate D2E/DX2                !
 ! R114  R(54,55)                2.4469         estimate D2E/DX2                !
 ! R115  R(54,56)                2.4494         estimate D2E/DX2                !
 ! R116  R(54,57)                2.9681         estimate D2E/DX2                !
 ! R117  R(55,57)                2.3373         estimate D2E/DX2                !
 ! R118  R(56,57)                2.3503         estimate D2E/DX2                !
 ! R119  R(57,58)                2.1175         estimate D2E/DX2                !
 ! R120  R(57,64)                2.4779         estimate D2E/DX2                !
 ! R121  R(61,65)                2.3188         estimate D2E/DX2                !
 ! R122  R(65,66)                2.3622         estimate D2E/DX2                !
 ! R123  R(65,67)                2.1185         estimate D2E/DX2                !
 ! R124  R(66,68)                2.4525         estimate D2E/DX2                !
 ! R125  R(68,69)                2.4124         estimate D2E/DX2                !
 ! R126  R(68,71)                2.3977         estimate D2E/DX2                !
 ! R127  R(69,70)                1.3535         estimate D2E/DX2                !
 ! R128  R(71,72)                1.3513         estimate D2E/DX2                !
 ! A1    A(2,1,3)               82.9031         estimate D2E/DX2                !
 ! A2    A(2,1,4)              135.3181         estimate D2E/DX2                !
 ! A3    A(2,1,5)               80.3441         estimate D2E/DX2                !
 ! A4    A(2,1,8)               82.7772         estimate D2E/DX2                !
 ! A5    A(2,1,46)             134.4555         estimate D2E/DX2                !
 ! A6    A(3,1,4)              135.2378         estimate D2E/DX2                !
 ! A7    A(3,1,5)              134.3582         estimate D2E/DX2                !
 ! A8    A(3,1,8)               81.8963         estimate D2E/DX2                !
 ! A9    A(3,1,21)              88.2038         estimate D2E/DX2                !
 ! A10   A(3,1,46)              81.0411         estimate D2E/DX2                !
 ! A11   A(4,1,5)               82.9301         estimate D2E/DX2                !
 ! A12   A(4,1,8)               81.6875         estimate D2E/DX2                !
 ! A13   A(4,1,21)             132.3219         estimate D2E/DX2                !
 ! A14   A(4,1,46)              82.45           estimate D2E/DX2                !
 ! A15   A(5,1,8)              136.6742         estimate D2E/DX2                !
 ! A16   A(5,1,46)              81.1877         estimate D2E/DX2                !
 ! A17   A(8,1,21)             131.98           estimate D2E/DX2                !
 ! A18   A(8,1,46)             135.8239         estimate D2E/DX2                !
 ! A19   A(21,1,46)             87.7713         estimate D2E/DX2                !
 ! A20   A(1,2,12)              82.6065         estimate D2E/DX2                !
 ! A21   A(12,2,21)             84.232          estimate D2E/DX2                !
 ! A22   A(1,3,45)              81.3123         estimate D2E/DX2                !
 ! A23   A(1,3,48)              81.9101         estimate D2E/DX2                !
 ! A24   A(45,3,48)             80.2544         estimate D2E/DX2                !
 ! A25   A(1,4,6)               81.8215         estimate D2E/DX2                !
 ! A26   A(1,4,9)               81.8839         estimate D2E/DX2                !
 ! A27   A(6,4,9)               82.0552         estimate D2E/DX2                !
 ! A28   A(1,5,12)              82.8019         estimate D2E/DX2                !
 ! A29   A(12,5,21)             84.2077         estimate D2E/DX2                !
 ! A30   A(4,6,7)               83.7874         estimate D2E/DX2                !
 ! A31   A(4,6,8)               81.7893         estimate D2E/DX2                !
 ! A32   A(4,6,16)             136.1591         estimate D2E/DX2                !
 ! A33   A(4,6,18)             133.1073         estimate D2E/DX2                !
 ! A34   A(4,6,43)             135.8616         estimate D2E/DX2                !
 ! A35   A(4,6,44)              80.4584         estimate D2E/DX2                !
 ! A36   A(7,6,8)              136.2171         estimate D2E/DX2                !
 ! A37   A(7,6,16)              80.4774         estimate D2E/DX2                !
 ! A38   A(7,6,43)             131.9052         estimate D2E/DX2                !
 ! A39   A(7,6,44)              82.7222         estimate D2E/DX2                !
 ! A40   A(8,6,16)              81.9602         estimate D2E/DX2                !
 ! A41   A(8,6,18)             130.9532         estimate D2E/DX2                !
 ! A42   A(8,6,43)              84.2931         estimate D2E/DX2                !
 ! A43   A(8,6,44)             134.401          estimate D2E/DX2                !
 ! A44   A(16,6,43)             82.1604         estimate D2E/DX2                !
 ! A45   A(16,6,44)            136.6998         estimate D2E/DX2                !
 ! A46   A(18,6,43)             86.1895         estimate D2E/DX2                !
 ! A47   A(18,6,44)             90.493          estimate D2E/DX2                !
 ! A48   A(43,6,44)             80.0499         estimate D2E/DX2                !
 ! A49   A(6,7,13)              82.1931         estimate D2E/DX2                !
 ! A50   A(13,7,18)             83.6766         estimate D2E/DX2                !
 ! A51   A(1,8,6)               81.8023         estimate D2E/DX2                !
 ! A52   A(1,8,9)               81.8542         estimate D2E/DX2                !
 ! A53   A(6,8,9)               81.7334         estimate D2E/DX2                !
 ! A54   A(4,9,8)               81.5971         estimate D2E/DX2                !
 ! A55   A(4,9,10)              82.2369         estimate D2E/DX2                !
 ! A56   A(4,9,11)              81.0129         estimate D2E/DX2                !
 ! A57   A(4,9,15)             134.5474         estimate D2E/DX2                !
 ! A58   A(4,9,26)             135.0645         estimate D2E/DX2                !
 ! A59   A(8,9,10)             134.0305         estimate D2E/DX2                !
 ! A60   A(8,9,11)             134.5598         estimate D2E/DX2                !
 ! A61   A(8,9,15)              83.1576         estimate D2E/DX2                !
 ! A62   A(8,9,26)              81.6593         estimate D2E/DX2                !
 ! A63   A(10,9,11)             84.2102         estimate D2E/DX2                !
 ! A64   A(10,9,15)            135.6711         estimate D2E/DX2                !
 ! A65   A(10,9,26)             80.1862         estimate D2E/DX2                !
 ! A66   A(11,9,15)             79.9376         estimate D2E/DX2                !
 ! A67   A(11,9,26)            137.06           estimate D2E/DX2                !
 ! A68   A(15,9,26)             83.8992         estimate D2E/DX2                !
 ! A69   A(9,10,13)             83.4341         estimate D2E/DX2                !
 ! A70   A(9,10,24)             81.2737         estimate D2E/DX2                !
 ! A71   A(13,10,24)            82.9505         estimate D2E/DX2                !
 ! A72   A(9,11,12)             83.7305         estimate D2E/DX2                !
 ! A73   A(9,11,27)             82.9042         estimate D2E/DX2                !
 ! A74   A(12,11,27)            81.8384         estimate D2E/DX2                !
 ! A75   A(2,12,5)              80.6866         estimate D2E/DX2                !
 ! A76   A(2,12,11)            133.6067         estimate D2E/DX2                !
 ! A77   A(2,12,14)             82.3316         estimate D2E/DX2                !
 ! A78   A(2,12,15)             81.6115         estimate D2E/DX2                !
 ! A79   A(2,12,52)            134.3052         estimate D2E/DX2                !
 ! A80   A(5,12,11)             82.0345         estimate D2E/DX2                !
 ! A81   A(5,12,14)            134.5888         estimate D2E/DX2                !
 ! A82   A(5,12,15)            134.5959         estimate D2E/DX2                !
 ! A83   A(5,12,52)             80.7843         estimate D2E/DX2                !
 ! A84   A(11,12,14)           136.8984         estimate D2E/DX2                !
 ! A85   A(11,12,15)            80.6911         estimate D2E/DX2                !
 ! A86   A(11,12,52)            84.0106         estimate D2E/DX2                !
 ! A87   A(14,12,15)            83.2501         estimate D2E/DX2                !
 ! A88   A(14,12,52)            81.7342         estimate D2E/DX2                !
 ! A89   A(15,12,52)           137.9172         estimate D2E/DX2                !
 ! A90   A(7,13,10)             82.1609         estimate D2E/DX2                !
 ! A91   A(7,13,16)             81.1717         estimate D2E/DX2                !
 ! A92   A(7,13,26)            134.9333         estimate D2E/DX2                !
 ! A93   A(7,13,37)             82.2422         estimate D2E/DX2                !
 ! A94   A(7,13,38)            134.8457         estimate D2E/DX2                !
 ! A95   A(10,13,16)           134.6073         estimate D2E/DX2                !
 ! A96   A(10,13,26)            80.7507         estimate D2E/DX2                !
 ! A97   A(10,13,37)            82.1278         estimate D2E/DX2                !
 ! A98   A(10,13,38)           136.3759         estimate D2E/DX2                !
 ! A99   A(16,13,26)            81.9034         estimate D2E/DX2                !
 ! A100  A(16,13,37)           136.1959         estimate D2E/DX2                !
 ! A101  A(16,13,38)            81.8118         estimate D2E/DX2                !
 ! A102  A(26,13,37)           135.4091         estimate D2E/DX2                !
 ! A103  A(26,13,38)            82.871          estimate D2E/DX2                !
 ! A104  A(37,13,38)            81.8415         estimate D2E/DX2                !
 ! A105  A(12,14,51)            80.5198         estimate D2E/DX2                !
 ! A106  A(12,14,54)            77.0975         estimate D2E/DX2                !
 ! A107  A(51,14,54)            77.9163         estimate D2E/DX2                !
 ! A108  A(9,15,12)             83.6598         estimate D2E/DX2                !
 ! A109  A(9,15,27)             82.7644         estimate D2E/DX2                !
 ! A110  A(12,15,27)            81.8039         estimate D2E/DX2                !
 ! A111  A(6,16,13)             82.1955         estimate D2E/DX2                !
 ! A112  A(13,16,18)            83.9644         estimate D2E/DX2                !
 ! A113  A(24,17,33)            82.3057         estimate D2E/DX2                !
 ! A114  A(24,17,36)            81.9842         estimate D2E/DX2                !
 ! A115  A(33,17,36)            91.4688         estimate D2E/DX2                !
 ! A116  A(6,18,19)             90.943          estimate D2E/DX2                !
 ! A117  A(6,18,20)             94.3404         estimate D2E/DX2                !
 ! A118  A(6,18,40)            146.5622         estimate D2E/DX2                !
 ! A119  A(6,18,42)             61.4694         estimate D2E/DX2                !
 ! A120  A(6,18,62)            145.299          estimate D2E/DX2                !
 ! A121  A(7,18,16)             82.1616         estimate D2E/DX2                !
 ! A122  A(7,18,19)             81.2403         estimate D2E/DX2                !
 ! A123  A(7,18,20)            140.345          estimate D2E/DX2                !
 ! A124  A(7,18,40)             96.532          estimate D2E/DX2                !
 ! A125  A(7,18,42)             90.552          estimate D2E/DX2                !
 ! A126  A(7,18,62)            130.612          estimate D2E/DX2                !
 ! A127  A(16,18,19)           139.0356         estimate D2E/DX2                !
 ! A128  A(16,18,20)            87.237          estimate D2E/DX2                !
 ! A129  A(16,18,40)           131.6379         estimate D2E/DX2                !
 ! A130  A(16,18,42)            94.9052         estimate D2E/DX2                !
 ! A131  A(16,18,62)            95.2988         estimate D2E/DX2                !
 ! A132  A(19,18,20)            82.2493         estimate D2E/DX2                !
 ! A133  A(19,18,40)            87.3985         estimate D2E/DX2                !
 ! A134  A(19,18,62)           123.6367         estimate D2E/DX2                !
 ! A135  A(20,18,40)           118.4381         estimate D2E/DX2                !
 ! A136  A(20,18,62)            88.2471         estimate D2E/DX2                !
 ! A137  A(40,18,42)           133.4318         estimate D2E/DX2                !
 ! A138  A(42,18,62)           138.5702         estimate D2E/DX2                !
 ! A139  A(1,21,22)            145.4697         estimate D2E/DX2                !
 ! A140  A(1,21,23)             93.6155         estimate D2E/DX2                !
 ! A141  A(1,21,48)             61.6183         estimate D2E/DX2                !
 ! A142  A(1,21,49)             92.2274         estimate D2E/DX2                !
 ! A143  A(1,21,63)            146.9085         estimate D2E/DX2                !
 ! A144  A(2,21,5)              81.5966         estimate D2E/DX2                !
 ! A145  A(2,21,22)             95.4956         estimate D2E/DX2                !
 ! A146  A(2,21,23)             84.834          estimate D2E/DX2                !
 ! A147  A(2,21,48)             93.2438         estimate D2E/DX2                !
 ! A148  A(2,21,49)            139.7963         estimate D2E/DX2                !
 ! A149  A(2,21,63)            131.3397         estimate D2E/DX2                !
 ! A150  A(5,21,22)            130.7858         estimate D2E/DX2                !
 ! A151  A(5,21,23)            140.7518         estimate D2E/DX2                !
 ! A152  A(5,21,48)             92.7477         estimate D2E/DX2                !
 ! A153  A(5,21,49)             83.5525         estimate D2E/DX2                !
 ! A154  A(5,21,63)             97.062          estimate D2E/DX2                !
 ! A155  A(22,21,23)            86.9778         estimate D2E/DX2                !
 ! A156  A(22,21,48)           136.386          estimate D2E/DX2                !
 ! A157  A(22,21,49)           122.0616         estimate D2E/DX2                !
 ! A158  A(23,21,49)            83.5239         estimate D2E/DX2                !
 ! A159  A(23,21,63)           119.158          estimate D2E/DX2                !
 ! A160  A(48,21,63)           135.2414         estimate D2E/DX2                !
 ! A161  A(49,21,63)            87.4301         estimate D2E/DX2                !
 ! A162  A(21,22,51)            88.2422         estimate D2E/DX2                !
 ! A163  A(10,24,17)           133.3033         estimate D2E/DX2                !
 ! A164  A(10,24,25)            86.7972         estimate D2E/DX2                !
 ! A165  A(10,24,26)            81.628          estimate D2E/DX2                !
 ! A166  A(10,24,28)            80.6318         estimate D2E/DX2                !
 ! A167  A(10,24,29)           135.6179         estimate D2E/DX2                !
 ! A168  A(17,24,25)            76.3624         estimate D2E/DX2                !
 ! A169  A(17,24,26)            81.0316         estimate D2E/DX2                !
 ! A170  A(17,24,28)           138.3619         estimate D2E/DX2                !
 ! A171  A(17,24,29)            85.0372         estimate D2E/DX2                !
 ! A172  A(25,24,26)           135.6147         estimate D2E/DX2                !
 ! A173  A(25,24,28)            84.0177         estimate D2E/DX2                !
 ! A174  A(25,24,29)           130.0029         estimate D2E/DX2                !
 ! A175  A(26,24,28)           135.0331         estimate D2E/DX2                !
 ! A176  A(26,24,29)            84.5465         estimate D2E/DX2                !
 ! A177  A(28,24,29)            80.0506         estimate D2E/DX2                !
 ! A178  A(24,25,33)            80.9961         estimate D2E/DX2                !
 ! A179  A(24,25,36)            82.5158         estimate D2E/DX2                !
 ! A180  A(33,25,36)            88.6702         estimate D2E/DX2                !
 ! A181  A(9,26,13)             83.2116         estimate D2E/DX2                !
 ! A182  A(9,26,24)             81.469          estimate D2E/DX2                !
 ! A183  A(13,26,24)            82.5348         estimate D2E/DX2                !
 ! A184  A(11,27,15)            80.7202         estimate D2E/DX2                !
 ! A185  A(11,27,28)            80.9834         estimate D2E/DX2                !
 ! A186  A(11,27,29)           134.5368         estimate D2E/DX2                !
 ! A187  A(11,27,55)            81.2195         estimate D2E/DX2                !
 ! A188  A(11,27,56)           136.2793         estimate D2E/DX2                !
 ! A189  A(15,27,28)           132.4937         estimate D2E/DX2                !
 ! A190  A(15,27,29)            81.8462         estimate D2E/DX2                !
 ! A191  A(15,27,55)           135.4839         estimate D2E/DX2                !
 ! A192  A(15,27,56)            83.9741         estimate D2E/DX2                !
 ! A193  A(28,27,29)            80.6356         estimate D2E/DX2                !
 ! A194  A(28,27,55)            83.6361         estimate D2E/DX2                !
 ! A195  A(28,27,56)           136.1681         estimate D2E/DX2                !
 ! A196  A(29,27,55)           136.8585         estimate D2E/DX2                !
 ! A197  A(29,27,56)            82.4959         estimate D2E/DX2                !
 ! A198  A(55,27,56)            81.6895         estimate D2E/DX2                !
 ! A199  A(24,28,27)            84.07           estimate D2E/DX2                !
 ! A200  A(24,28,30)            81.5372         estimate D2E/DX2                !
 ! A201  A(27,28,30)            82.1891         estimate D2E/DX2                !
 ! A202  A(24,29,27)            84.0879         estimate D2E/DX2                !
 ! A203  A(24,29,30)            80.7101         estimate D2E/DX2                !
 ! A204  A(27,29,30)            81.6906         estimate D2E/DX2                !
 ! A205  A(28,30,29)            82.2761         estimate D2E/DX2                !
 ! A206  A(28,30,31)           133.5327         estimate D2E/DX2                !
 ! A207  A(28,30,32)           139.5728         estimate D2E/DX2                !
 ! A208  A(28,30,33)            98.1928         estimate D2E/DX2                !
 ! A209  A(28,30,34)            88.4365         estimate D2E/DX2                !
 ! A210  A(28,30,64)            95.4383         estimate D2E/DX2                !
 ! A211  A(29,30,31)            99.9574         estimate D2E/DX2                !
 ! A212  A(29,30,32)            79.607          estimate D2E/DX2                !
 ! A213  A(29,30,33)            88.3997         estimate D2E/DX2                !
 ! A214  A(29,30,34)           138.2655         estimate D2E/DX2                !
 ! A215  A(29,30,64)           133.1987         estimate D2E/DX2                !
 ! A216  A(31,30,32)            85.3175         estimate D2E/DX2                !
 ! A217  A(31,30,33)           128.1672         estimate D2E/DX2                !
 ! A218  A(31,30,34)           115.3379         estimate D2E/DX2                !
 ! A219  A(32,30,34)            81.7399         estimate D2E/DX2                !
 ! A220  A(32,30,64)           123.0789         estimate D2E/DX2                !
 ! A221  A(33,30,64)           137.6813         estimate D2E/DX2                !
 ! A222  A(34,30,64)            88.031          estimate D2E/DX2                !
 ! A223  A(30,31,57)            87.7595         estimate D2E/DX2                !
 ! A224  A(17,33,25)            78.6373         estimate D2E/DX2                !
 ! A225  A(17,33,30)            97.7369         estimate D2E/DX2                !
 ! A226  A(17,33,32)            92.6229         estimate D2E/DX2                !
 ! A227  A(17,33,34)           137.6727         estimate D2E/DX2                !
 ! A228  A(17,33,59)           115.674          estimate D2E/DX2                !
 ! A229  A(25,33,30)            86.9403         estimate D2E/DX2                !
 ! A230  A(25,33,32)           138.527          estimate D2E/DX2                !
 ! A231  A(25,33,34)            76.9564         estimate D2E/DX2                !
 ! A232  A(25,33,59)           115.9128         estimate D2E/DX2                !
 ! A233  A(30,33,59)           141.9461         estimate D2E/DX2                !
 ! A234  A(32,33,34)            83.5706         estimate D2E/DX2                !
 ! A235  A(32,33,59)           104.4868         estimate D2E/DX2                !
 ! A236  A(34,33,59)           106.014          estimate D2E/DX2                !
 ! A237  A(17,36,25)            77.88           estimate D2E/DX2                !
 ! A238  A(17,36,35)           104.2468         estimate D2E/DX2                !
 ! A239  A(17,36,37)           139.2604         estimate D2E/DX2                !
 ! A240  A(17,36,38)            81.73           estimate D2E/DX2                !
 ! A241  A(17,36,39)           132.8956         estimate D2E/DX2                !
 ! A242  A(25,36,35)           102.5303         estimate D2E/DX2                !
 ! A243  A(25,36,37)            85.5626         estimate D2E/DX2                !
 ! A244  A(25,36,38)           140.908          estimate D2E/DX2                !
 ! A245  A(25,36,39)           137.087          estimate D2E/DX2                !
 ! A246  A(35,36,37)           115.6536         estimate D2E/DX2                !
 ! A247  A(35,36,38)           114.707          estimate D2E/DX2                !
 ! A248  A(35,36,39)            97.3392         estimate D2E/DX2                !
 ! A249  A(37,36,38)            88.6763         estimate D2E/DX2                !
 ! A250  A(13,37,36)            78.0117         estimate D2E/DX2                !
 ! A251  A(13,37,39)            79.1526         estimate D2E/DX2                !
 ! A252  A(13,38,36)            77.9768         estimate D2E/DX2                !
 ! A253  A(13,38,39)            79.3286         estimate D2E/DX2                !
 ! A254  A(36,39,40)           150.0859         estimate D2E/DX2                !
 ! A255  A(36,39,41)            95.6544         estimate D2E/DX2                !
 ! A256  A(36,39,62)           146.6062         estimate D2E/DX2                !
 ! A257  A(37,39,38)            91.6225         estimate D2E/DX2                !
 ! A258  A(37,39,40)            97.3319         estimate D2E/DX2                !
 ! A259  A(37,39,41)           114.5906         estimate D2E/DX2                !
 ! A260  A(37,39,62)           135.4668         estimate D2E/DX2                !
 ! A261  A(38,39,40)           133.5122         estimate D2E/DX2                !
 ! A262  A(38,39,41)           114.4219         estimate D2E/DX2                !
 ! A263  A(38,39,62)            93.5981         estimate D2E/DX2                !
 ! A264  A(40,39,41)           102.8883         estimate D2E/DX2                !
 ! A265  A(41,39,62)           103.1634         estimate D2E/DX2                !
 ! A266  A(18,40,39)            88.2088         estimate D2E/DX2                !
 ! A267  A(18,42,43)            88.6973         estimate D2E/DX2                !
 ! A268  A(18,42,44)            93.2438         estimate D2E/DX2                !
 ! A269  A(18,42,61)           133.5968         estimate D2E/DX2                !
 ! A270  A(19,42,20)            81.2923         estimate D2E/DX2                !
 ! A271  A(19,42,43)           137.7875         estimate D2E/DX2                !
 ! A272  A(19,42,44)            85.2513         estimate D2E/DX2                !
 ! A273  A(19,42,61)           101.874          estimate D2E/DX2                !
 ! A274  A(20,42,43)            80.3035         estimate D2E/DX2                !
 ! A275  A(20,42,44)           137.5159         estimate D2E/DX2                !
 ! A276  A(20,42,61)            97.0998         estimate D2E/DX2                !
 ! A277  A(43,42,44)            83.2926         estimate D2E/DX2                !
 ! A278  A(43,42,61)           117.8641         estimate D2E/DX2                !
 ! A279  A(44,42,61)           125.1319         estimate D2E/DX2                !
 ! A280  A(6,43,42)             81.1367         estimate D2E/DX2                !
 ! A281  A(6,43,45)             81.8651         estimate D2E/DX2                !
 ! A282  A(42,43,45)            81.498          estimate D2E/DX2                !
 ! A283  A(6,44,42)             81.8677         estimate D2E/DX2                !
 ! A284  A(6,44,45)             82.5079         estimate D2E/DX2                !
 ! A285  A(42,44,45)            82.1677         estimate D2E/DX2                !
 ! A286  A(3,45,43)             82.6848         estimate D2E/DX2                !
 ! A287  A(3,45,44)            135.0493         estimate D2E/DX2                !
 ! A288  A(3,45,46)             82.6911         estimate D2E/DX2                !
 ! A289  A(3,45,47)            135.4944         estimate D2E/DX2                !
 ! A290  A(3,45,66)             85.0319         estimate D2E/DX2                !
 ! A291  A(43,45,44)            81.7887         estimate D2E/DX2                !
 ! A292  A(43,45,46)           137.2115         estimate D2E/DX2                !
 ! A293  A(43,45,47)           136.0285         estimate D2E/DX2                !
 ! A294  A(43,45,66)            84.1725         estimate D2E/DX2                !
 ! A295  A(44,45,46)            80.7909         estimate D2E/DX2                !
 ! A296  A(44,45,47)            80.9884         estimate D2E/DX2                !
 ! A297  A(44,45,66)           134.4984         estimate D2E/DX2                !
 ! A298  A(46,45,47)            78.6459         estimate D2E/DX2                !
 ! A299  A(46,45,66)           134.0049         estimate D2E/DX2                !
 ! A300  A(47,45,66)            79.8078         estimate D2E/DX2                !
 ! A301  A(1,46,45)             82.0816         estimate D2E/DX2                !
 ! A302  A(1,46,48)             81.6574         estimate D2E/DX2                !
 ! A303  A(45,46,48)            80.2808         estimate D2E/DX2                !
 ! A304  A(45,47,65)            80.304          estimate D2E/DX2                !
 ! A305  A(45,47,68)            78.0927         estimate D2E/DX2                !
 ! A306  A(65,47,68)            85.647          estimate D2E/DX2                !
 ! A307  A(3,48,21)             90.6335         estimate D2E/DX2                !
 ! A308  A(3,48,23)             82.9298         estimate D2E/DX2                !
 ! A309  A(3,48,46)             83.7819         estimate D2E/DX2                !
 ! A310  A(3,48,49)            136.566          estimate D2E/DX2                !
 ! A311  A(3,48,50)            116.9224         estimate D2E/DX2                !
 ! A312  A(3,48,68)             94.2855         estimate D2E/DX2                !
 ! A313  A(21,48,46)            89.4976         estimate D2E/DX2                !
 ! A314  A(21,48,50)           124.8093         estimate D2E/DX2                !
 ! A315  A(23,48,46)           135.0019         estimate D2E/DX2                !
 ! A316  A(23,48,49)            80.0864         estimate D2E/DX2                !
 ! A317  A(23,48,50)            86.7918         estimate D2E/DX2                !
 ! A318  A(23,48,68)           132.4793         estimate D2E/DX2                !
 ! A319  A(46,48,49)            80.7198         estimate D2E/DX2                !
 ! A320  A(46,48,50)           137.0069         estimate D2E/DX2                !
 ! A321  A(46,48,68)            91.2396         estimate D2E/DX2                !
 ! A322  A(49,48,50)           101.7236         estimate D2E/DX2                !
 ! A323  A(49,48,68)           126.2231         estimate D2E/DX2                !
 ! A324  A(14,51,22)            94.7551         estimate D2E/DX2                !
 ! A325  A(14,51,52)            90.9794         estimate D2E/DX2                !
 ! A326  A(14,51,60)           116.7395         estimate D2E/DX2                !
 ! A327  A(14,51,63)           134.3487         estimate D2E/DX2                !
 ! A328  A(22,51,52)           134.1536         estimate D2E/DX2                !
 ! A329  A(22,51,60)           100.3291         estimate D2E/DX2                !
 ! A330  A(52,51,60)           117.2675         estimate D2E/DX2                !
 ! A331  A(52,51,63)            95.9832         estimate D2E/DX2                !
 ! A332  A(60,51,63)            99.7261         estimate D2E/DX2                !
 ! A333  A(12,52,51)            80.5027         estimate D2E/DX2                !
 ! A334  A(12,52,54)            77.0813         estimate D2E/DX2                !
 ! A335  A(51,52,54)            77.9509         estimate D2E/DX2                !
 ! A336  A(14,54,52)            85.2405         estimate D2E/DX2                !
 ! A337  A(14,54,53)           106.2923         estimate D2E/DX2                !
 ! A338  A(14,54,55)           142.724          estimate D2E/DX2                !
 ! A339  A(14,54,56)            83.0741         estimate D2E/DX2                !
 ! A340  A(14,54,57)           133.3539         estimate D2E/DX2                !
 ! A341  A(52,54,53)           105.5932         estimate D2E/DX2                !
 ! A342  A(52,54,55)            82.3429         estimate D2E/DX2                !
 ! A343  A(52,54,56)           144.1778         estimate D2E/DX2                !
 ! A344  A(52,54,57)           132.2254         estimate D2E/DX2                !
 ! A345  A(53,54,55)           110.8784         estimate D2E/DX2                !
 ! A346  A(53,54,56)           110.1759         estimate D2E/DX2                !
 ! A347  A(53,54,57)            90.684          estimate D2E/DX2                !
 ! A348  A(55,54,56)            86.7835         estimate D2E/DX2                !
 ! A349  A(27,55,54)            77.5887         estimate D2E/DX2                !
 ! A350  A(27,55,57)            79.7873         estimate D2E/DX2                !
 ! A351  A(27,56,54)            77.7942         estimate D2E/DX2                !
 ! A352  A(27,56,57)            79.8224         estimate D2E/DX2                !
 ! A353  A(31,57,54)           149.6071         estimate D2E/DX2                !
 ! A354  A(31,57,55)           133.4502         estimate D2E/DX2                !
 ! A355  A(31,57,56)            96.776          estimate D2E/DX2                !
 ! A356  A(31,57,58)           101.2044         estimate D2E/DX2                !
 ! A357  A(54,57,58)            97.9924         estimate D2E/DX2                !
 ! A358  A(54,57,64)           145.6406         estimate D2E/DX2                !
 ! A359  A(55,57,56)            91.7093         estimate D2E/DX2                !
 ! A360  A(55,57,58)           115.529          estimate D2E/DX2                !
 ! A361  A(55,57,64)            92.7267         estimate D2E/DX2                !
 ! A362  A(56,57,58)           116.409          estimate D2E/DX2                !
 ! A363  A(56,57,64)           134.0882         estimate D2E/DX2                !
 ! A364  A(58,57,64)           102.4829         estimate D2E/DX2                !
 ! A365  A(42,61,65)            88.3292         estimate D2E/DX2                !
 ! A366  A(18,62,39)            88.6067         estimate D2E/DX2                !
 ! A367  A(21,63,51)            88.1034         estimate D2E/DX2                !
 ! A368  A(30,64,57)            87.9383         estimate D2E/DX2                !
 ! A369  A(47,65,61)           127.4074         estimate D2E/DX2                !
 ! A370  A(47,65,66)            85.316          estimate D2E/DX2                !
 ! A371  A(47,65,67)           102.4742         estimate D2E/DX2                !
 ! A372  A(61,65,66)           118.6261         estimate D2E/DX2                !
 ! A373  A(61,65,67)           111.8066         estimate D2E/DX2                !
 ! A374  A(66,65,67)           107.3378         estimate D2E/DX2                !
 ! A375  A(45,66,65)            79.3195         estimate D2E/DX2                !
 ! A376  A(45,66,68)            78.122          estimate D2E/DX2                !
 ! A377  A(65,66,68)            87.1868         estimate D2E/DX2                !
 ! A378  A(47,68,48)            93.6602         estimate D2E/DX2                !
 ! A379  A(47,68,50)           138.2333         estimate D2E/DX2                !
 ! A380  A(47,68,66)            80.5014         estimate D2E/DX2                !
 ! A381  A(47,68,69)           142.2376         estimate D2E/DX2                !
 ! A382  A(47,68,71)            81.7362         estimate D2E/DX2                !
 ! A383  A(48,68,66)            96.9677         estimate D2E/DX2                !
 ! A384  A(48,68,69)           123.8047         estimate D2E/DX2                !
 ! A385  A(48,68,71)           119.4947         estimate D2E/DX2                !
 ! A386  A(50,68,66)           118.9198         estimate D2E/DX2                !
 ! A387  A(50,68,69)            78.0904         estimate D2E/DX2                !
 ! A388  A(50,68,71)            97.7954         estimate D2E/DX2                !
 ! A389  A(66,68,69)            89.5327         estimate D2E/DX2                !
 ! A390  A(66,68,71)           140.2099         estimate D2E/DX2                !
 ! A391  A(69,68,71)            83.2153         estimate D2E/DX2                !
 ! A392  A(68,69,70)            97.2019         estimate D2E/DX2                !
 ! A393  A(68,71,72)           101.4913         estimate D2E/DX2                !
 ! A394  L(21,48,68,3,-1)      184.919          estimate D2E/DX2                !
 ! A395  L(21,48,68,3,-2)      180.2081         estimate D2E/DX2                !
 ! D1    D(3,1,2,12)           179.1175         estimate D2E/DX2                !
 ! D2    D(4,1,2,12)           -27.799          estimate D2E/DX2                !
 ! D3    D(5,1,2,12)            41.7386         estimate D2E/DX2                !
 ! D4    D(8,1,2,12)           -98.2025         estimate D2E/DX2                !
 ! D5    D(46,1,2,12)          109.1169         estimate D2E/DX2                !
 ! D6    D(2,1,3,45)          -178.1192         estimate D2E/DX2                !
 ! D7    D(2,1,3,48)           -96.818          estimate D2E/DX2                !
 ! D8    D(4,1,3,45)            28.7562         estimate D2E/DX2                !
 ! D9    D(4,1,3,48)           110.0574         estimate D2E/DX2                !
 ! D10   D(5,1,3,45)          -109.1058         estimate D2E/DX2                !
 ! D11   D(5,1,3,48)           -27.8046         estimate D2E/DX2                !
 ! D12   D(8,1,3,45)            98.2105         estimate D2E/DX2                !
 ! D13   D(8,1,3,48)           179.5116         estimate D2E/DX2                !
 ! D14   D(21,1,3,45)         -128.9135         estimate D2E/DX2                !
 ! D15   D(21,1,3,48)          -47.6123         estimate D2E/DX2                !
 ! D16   D(46,1,3,45)          -40.8874         estimate D2E/DX2                !
 ! D17   D(46,1,3,48)           40.4138         estimate D2E/DX2                !
 ! D18   D(2,1,4,6)           -112.3208         estimate D2E/DX2                !
 ! D19   D(2,1,4,9)            -29.2451         estimate D2E/DX2                !
 ! D20   D(3,1,4,6)             28.0399         estimate D2E/DX2                !
 ! D21   D(3,1,4,9)            111.1157         estimate D2E/DX2                !
 ! D22   D(5,1,4,6)            179.1341         estimate D2E/DX2                !
 ! D23   D(5,1,4,9)            -97.7901         estimate D2E/DX2                !
 ! D24   D(8,1,4,6)            -41.4949         estimate D2E/DX2                !
 ! D25   D(8,1,4,9)             41.5809         estimate D2E/DX2                !
 ! D26   D(21,1,4,6)           177.1344         estimate D2E/DX2                !
 ! D27   D(21,1,4,9)           -99.7898         estimate D2E/DX2                !
 ! D28   D(46,1,4,6)            97.1405         estimate D2E/DX2                !
 ! D29   D(46,1,4,9)          -179.7837         estimate D2E/DX2                !
 ! D30   D(2,1,5,12)           -41.7636         estimate D2E/DX2                !
 ! D31   D(3,1,5,12)          -111.7859         estimate D2E/DX2                !
 ! D32   D(4,1,5,12)            96.6423         estimate D2E/DX2                !
 ! D33   D(8,1,5,12)            26.7514         estimate D2E/DX2                !
 ! D34   D(46,1,5,12)         -179.947          estimate D2E/DX2                !
 ! D35   D(2,1,8,6)            179.3123         estimate D2E/DX2                !
 ! D36   D(2,1,8,9)             96.558          estimate D2E/DX2                !
 ! D37   D(3,1,8,6)            -96.8732         estimate D2E/DX2                !
 ! D38   D(3,1,8,9)           -179.6275         estimate D2E/DX2                !
 ! D39   D(4,1,8,6)             41.3388         estimate D2E/DX2                !
 ! D40   D(4,1,8,9)            -41.4155         estimate D2E/DX2                !
 ! D41   D(5,1,8,6)            111.6939         estimate D2E/DX2                !
 ! D42   D(5,1,8,9)             28.9396         estimate D2E/DX2                !
 ! D43   D(21,1,8,6)          -177.0444         estimate D2E/DX2                !
 ! D44   D(21,1,8,9)           100.2013         estimate D2E/DX2                !
 ! D45   D(46,1,8,6)           -28.7284         estimate D2E/DX2                !
 ! D46   D(46,1,8,9)          -111.4827         estimate D2E/DX2                !
 ! D47   D(3,1,21,22)          -91.8674         estimate D2E/DX2                !
 ! D48   D(3,1,21,23)           -1.9456         estimate D2E/DX2                !
 ! D49   D(3,1,21,48)           39.9324         estimate D2E/DX2                !
 ! D50   D(3,1,21,49)           81.7021         estimate D2E/DX2                !
 ! D51   D(3,1,21,63)          170.4127         estimate D2E/DX2                !
 ! D52   D(4,1,21,22)          109.3467         estimate D2E/DX2                !
 ! D53   D(4,1,21,23)         -160.7315         estimate D2E/DX2                !
 ! D54   D(4,1,21,48)         -118.8535         estimate D2E/DX2                !
 ! D55   D(4,1,21,49)          -77.0838         estimate D2E/DX2                !
 ! D56   D(4,1,21,63)           11.6268         estimate D2E/DX2                !
 ! D57   D(8,1,21,22)          -14.4553         estimate D2E/DX2                !
 ! D58   D(8,1,21,23)           75.4664         estimate D2E/DX2                !
 ! D59   D(8,1,21,48)          117.3445         estimate D2E/DX2                !
 ! D60   D(8,1,21,49)          159.1142         estimate D2E/DX2                !
 ! D61   D(8,1,21,63)         -112.1752         estimate D2E/DX2                !
 ! D62   D(46,1,21,22)        -172.968          estimate D2E/DX2                !
 ! D63   D(46,1,21,23)         -83.0462         estimate D2E/DX2                !
 ! D64   D(46,1,21,48)         -41.1682         estimate D2E/DX2                !
 ! D65   D(46,1,21,49)           0.6015         estimate D2E/DX2                !
 ! D66   D(46,1,21,63)          89.3121         estimate D2E/DX2                !
 ! D67   D(2,1,46,45)          112.0636         estimate D2E/DX2                !
 ! D68   D(2,1,46,48)           30.799          estimate D2E/DX2                !
 ! D69   D(3,1,46,45)           41.3267         estimate D2E/DX2                !
 ! D70   D(3,1,46,48)          -39.9379         estimate D2E/DX2                !
 ! D71   D(4,1,46,45)          -96.9171         estimate D2E/DX2                !
 ! D72   D(4,1,46,48)         -178.1817         estimate D2E/DX2                !
 ! D73   D(5,1,46,45)          179.1153         estimate D2E/DX2                !
 ! D74   D(5,1,46,48)           97.8508         estimate D2E/DX2                !
 ! D75   D(8,1,46,45)          -27.1406         estimate D2E/DX2                !
 ! D76   D(8,1,46,48)         -108.4052         estimate D2E/DX2                !
 ! D77   D(21,1,46,45)         129.8586         estimate D2E/DX2                !
 ! D78   D(21,1,46,48)          48.594          estimate D2E/DX2                !
 ! D79   D(1,2,12,5)           -41.8165         estimate D2E/DX2                !
 ! D80   D(1,2,12,11)           27.6874         estimate D2E/DX2                !
 ! D81   D(1,2,12,14)         -179.5387         estimate D2E/DX2                !
 ! D82   D(1,2,12,15)           96.2018         estimate D2E/DX2                !
 ! D83   D(1,2,12,52)         -109.058          estimate D2E/DX2                !
 ! D84   D(21,2,12,5)           39.1654         estimate D2E/DX2                !
 ! D85   D(21,2,12,11)         108.6693         estimate D2E/DX2                !
 ! D86   D(21,2,12,14)         -98.5568         estimate D2E/DX2                !
 ! D87   D(21,2,12,15)         177.1837         estimate D2E/DX2                !
 ! D88   D(21,2,12,52)         -28.0761         estimate D2E/DX2                !
 ! D89   D(12,2,21,5)          -39.4293         estimate D2E/DX2                !
 ! D90   D(12,2,21,22)          91.0489         estimate D2E/DX2                !
 ! D91   D(12,2,21,23)         177.5011         estimate D2E/DX2                !
 ! D92   D(12,2,21,48)        -131.7311         estimate D2E/DX2                !
 ! D93   D(12,2,21,49)        -108.903          estimate D2E/DX2                !
 ! D94   D(12,2,21,63)          52.6087         estimate D2E/DX2                !
 ! D95   D(1,3,45,43)          -98.0136         estimate D2E/DX2                !
 ! D96   D(1,3,45,44)          -27.4286         estimate D2E/DX2                !
 ! D97   D(1,3,45,46)           41.6639         estimate D2E/DX2                !
 ! D98   D(1,3,45,47)          107.2298         estimate D2E/DX2                !
 ! D99   D(1,3,45,66)          177.2417         estimate D2E/DX2                !
 ! D100  D(48,3,45,43)         178.7747         estimate D2E/DX2                !
 ! D101  D(48,3,45,44)        -110.6403         estimate D2E/DX2                !
 ! D102  D(48,3,45,46)         -41.5478         estimate D2E/DX2                !
 ! D103  D(48,3,45,47)          24.0181         estimate D2E/DX2                !
 ! D104  D(48,3,45,66)          94.03           estimate D2E/DX2                !
 ! D105  D(1,3,48,21)           48.3561         estimate D2E/DX2                !
 ! D106  D(1,3,48,23)           95.8403         estimate D2E/DX2                !
 ! D107  D(1,3,48,46)          -41.0694         estimate D2E/DX2                !
 ! D108  D(1,3,48,49)           28.3805         estimate D2E/DX2                !
 ! D109  D(1,3,48,50)          178.5884         estimate D2E/DX2                !
 ! D110  D(1,3,48,68)         -131.852          estimate D2E/DX2                !
 ! D111  D(45,3,48,21)         130.8641         estimate D2E/DX2                !
 ! D112  D(45,3,48,23)         178.3483         estimate D2E/DX2                !
 ! D113  D(45,3,48,46)          41.4386         estimate D2E/DX2                !
 ! D114  D(45,3,48,49)         110.8885         estimate D2E/DX2                !
 ! D115  D(45,3,48,50)         -98.9036         estimate D2E/DX2                !
 ! D116  D(45,3,48,68)         -49.344          estimate D2E/DX2                !
 ! D117  D(1,4,6,7)            179.9287         estimate D2E/DX2                !
 ! D118  D(1,4,6,8)             41.3851         estimate D2E/DX2                !
 ! D119  D(1,4,6,16)           110.6368         estimate D2E/DX2                !
 ! D120  D(1,4,6,18)          -178.08           estimate D2E/DX2                !
 ! D121  D(1,4,6,43)           -31.579          estimate D2E/DX2                !
 ! D122  D(1,4,6,44)           -96.4395         estimate D2E/DX2                !
 ! D123  D(9,4,6,7)             97.0492         estimate D2E/DX2                !
 ! D124  D(9,4,6,8)            -41.4945         estimate D2E/DX2                !
 ! D125  D(9,4,6,16)            27.7572         estimate D2E/DX2                !
 ! D126  D(9,4,6,18)            99.0404         estimate D2E/DX2                !
 ! D127  D(9,4,6,43)          -114.4586         estimate D2E/DX2                !
 ! D128  D(9,4,6,44)          -179.3191         estimate D2E/DX2                !
 ! D129  D(1,4,9,8)            -41.3924         estimate D2E/DX2                !
 ! D130  D(1,4,9,10)          -178.2135         estimate D2E/DX2                !
 ! D131  D(1,4,9,11)            96.4623         estimate D2E/DX2                !
 ! D132  D(1,4,9,15)            30.2837         estimate D2E/DX2                !
 ! D133  D(1,4,9,26)          -110.5587         estimate D2E/DX2                !
 ! D134  D(6,4,9,8)             41.4161         estimate D2E/DX2                !
 ! D135  D(6,4,9,10)           -95.405          estimate D2E/DX2                !
 ! D136  D(6,4,9,11)           179.2708         estimate D2E/DX2                !
 ! D137  D(6,4,9,15)           113.0922         estimate D2E/DX2                !
 ! D138  D(6,4,9,26)           -27.7503         estimate D2E/DX2                !
 ! D139  D(1,5,12,2)            41.9451         estimate D2E/DX2                !
 ! D140  D(1,5,12,11)          -94.8302         estimate D2E/DX2                !
 ! D141  D(1,5,12,14)          111.3638         estimate D2E/DX2                !
 ! D142  D(1,5,12,15)          -26.3819         estimate D2E/DX2                !
 ! D143  D(1,5,12,52)          179.9904         estimate D2E/DX2                !
 ! D144  D(21,5,12,2)          -39.1013         estimate D2E/DX2                !
 ! D145  D(21,5,12,11)        -175.8766         estimate D2E/DX2                !
 ! D146  D(21,5,12,14)          30.3175         estimate D2E/DX2                !
 ! D147  D(21,5,12,15)        -107.4283         estimate D2E/DX2                !
 ! D148  D(21,5,12,52)          98.944          estimate D2E/DX2                !
 ! D149  D(12,5,21,2)           39.475          estimate D2E/DX2                !
 ! D150  D(12,5,21,22)         -50.5483         estimate D2E/DX2                !
 ! D151  D(12,5,21,23)         110.5286         estimate D2E/DX2                !
 ! D152  D(12,5,21,48)         132.351          estimate D2E/DX2                !
 ! D153  D(12,5,21,49)        -177.997          estimate D2E/DX2                !
 ! D154  D(12,5,21,63)         -91.4063         estimate D2E/DX2                !
 ! D155  D(4,6,7,13)           -97.0446         estimate D2E/DX2                !
 ! D156  D(8,6,7,13)           -25.7802         estimate D2E/DX2                !
 ! D157  D(16,6,7,13)           41.8869         estimate D2E/DX2                !
 ! D158  D(43,6,7,13)          112.2308         estimate D2E/DX2                !
 ! D159  D(44,6,7,13)         -178.1745         estimate D2E/DX2                !
 ! D160  D(4,6,8,1)            -41.5264         estimate D2E/DX2                !
 ! D161  D(4,6,8,9)             41.3662         estimate D2E/DX2                !
 ! D162  D(7,6,8,1)           -113.553          estimate D2E/DX2                !
 ! D163  D(7,6,8,9)            -30.6603         estimate D2E/DX2                !
 ! D164  D(16,6,8,1)           179.3301         estimate D2E/DX2                !
 ! D165  D(16,6,8,9)           -97.7773         estimate D2E/DX2                !
 ! D166  D(18,6,8,1)           176.3838         estimate D2E/DX2                !
 ! D167  D(18,6,8,9)          -100.7235         estimate D2E/DX2                !
 ! D168  D(43,6,8,1)            96.4718         estimate D2E/DX2                !
 ! D169  D(43,6,8,9)           179.3645         estimate D2E/DX2                !
 ! D170  D(44,6,8,1)            26.4047         estimate D2E/DX2                !
 ! D171  D(44,6,8,9)           109.2974         estimate D2E/DX2                !
 ! D172  D(4,6,16,13)           28.6169         estimate D2E/DX2                !
 ! D173  D(7,6,16,13)          -41.9264         estimate D2E/DX2                !
 ! D174  D(8,6,16,13)           97.8043         estimate D2E/DX2                !
 ! D175  D(43,6,16,13)        -176.8949         estimate D2E/DX2                !
 ! D176  D(44,6,16,13)        -110.5002         estimate D2E/DX2                !
 ! D177  D(4,6,18,19)           75.178          estimate D2E/DX2                !
 ! D178  D(4,6,18,20)          157.476          estimate D2E/DX2                !
 ! D179  D(4,6,18,40)          -11.5283         estimate D2E/DX2                !
 ! D180  D(4,6,18,42)          115.1124         estimate D2E/DX2                !
 ! D181  D(4,6,18,62)         -109.3297         estimate D2E/DX2                !
 ! D182  D(8,6,18,19)         -161.2267         estimate D2E/DX2                !
 ! D183  D(8,6,18,20)          -78.9287         estimate D2E/DX2                !
 ! D184  D(8,6,18,40)          112.0671         estimate D2E/DX2                !
 ! D185  D(8,6,18,42)         -121.2923         estimate D2E/DX2                !
 ! D186  D(8,6,18,62)           14.2656         estimate D2E/DX2                !
 ! D187  D(43,6,18,19)         -82.1655         estimate D2E/DX2                !
 ! D188  D(43,6,18,20)           0.1326         estimate D2E/DX2                !
 ! D189  D(43,6,18,40)        -168.8717         estimate D2E/DX2                !
 ! D190  D(43,6,18,42)         -42.231          estimate D2E/DX2                !
 ! D191  D(43,6,18,62)          93.3268         estimate D2E/DX2                !
 ! D192  D(44,6,18,19)          -2.1715         estimate D2E/DX2                !
 ! D193  D(44,6,18,20)          80.1265         estimate D2E/DX2                !
 ! D194  D(44,6,18,40)         -88.8778         estimate D2E/DX2                !
 ! D195  D(44,6,18,42)          37.7629         estimate D2E/DX2                !
 ! D196  D(44,6,18,62)         173.3208         estimate D2E/DX2                !
 ! D197  D(4,6,43,42)         -106.1042         estimate D2E/DX2                !
 ! D198  D(4,6,43,45)          -23.508          estimate D2E/DX2                !
 ! D199  D(7,6,43,42)           29.6228         estimate D2E/DX2                !
 ! D200  D(7,6,43,45)          112.219          estimate D2E/DX2                !
 ! D201  D(8,6,43,42)         -178.1002         estimate D2E/DX2                !
 ! D202  D(8,6,43,45)          -95.504          estimate D2E/DX2                !
 ! D203  D(16,6,43,42)          99.261          estimate D2E/DX2                !
 ! D204  D(16,6,43,45)        -178.1428         estimate D2E/DX2                !
 ! D205  D(18,6,43,42)          50.0775         estimate D2E/DX2                !
 ! D206  D(18,6,43,45)         132.6737         estimate D2E/DX2                !
 ! D207  D(44,6,43,42)         -41.0937         estimate D2E/DX2                !
 ! D208  D(44,6,43,45)          41.5025         estimate D2E/DX2                !
 ! D209  D(4,6,44,42)         -178.4085         estimate D2E/DX2                !
 ! D210  D(4,6,44,45)           98.4865         estimate D2E/DX2                !
 ! D211  D(7,6,44,42)          -93.5239         estimate D2E/DX2                !
 ! D212  D(7,6,44,45)         -176.6288         estimate D2E/DX2                !
 ! D213  D(8,6,44,42)          113.1409         estimate D2E/DX2                !
 ! D214  D(8,6,44,45)           30.036          estimate D2E/DX2                !
 ! D215  D(16,6,44,42)         -25.7773         estimate D2E/DX2                !
 ! D216  D(16,6,44,45)        -108.8822         estimate D2E/DX2                !
 ! D217  D(18,6,44,42)         -44.657          estimate D2E/DX2                !
 ! D218  D(18,6,44,45)        -127.7619         estimate D2E/DX2                !
 ! D219  D(43,6,44,42)          41.3874         estimate D2E/DX2                !
 ! D220  D(43,6,44,45)         -41.7175         estimate D2E/DX2                !
 ! D221  D(6,7,13,10)           95.4332         estimate D2E/DX2                !
 ! D222  D(6,7,13,16)          -42.1918         estimate D2E/DX2                !
 ! D223  D(6,7,13,26)           26.9357         estimate D2E/DX2                !
 ! D224  D(6,7,13,37)          178.4963         estimate D2E/DX2                !
 ! D225  D(6,7,13,38)         -111.2287         estimate D2E/DX2                !
 ! D226  D(18,7,13,10)         176.485          estimate D2E/DX2                !
 ! D227  D(18,7,13,16)          38.8599         estimate D2E/DX2                !
 ! D228  D(18,7,13,26)         107.9875         estimate D2E/DX2                !
 ! D229  D(18,7,13,37)        -100.4519         estimate D2E/DX2                !
 ! D230  D(18,7,13,38)         -30.1769         estimate D2E/DX2                !
 ! D231  D(13,7,18,16)         -39.3028         estimate D2E/DX2                !
 ! D232  D(13,7,18,19)         178.2823         estimate D2E/DX2                !
 ! D233  D(13,7,18,20)        -115.2785         estimate D2E/DX2                !
 ! D234  D(13,7,18,40)          91.9442         estimate D2E/DX2                !
 ! D235  D(13,7,18,42)        -134.1784         estimate D2E/DX2                !
 ! D236  D(13,7,18,62)          50.9696         estimate D2E/DX2                !
 ! D237  D(1,8,9,4)             41.535          estimate D2E/DX2                !
 ! D238  D(1,8,9,10)           112.1012         estimate D2E/DX2                !
 ! D239  D(1,8,9,11)           -26.929          estimate D2E/DX2                !
 ! D240  D(1,8,9,15)           -95.5129         estimate D2E/DX2                !
 ! D241  D(1,8,9,26)           179.6848         estimate D2E/DX2                !
 ! D242  D(6,8,9,4)            -41.2982         estimate D2E/DX2                !
 ! D243  D(6,8,9,10)            29.268          estimate D2E/DX2                !
 ! D244  D(6,8,9,11)          -109.7622         estimate D2E/DX2                !
 ! D245  D(6,8,9,15)          -178.3461         estimate D2E/DX2                !
 ! D246  D(6,8,9,26)            96.8515         estimate D2E/DX2                !
 ! D247  D(4,9,10,13)           97.2177         estimate D2E/DX2                !
 ! D248  D(4,9,10,24)         -178.943          estimate D2E/DX2                !
 ! D249  D(8,9,10,13)           26.9072         estimate D2E/DX2                !
 ! D250  D(8,9,10,24)          110.7466         estimate D2E/DX2                !
 ! D251  D(11,9,10,13)         178.9011         estimate D2E/DX2                !
 ! D252  D(11,9,10,24)         -97.2595         estimate D2E/DX2                !
 ! D253  D(15,9,10,13)        -111.8998         estimate D2E/DX2                !
 ! D254  D(15,9,10,24)         -28.0604         estimate D2E/DX2                !
 ! D255  D(26,9,10,13)         -41.2552         estimate D2E/DX2                !
 ! D256  D(26,9,10,24)          42.5842         estimate D2E/DX2                !
 ! D257  D(4,9,11,12)          -97.7721         estimate D2E/DX2                !
 ! D258  D(4,9,11,27)          179.7117         estimate D2E/DX2                !
 ! D259  D(8,9,11,12)          -29.0803         estimate D2E/DX2                !
 ! D260  D(8,9,11,27)         -111.5965         estimate D2E/DX2                !
 ! D261  D(10,9,11,12)         179.2021         estimate D2E/DX2                !
 ! D262  D(10,9,11,27)          96.6859         estimate D2E/DX2                !
 ! D263  D(15,9,11,12)          40.7645         estimate D2E/DX2                !
 ! D264  D(15,9,11,27)         -41.7517         estimate D2E/DX2                !
 ! D265  D(26,9,11,12)         110.3299         estimate D2E/DX2                !
 ! D266  D(26,9,11,27)          27.8137         estimate D2E/DX2                !
 ! D267  D(4,9,15,12)           25.8027         estimate D2E/DX2                !
 ! D268  D(4,9,15,27)          108.3052         estimate D2E/DX2                !
 ! D269  D(8,9,15,12)           96.8593         estimate D2E/DX2                !
 ! D270  D(8,9,15,27)          179.3619         estimate D2E/DX2                !
 ! D271  D(10,9,15,12)        -111.6243         estimate D2E/DX2                !
 ! D272  D(10,9,15,27)         -29.1218         estimate D2E/DX2                !
 ! D273  D(11,9,15,12)         -40.7886         estimate D2E/DX2                !
 ! D274  D(11,9,15,27)          41.7139         estimate D2E/DX2                !
 ! D275  D(26,9,15,12)         179.1524         estimate D2E/DX2                !
 ! D276  D(26,9,15,27)         -98.3451         estimate D2E/DX2                !
 ! D277  D(4,9,26,13)          -27.5752         estimate D2E/DX2                !
 ! D278  D(4,9,26,24)         -111.0033         estimate D2E/DX2                !
 ! D279  D(8,9,26,13)          -96.7175         estimate D2E/DX2                !
 ! D280  D(8,9,26,24)          179.8544         estimate D2E/DX2                !
 ! D281  D(10,9,26,13)          40.8662         estimate D2E/DX2                !
 ! D282  D(10,9,26,24)         -42.5619         estimate D2E/DX2                !
 ! D283  D(11,9,26,13)         111.2226         estimate D2E/DX2                !
 ! D284  D(11,9,26,24)          27.7944         estimate D2E/DX2                !
 ! D285  D(15,9,26,13)         179.3343         estimate D2E/DX2                !
 ! D286  D(15,9,26,24)          95.9061         estimate D2E/DX2                !
 ! D287  D(9,10,13,7)          -96.9755         estimate D2E/DX2                !
 ! D288  D(9,10,13,16)         -27.6715         estimate D2E/DX2                !
 ! D289  D(9,10,13,26)          41.1628         estimate D2E/DX2                !
 ! D290  D(9,10,13,37)         179.8311         estimate D2E/DX2                !
 ! D291  D(9,10,13,38)         110.485          estimate D2E/DX2                !
 ! D292  D(24,10,13,7)        -178.9482         estimate D2E/DX2                !
 ! D293  D(24,10,13,16)       -109.6442         estimate D2E/DX2                !
 ! D294  D(24,10,13,26)        -40.8099         estimate D2E/DX2                !
 ! D295  D(24,10,13,37)         97.8584         estimate D2E/DX2                !
 ! D296  D(24,10,13,38)         28.5123         estimate D2E/DX2                !
 ! D297  D(9,10,24,17)        -112.2481         estimate D2E/DX2                !
 ! D298  D(9,10,24,25)         179.9146         estimate D2E/DX2                !
 ! D299  D(9,10,24,26)         -43.0551         estimate D2E/DX2                !
 ! D300  D(9,10,24,28)          95.4559         estimate D2E/DX2                !
 ! D301  D(9,10,24,29)          30.2235         estimate D2E/DX2                !
 ! D302  D(13,10,24,17)        -27.8482         estimate D2E/DX2                !
 ! D303  D(13,10,24,25)        -95.6855         estimate D2E/DX2                !
 ! D304  D(13,10,24,26)         41.3448         estimate D2E/DX2                !
 ! D305  D(13,10,24,28)        179.8558         estimate D2E/DX2                !
 ! D306  D(13,10,24,29)        114.6234         estimate D2E/DX2                !
 ! D307  D(9,11,12,2)           27.7905         estimate D2E/DX2                !
 ! D308  D(9,11,12,5)           96.7542         estimate D2E/DX2                !
 ! D309  D(9,11,12,14)        -110.6369         estimate D2E/DX2                !
 ! D310  D(9,11,12,15)         -41.0914         estimate D2E/DX2                !
 ! D311  D(9,11,12,52)         178.2478         estimate D2E/DX2                !
 ! D312  D(27,11,12,2)         111.4874         estimate D2E/DX2                !
 ! D313  D(27,11,12,5)        -179.5489         estimate D2E/DX2                !
 ! D314  D(27,11,12,14)        -26.94           estimate D2E/DX2                !
 ! D315  D(27,11,12,15)         42.6055         estimate D2E/DX2                !
 ! D316  D(27,11,12,52)        -98.0552         estimate D2E/DX2                !
 ! D317  D(9,11,27,15)          42.0652         estimate D2E/DX2                !
 ! D318  D(9,11,27,28)         -93.9033         estimate D2E/DX2                !
 ! D319  D(9,11,27,29)         -26.6878         estimate D2E/DX2                !
 ! D320  D(9,11,27,55)        -178.7944         estimate D2E/DX2                !
 ! D321  D(9,11,27,56)         113.1141         estimate D2E/DX2                !
 ! D322  D(12,11,27,15)        -42.5801         estimate D2E/DX2                !
 ! D323  D(12,11,27,28)       -178.5486         estimate D2E/DX2                !
 ! D324  D(12,11,27,29)       -111.3331         estimate D2E/DX2                !
 ! D325  D(12,11,27,55)         96.5604         estimate D2E/DX2                !
 ! D326  D(12,11,27,56)         28.4688         estimate D2E/DX2                !
 ! D327  D(2,12,14,51)         101.2816         estimate D2E/DX2                !
 ! D328  D(2,12,14,54)        -179.0581         estimate D2E/DX2                !
 ! D329  D(5,12,14,51)          32.5059         estimate D2E/DX2                !
 ! D330  D(5,12,14,54)         112.1662         estimate D2E/DX2                !
 ! D331  D(11,12,14,51)       -107.7191         estimate D2E/DX2                !
 ! D332  D(11,12,14,54)        -28.0588         estimate D2E/DX2                !
 ! D333  D(15,12,14,51)       -176.3205         estimate D2E/DX2                !
 ! D334  D(15,12,14,54)        -96.6602         estimate D2E/DX2                !
 ! D335  D(52,12,14,51)        -35.751          estimate D2E/DX2                !
 ! D336  D(52,12,14,54)         43.9093         estimate D2E/DX2                !
 ! D337  D(2,12,15,9)          -95.9271         estimate D2E/DX2                !
 ! D338  D(2,12,15,27)        -179.4949         estimate D2E/DX2                !
 ! D339  D(5,12,15,9)          -27.9592         estimate D2E/DX2                !
 ! D340  D(5,12,15,27)        -111.527          estimate D2E/DX2                !
 ! D341  D(11,12,15,9)          41.0127         estimate D2E/DX2                !
 ! D342  D(11,12,15,27)        -42.555          estimate D2E/DX2                !
 ! D343  D(14,12,15,9)        -179.129          estimate D2E/DX2                !
 ! D344  D(14,12,15,27)         97.3032         estimate D2E/DX2                !
 ! D345  D(52,12,15,9)         111.1793         estimate D2E/DX2                !
 ! D346  D(52,12,15,27)         27.6116         estimate D2E/DX2                !
 ! D347  D(2,12,52,51)         -34.9482         estimate D2E/DX2                !
[...]
 00000079,0.00010257,-0.00009296,-0.00003985,-0.00001913,-0.00001252,0.
 00000472,-0.00002234,0.00003527,0.00002460,0.00003369,0.00002192,0.000
 02931,-0.00009032,-0.00004213,0.00000488,0.00000862,-0.00000498,0.0000
 0183,-0.00000920,0.00000225,-0.00001361,0.00000320,-0.00000200,-0.0000
 1007,-0.00004370,0.00006172,-0.00000402,0.00000289,-0.00000449,-0.0000
 0575,0.00000895,-0.00000390,-0.00001354,-0.00000466,-0.00000621,0.0000
 1174,-0.00000155,0.00000550,0.00001509,-0.00000018,0.00000698,-0.00003
 605,-0.00000568,0.00000495,0.00000805,0.00000181,0.00000699,-0.0000024
 9,0.00000047,0.00000044,0.00001956,0.00000671,-0.00001383,-0.00000769,
 -0.00000259,0.00000147,-0.00000544,0.00000282,0.00000298,-0.00001794,-
 0.00001114,0.00001330,0.00000367,0.00002508,-0.00000232,-0.00000267,0.
 00000448,-0.00000550,0.00015883,0.00018173,0.00029252,-0.00005945,0.00
 000898,-0.00008464,-0.00005018,-0.00007171,0.00002532,-0.00000005,-0.0
 0003783,-0.00030254,-0.00000375,0.00000947,0.00003599,-0.00005325,0.00
 037341,0.00014877,-0.00079911,0.00027737,-0.00035867,0.00003334,-0.000
 04036,-0.00005199,0.00017849,0.00007455,-0.00113733,0.00001551,0.00000
 608,-0.00002517,-0.00001139,0.00002393,0.00001051,-0.00002554,-0.00001
 937,0.00003354,-0.00001003,0.00000887,-0.00001163,0.00002504,-0.000006
 63,-0.00001918,0.00003044,0.00001526,-0.00000851,-0.00005408,-0.000003
 53,0.00002298,0.00001116,-0.00000213,-0.00000037,0.00000135,-0.0000022
 4,0.00000296,0.00001250,-0.00000853,0.00001138,0.00017592,-0.00029154,
 0.00005342,0.00000621,-0.00001294,-0.00002033,0.00003846,-0.00008229,-
 0.00002485,0.00000985,-0.00000522,0.00000321,-0.00019126,0.00176148,-0
 .00145458,-0.00004397,0.00084717,-0.00065571,-0.00083678,-0.00063866,0
 .00076554,0.01384438,-0.00597680,0.00207867,-0.04864717,0.01720225,-0.
 02375837,0.03628481,-0.01351404,0.02488197,-0.00053802,0.00032567,-0.0
 0026474,0.00010542,-0.00004797,-0.00007677,0.00041425,-0.00023524,-0.0
 0002075,0.00004408,-0.00005438,0.00001341,0.00002542,0.00006461,0.0000
 4090,-0.00015851,0.00016906,0.00001115,0.00016344,0.00000073,-0.000064
 14,0.00003960,-0.00000782,-0.00000720,-0.00005996,0.00004828,-0.000027
 41,0.00004919,0.00000802,-0.00001040,0.00002902,-0.00003172,0.00003512
 ,-0.00003208,0.00010458,-0.00008975,-0.00019553,0.00001643,0.00002946,
 -0.00002764,0.00000198,0.00000418,0.00002652,-0.00003044,0.00002017,0.
 00011548,0.00001637,-0.00006397,-0.00003694,-0.00000095,-0.00000607,0.
 00012158,-0.00006488,0.00013701,0.00034689,-0.00015245,-0.00011683,0.0
 0028303,-0.00001372,0.00001105,0.00002374,-0.00018481,0.00025896,-0.00
 004499,-0.00014366,-0.00008304,0.00020486,-0.00040489,-0.00016397,-0.0
 0000216,-0.00000031,0.00000621,-0.00001722,0.00001607,-0.00000359,0.00
 005369,-0.00001530,-0.00001906,-0.00003747,0.00008542,-0.00011516,0.00
 002409,-0.00000441,0.00001737,0.00001680,-0.00002564,0.00000546,-0.000
 00091,0.00000354,0.00001131,-0.00002732,0.00000515,-0.00001808,-0.0000
 5289,0.00000729,-0.00002384,0.00015004,0.00003700,-0.00003529,-0.00001
 761,-0.00000857,-0.00001717,0.00000691,-0.00002082,0.00002622,-0.00003
 779,-0.00000094,0.00000829,0.00001734,-0.00000316,-0.00001403,0.000017
 55,0.00001647,0.00000017,0.00007035,0.00004856,-0.00007629,-0.00003868
 ,-0.00009894,0.00003191,0.00002831,-0.00004137,0.00005212,-0.00135918,
 0.00051477,0.00057550,0.00024350,-0.00047567,-0.00035121,-0.00005851,0
 .00024574,0.00008511,-0.00022040,0.00212341,-0.00233113,0.00012978,0.0
 0056410,0.00058231,0.00129030,-0.00005010,-0.00130983,-0.00005916,-0.0
 0147942,-0.00254644,0.00022768,0.00043301,-0.00007999,-0.00585468,-0.0
 0452208,-0.00066383,-0.00005621,-0.00007643,0.00014117,-0.00001919,0.0
 0001368,-0.00000806,-0.00002019,-0.00000526,0.00001584,0.00007709,0.00
 008535,-0.00015991,-0.00002993,-0.00001446,0.00001581,-0.00002789,-0.0
 0001366,0.00003028,0.00006743,-0.00003224,0.00003381,-0.00004469,0.000
 00409,0.00000827,-0.00000358,-0.00001522,0.00002234,0.00001401,-0.0000
 0816,0.00000298,0.00081578,0.00061678,-0.00208450,-0.00002550,0.000023
 41,0.00008663,-0.00002436,0.00015282,0.00014566,-0.00002285,0.00001502
 ,-0.00001030,-0.00037490,-0.00279387,0.00352402,0.00451266,-0.00416995
 ,0.00170071,0.00179002,0.00199033,-0.00174088,-0.02240314,-0.01962706,
 0.00768981,-0.00106580,-0.00028175,-0.00079315,0.00005553,0.00050905,0
 .00012886,0.02730695,-0.00005189,0.00021107,0.00016505,0.00003745,0.00
 011847,-0.00001410,0.00000395,-0.00000398,-0.00069460,0.00011369,-0.00
 012554,0.00000483,0.00002969,-0.00004523,-0.00006799,-0.00076339,-0.00
 004956,0.00008073,0.00008118,-0.00006979,-0.00013365,0.00012756,-0.000
 05343,0.00000154,-0.00020804,0.00011430,-0.00006840,0.00011427,0.00001
 876,-0.00002116,0.00005473,-0.00002148,0.00004090,-0.00009365,0.000067
 62,-0.00001239,-0.00039143,-0.00004558,0.00008153,0.00003072,0.0000390
 6,0.00002641,0.00004720,-0.00006028,0.00003300,0.00009704,-0.00011674,
 -0.00011110,-0.00007291,0.00000339,-0.00001370,0.00065552,0.00115361,0
 .00035883,0.00006114,-0.00100395,0.00117750,0.00027741,0.00049987,-0.0
 0010251,-0.00054866,0.00007404,0.00009610,-0.00005574,-0.00013983,-0.0
 0012563,0.00000483,0.00010820,-0.00014433,-0.00003146,-0.00003034,0.00
 004093,-0.00002142,0.00003305,-0.00001565,0.00010187,-0.00000545,-0.00
 002495,-0.00005304,0.00016092,-0.00020270,0.00002843,-0.00001265,0.000
 01016,0.00002612,-0.00003191,0.00000826,0.00002888,-0.00001627,0.00002
 308,-0.00003863,0.00000103,-0.00002281,-0.00010694,0.00000076,-0.00005
 785,0.00027433,0.00011206,-0.00008516,-0.00003109,-0.00001422,-0.00000
 715,0.00002526,-0.00005480,0.00006747,-0.00012068,0.00000521,0.0000112
 0,0.00004078,0.00000321,-0.00002934,0.00002194,0.00001141,-0.00001194,
 0.00013344,0.00015258,-0.00020454,-0.00009878,-0.00019382,0.00005165,0
 .00007292,-0.00010679,0.00013350,-0.00057981,0.00121767,-0.00157266,0.
 00007620,-0.00018791,-0.00015654,0.00006712,-0.00019614,0.00043697,0.0
 0287690,0.00160528,-0.00121485,-0.00057883,0.00016673,-0.00006681,-0.0
 0019341,-0.00754373,0.00656131,-0.00087473,0.00283614,0.00120893,-0.00
 039813,0.00034862,0.00013027,-0.00594227,-0.00461866,-0.00090512,-0.00
 003992,-0.00001665,0.00000006,0.00001005,-0.00007835,-0.00001489,-0.00
 006101,0.00004055,-0.00004397,0.00015341,-0.00002917,0.00004058,-0.000
 06634,-0.00000330,0.00003195,-0.00006943,-0.00000870,0.00002478,0.0001
 6608,-0.00003131,-0.00000813,-0.00009562,0.00001506,0.00000485,-0.0000
 0138,-0.00005122,0.00006697,-0.00003712,0.00002746,-0.00002064,-0.0006
 1796,-0.00032599,-0.00071101,0.00005096,0.00007111,0.00016047,-0.00008
 567,0.00007576,0.00019363,-0.00003217,0.00002339,-0.00000605,-0.000685
 75,-0.00307983,0.00308721,0.00300453,-0.00589373,0.00116410,0.00211813
 ,0.00072329,-0.00010620,-0.02802249,-0.07311231,0.01449142,0.00166151,
 -0.00368643,-0.00782548,-0.00015049,-0.00032444,-0.00004577,0.02548045
 ,0.12700578,-0.00016247,0.00004459,0.00020314,0.00010102,-0.00000495,0
 .00004039,0.00040821,0.00057828,-0.00033094,0.00003408,-0.00000389,-0.
 00000691,0.00011890,-0.00006772,-0.00009395,-0.00011275,-0.00008146,0.
 00007634,-0.00005916,0.00001370,0.00005560,0.00008690,-0.00003688,0.00
 002768,-0.00006161,0.00004365,-0.00008713,0.00004046,0.00001155,0.0000
 1295,0.00001247,0.00000040,0.00004106,-0.00012169,-0.00014258,0.000210
 22,-0.00004149,0.00001838,-0.00002984,0.00008922,0.00007057,0.00005928
 ,0.00003801,-0.00004294,-0.00000710,-0.00004908,-0.00011504,-0.0000407
 2,-0.00001254,-0.00000224,-0.00001658,0.00008484,0.00048357,-0.0000871
 4,-0.00011449,-0.00029572,0.00038407,-0.00006372,0.00026678,-0.0000310
 8,-0.00018970,0.00017880,-0.00035448,-0.00012807,-0.00016503,-0.000135
 37,-0.00036711,-0.00042603,0.00000487,-0.00002295,-0.00003912,0.000012
 86,0.00000434,0.00002903,-0.00000750,0.00002045,-0.00000636,0.00001274
 ,0.00008872,0.00016260,-0.00022227,-0.00000076,-0.00001187,0.00001671,
 0.00001310,-0.00002387,0.00001588,0.00004883,0.00001875,0.00002462,-0.
 00003068,0.00000445,-0.00001089,-0.00003106,-0.00000074,-0.00001312,0.
 00006941,-0.00000593,0.00000768,-0.00002343,-0.00000448,-0.00002677,0.
 00000448,0.00001508,-0.00002168,-0.00005562,-0.00003406,0.00005689,0.0
 0002598,0.00001307,0.00000813,0.00001623,-0.00001792,-0.00001556,0.000
 01392,0.00000393,0.00000964,-0.00001906,-0.00000295,-0.00000359,-0.000
 01169,0.00001335,-0.00001798,0.00041104,-0.00003813,-0.00065347,-0.000
 03184,0.00015373,0.00009218,-0.00003228,-0.00016585,0.00023141,-0.0011
 1075,-0.00083214,-0.00224666,-0.00005343,0.00110854,0.00025019,0.00133
 469,0.01239568,-0.00742587,0.00076130,-0.00152811,0.00079772,-0.000226
 88,-0.00012412,-0.00024492,-0.00033568,0.00095739,0.00411505,-0.000143
 38,0.00002397,-0.00000565,0.00004346,-0.00009561,-0.00003954,0.0000929
 6,0.00007886,-0.00012966,0.00002711,-0.00007203,0.00011777,-0.00010322
 ,0.00003849,0.00006410,-0.00012746,-0.00005787,0.00001865,0.00015497,0
 .00002955,-0.00009272,0.00000533,0.00000237,-0.00000390,-0.00000593,0.
 00002431,-0.00003269,0.00004700,-0.00000038,-0.00001285,-0.00057924,-0
 .00043368,0.00051855,0.00001545,0.00002055,0.00000223,-0.00009842,0.00
 024363,0.00010115,-0.00002711,0.00000895,-0.00001148,0.00005641,0.0034
 0548,-0.00189421,-0.00086653,-0.00142325,-0.00203498,-0.00021852,-0.00
 059086,0.00040060,-0.00025785,-0.00326186,-0.01267969,0.00158496,-0.00
 516465,-0.00505991,-0.00030890,-0.00022193,-0.00037725,-0.01695980,0.0
 6061473,0.26078321,0.00019380,-0.00016876,0.00012655,-0.00004590,0.000
 03275,0.00002224,-0.00020240,-0.00002611,0.00003897,-0.00000418,0.0000
 1432,-0.00000452,-0.00002511,-0.00003743,-0.00000170,-0.00001936,-0.00
 009798,0.00008452,-0.00003610,0.00001588,-0.00000105,-0.00001267,0.000
 00581,-0.00000762,0.00001414,-0.00000987,0.00001225,-0.00001440,-0.000
 00492,0.00000080,-0.00000749,0.00000945,-0.00001530,0.00000713,-0.0000
 2098,0.00001945,0.00006830,-0.00001798,-0.00000283,0.00000663,-0.00000
 496,-0.00000278,-0.00000833,0.00001186,-0.00000455,-0.00003378,-0.0000
 2378,0.00000894,0.00001078,0.00000076,0.00000222,-0.00003691,0.0000821
 4,-0.00008312,-0.00009772,0.00003578,0.00005919,-0.00007901,-0.0000240
 9,-0.00001197,0.00003189,0.00009110,-0.00000831,0.00002042,0.00006303,
 0.00002611,0.00000331,0.00028411,0.00010222,-0.00000184,0.00000002,0.0
 0000128,0.00000577,-0.00000625,0.00000083,-0.00001424,0.00000666,0.000
 00211,0.00000269,-0.00002934,0.00004753,-0.00000755,0.00000089,-0.0000
 0825,-0.00000553,0.00000986,-0.00000258,0.00000022,-0.00000470,-0.0000
 0413,0.00001033,-0.00000221,0.00000644,0.00001524,-0.00000297,0.000005
 86,-0.00004561,-0.00000557,0.00000710,0.00000643,0.00000272,0.00000904
 ,-0.00000079,0.00000364,-0.00000394,0.00001294,0.00000439,-0.00000565,
 -0.00000460,0.00000067,0.00000531,-0.00000429,-0.00000278,-0.00000090,
 -0.00002878,-0.00001401,0.00001863,0.00001436,0.00003805,-0.00000685,-
 0.00000647,0.00000944,-0.00001157,0.00044527,0.00000669,-0.00033410,-0
 .00007309,0.00030786,0.00017624,-0.00005096,-0.00014538,-0.00006718,0.
 00045492,-0.00108219,0.00049554,-0.00006266,-0.00022086,-0.00022176,0.
 00042638,-0.00047850,0.00169135,0.00007645,0.00003042,0.00015228,-0.00
 021216,0.00003599,-0.00001134,0.00098062,-0.00089265,0.00048302,0.0000
 3657,0.00003589,-0.00005999,0.00000322,-0.00000744,0.00000695,-0.00000
 598,0.00000019,-0.00000132,-0.00001676,-0.00003321,0.00006285,0.000015
 50,0.00000166,-0.00000817,0.00001578,0.00001040,-0.00001177,-0.0000256
 5,0.00000736,-0.00000884,0.00000897,-0.00000057,-0.00000255,0.00000182
 ,0.00000063,-0.00000177,-0.00001883,0.00000696,-0.00000401,-0.00002257
 ,-0.00030347,0.00068847,-0.00000124,-0.00001539,-0.00002844,-0.0000072
 8,-0.00008074,-0.00004521,0.00000888,-0.00000499,0.00000509,-0.0012182
 7,0.00159639,-0.00079323,0.00030648,0.00010892,0.00065818,-0.00037384,
 -0.00011374,0.00002116,-0.00233434,-0.00032793,-0.00589212,0.00165021,
 0.00010825,-0.00004905,-0.00006751,-0.00060235,-0.00011577,-0.00591239
 ,0.00306460,0.01731207,0.00629112,-0.00007819,0.00004119,-0.00003319,0
 .00002175,-0.00003037,0.00000122,0.00027313,0.00015966,0.00015705,-0.0
 0000849,0.00000293,0.00000388,0.00000806,-0.00000465,-0.00001425,0.000
 08375,0.00003561,0.00001892,-0.00000374,0.00000215,0.00000500,0.000002
 91,-0.00000577,0.00000103,0.00000496,0.00000183,-0.00000355,0.00000053
 ,0.00000216,0.00000254,0.00000002,0.00000108,0.00000559,-0.00002476,-0
 .00004163,0.00005519,0.00000495,0.00000523,-0.00000763,0.00001543,0.00
 001197,0.00001182,0.00000593,-0.00000298,-0.00000764,-0.00000328,-0.00
 000352,-0.00000234,0.00000043,-0.00000058,-0.00000098,-0.00000495,-0.0
 0001951,-0.00000548,0.00002026,0.00000046,-0.00001323,-0.00001058,-0.0
 0001291,0.00000407,0.00006074,0.00001085,-0.00005234,-0.00002543,-0.00
 003206,-0.00000888,-0.00001828,-0.00012416,0.00002463,0.00000221,-0.00
 000426,-0.00000070,0.00000098,0.00000236,-0.00000021,-0.00000124,-0.00
 000212,0.00000112,0.00001380,0.00001897,-0.00002472,0.00000014,-0.0000
 0055,0.00000199,0.00000171,-0.00000224,0.00000042,0.00000409,0.0000040
 3,0.00000122,-0.00000417,0.00000010,-0.00000132,-0.00000088,0.00000014
 ,0.00000036,0.00000115,-0.00000354,0.00000219,-0.00000174,-0.00000036,
 -0.00000326,-0.00000027,0.00000297,-0.00000396,-0.00000300,-0.00000325
 ,0.00000547,0.00000269,0.00000062,0.00000171,0.00000294,-0.00000234,-0
 .00000055,-0.00000486,-0.00000575,0.00000788,-0.00000424,0.00000380,-0
 .00000111,-0.00000314,0.00000440,-0.00000550,-0.00006060,0.00005678,0.
 00010603,0.00003837,-0.00007569,-0.00004850,-0.00002119,-0.00005145,0.
 00004656,-0.00081228,-0.00017901,-0.00019066,-0.00002017,0.00026857,0.
 00009536,0.00069411,-0.00148635,0.00092236,0.00005636,-0.00052847,-0.0
 0016554,-0.00002569,0.00001897,-0.00001194,-0.00017961,0.00133045,0.00
 056224,-0.00002148,0.00000102,0.00000615,0.00000930,-0.00001010,-0.000
 01055,0.00001747,0.00001292,-0.00002148,0.00000031,-0.00001152,0.00001
 228,-0.00001386,0.00000629,0.00000817,-0.00001838,-0.00000971,0.000002
 62,0.00002487,0.00000641,-0.00001556,0.00000039,0.00000061,-0.00000083
 ,-0.00000056,0.00000374,-0.00000489,0.00000202,-0.00000028,-0.00000413
 ,-0.00007590,-0.00001632,-0.00013028,0.00000153,0.00000111,-0.00000354
 ,-0.00001611,0.00006542,0.00000217,-0.00000353,0.00000139,-0.00000149,
 0.00046971,0.00007501,0.00005189,-0.00006823,0.00007768,-0.00015358,0.
 00013854,-0.00008146,-0.00004424,0.00001117,-0.00845841,-0.00941969,-0
 .00063678,-0.00091136,0.00013710,-0.00000016,0.00008724,-0.00002543,0.
 00141052,-0.03565596,-0.06553453,-0.00123145,0.04545254,-0.00000396,-0
 .00004426,0.00006941,-0.00000446,0.00002073,0.00000515,-0.00007245,-0.
 00006897,-0.00000211,-0.00001091,0.00001174,-0.00001043,-0.00000627,0.
 00000415,0.00001351,0.00002918,0.00002414,-0.00001649,-0.00000859,-0.0
 0000215,-0.00000167,-0.00002003,0.00000478,-0.00000496,0.00001896,-0.0
 0001242,0.00001155,-0.00000842,-0.00000088,-0.00000031,-0.00000160,0.0
 0000127,-0.00000855,0.00001705,0.00000675,-0.00000838,0.00002958,-0.00
 000058,0.00000212,-0.00000608,-0.00000677,-0.00000770,-0.00000474,0.00
 000685,-0.00000193,-0.00000264,0.00002216,0.00000885,0.00000513,0.0000
 0032,0.00000195,-0.00004044,-0.00011162,-0.00002669,-0.00001359,0.0000
 7379,-0.00012273,0.00000426,-0.00004347,0.00002253,0.00003201,-0.00006
 549,0.00001268,0.00001236,0.00002555,0.00001709,-0.00004614,0.00012959
 ,0.00001359,0.00000227,0.00000239,-0.00000367,0.00000129,-0.00000426,0
 .00000120,-0.00000702,0.00000118,0.00000021,-0.00000788,-0.00002131,0.
 00002793,-0.00000168,0.00000167,-0.00000304,-0.00000182,0.00000469,-0.
 00000174,-0.00000486,-0.00000128,-0.00000351,0.00000486,-0.00000157,0.
 00000233,0.00000850,-0.00000020,0.00000400,-0.00002156,-0.00000446,0.0
 0000337,0.00000374,0.00000119,0.00000385,-0.00000138,0.00000125,-0.000
 00121,0.00001149,0.00000362,-0.00000529,-0.00000549,-0.00000150,0.0000
 0168,-0.00000284,0.00000084,0.00000160,-0.00000888,-0.00000749,0.00000
 884,0.00001545,0.00001009,-0.00000395,-0.00000217,0.00000350,-0.000004
 24,-0.00000855,-0.00010582,0.00013539,-0.00000111,-0.00000240,0.000034
 45,0.00002735,0.00006152,-0.00003420,-0.00020966,0.00031810,-0.0002548
 0,0.00012496,-0.00020873,0.00003424,-0.00020195,0.00296426,0.00039067,
 0.00011323,0.00012861,0.00006878,0.00003062,-0.00002419,-0.00004006,0.
 00057350,-0.00061521,-0.00026397,0.00001245,-0.00000038,-0.00001219,-0
 .00000392,0.00000744,0.00000764,-0.00000441,-0.00000624,0.00001022,-0.
 00000941,0.00000534,0.00000348,0.00001086,-0.00000238,-0.00000775,0.00
 001462,0.00000442,-0.00000388,-0.00001860,0.00000093,0.00000574,0.0000
 0358,-0.00000059,-0.00000029,0.00000071,0.00000011,-0.00000021,-0.0000
 0631,0.00000138,0.00000071,-0.00002039,0.00009691,0.00013783,-0.000012
 00,-0.00000785,-0.00000731,0.00000629,-0.00004105,-0.00001466,0.000004
 00,-0.00000225,0.00000101,0.00030616,-0.00020756,-0.00069876,0.0000718
 3,0.00042645,0.00040912,-0.00014315,-0.00011924,0.00006209,0.00003259,
 0.00209656,-0.00061255,-0.00085313,-0.00263810,-0.00014582,-0.00005082
 ,-0.00004396,0.00010165,0.01484702,-0.07576109,-0.23426748,-0.01451657
 ,0.07371147,0.23496611\\-0.00000680,0.00000331,0.00000759,-0.00000309,
 -0.00000116,-0.00000053,-0.00000016,-0.00000115,-0.00000133,0.00000266
 ,0.00000080,0.00000130,0.00000304,0.00000191,0.00000029,0.00001110,0.0
 0000182,0.00000688,0.00000279,0.00000155,-0.00000013,0.00000162,0.0000
 0039,-0.00000054,-0.00000122,-0.00000377,0.00000412,0.00000229,0.00000
 056,0.00000014,-0.00000251,0.00000116,-0.00000035,0.00000774,0.0000015
 3,-0.00000206,-0.00000146,0.00000112,-0.00000096,-0.00000469,-0.000005
 98,-0.00000153,-0.00000374,-0.00000022,-0.00000250,0.00000045,-0.00000
 108,-0.00000058,-0.00000079,0.00000161,0.00000275,-0.00000479,-0.00001
 828,-0.00000069,0.00000109,-0.00000136,0.,-0.00000320,0.00000074,0.000
 00040,0.00000613,-0.00001484,-0.00001754,-0.00000129,0.00000176,0.0000
 0224,0.00000717,0.00000720,0.00000863,0.00000081,-0.00000024,0.,-0.000
 00090,-0.00000136,-0.00000140,-0.00000103,0.00000026,0.00000076,0.0000
 0072,0.00000051,-0.00000144,0.00000053,0.00000035,0.00000006,0.0000014
 7,0.00000080,-0.00000058,-0.00000135,0.00000089,0.00000137,-0.00000334
 ,-0.00000113,0.00000234,0.00000062,-0.00000129,-0.00000027,-0.00000416
 ,0.00000166,-0.00000054,-0.00000092,0.00000017,-0.00000118,-0.00000070
 ,-0.00000021,0.00000057,0.00000230,0.00000228,-0.00000144,-0.00000157,
 -0.00000150,-0.00000106,-0.00000137,0.00000118,0.00000061,-0.00000059,
 -0.00000317,-0.00000363,-0.00000286,0.00000158,0.00000423,-0.00000072,
 -0.00000081,0.00000013,0.00000135,0.00001522,-0.00000989,0.00000083,-0
 .00000547,-0.00000199,-0.00000767,-0.00000322,0.00000337,0.00000837,-0
 .00001024,0.00001005,0.00000138,-0.00000186,-0.00000039,0.00000176,-0.
 00000056,-0.00001501,-0.00001891,0.00000168,0.00000052,0.00000158,0.00
 000708,-0.00000304,-0.00001485,-0.00000018,-0.00001250,0.00000650,0.00
 000090,-0.00000770,-0.00000249,0.00000838,0.00000815,-0.00000574,-0.00
 000237,0.00000943,0.00001316,0.00000560,-0.00001554,-0.00000067,0.0000
 0071,-0.00000028,0.00000017,0.00000123,0.00000051,-0.00000284,0.000003
 93,-0.00000799,-0.00000165,-0.00000309,0.00000849,-0.00000093,-0.00000
 028,0.00000008,-0.00000203,-0.00000196,0.00000447,0.00000330,-0.000007
 75,0.00000057,0.00000270,0.00000136,0.00000389,0.00000185,0.00000323,0
 .00000568,-0.00000188,0.00000474,0.00000017,-0.00001003,-0.00000313,-0
 .00000098,-0.00000425,0.00001710,0.00001045,0.00000551,0.00000031,0.00
 000010,0.00002051,-0.00000539,-0.00000578,0.00000369,0.00000702,0.0000
 1124,0.00000202,-0.00000313,-0.00000236,-0.00000248,-0.00001078,-0.000
 00024,0.00000243,0.00000336,0.00000240\\\@
 The archive entry for this job was punched.


 I LOVE THOSE WHO LONG FOR THE IMPOSSIBLE.

                                 -- GOETHE
 Job cpu time:       9 days  1 hours 39 minutes  4.5 seconds.
 Elapsed time:       0 days  4 hours 32 minutes 46.7 seconds.
 File lengths (MBytes):  RWF=  19405 Int=      0 D2E=      0 Chk=    169 Scr=      2
 Normal termination of Gaussian 16 at Thu Mar  9 17:20:41 2023.
