 Entering Gaussian System, Link 0=g16
 Initial command:
 /home/chesagar/softwares/G16_AVX2//g16/l1.exe "/home/chesagar/scratch/Gau-132869.inp" -scrdir="/home/chesagar/scratch/"
 Entering Link 1 = /home/chesagar/softwares/G16_AVX2//g16/l1.exe PID=    132870.
  
 Copyright (c) 1988-2019, Gaussian, Inc.  All Rights Reserved.
  
 This is part of the Gaussian(R) 16 program.  It is based on
 the Gaussian(R) 09 system (copyright 2009, Gaussian, Inc.),
 the Gaussian(R) 03 system (copyright 2003, Gaussian, Inc.),
 the Gaussian(R) 98 system (copyright 1998, Gaussian, Inc.),
 the Gaussian(R) 94 system (copyright 1995, Gaussian, Inc.),
 the Gaussian 92(TM) system (copyright 1992, Gaussian, Inc.),
 the Gaussian 90(TM) system (copyright 1990, Gaussian, Inc.),
 the Gaussian 88(TM) system (copyright 1988, Gaussian, Inc.),
 the Gaussian 86(TM) system (copyright 1986, Carnegie Mellon
 University), and the Gaussian 82(TM) system (copyright 1983,
 Carnegie Mellon University). Gaussian is a federally registered
 trademark of Gaussian, Inc.
  
 This software contains proprietary and confidential information,
 including trade secrets, belonging to Gaussian, Inc.
  
 This software is provided under written license and may be
 used, copied, transmitted, or stored only in accord with that
 written license.
  
 The following legend is applicable only to US Government
 contracts under FAR:
  
                    RESTRICTED RIGHTS LEGEND
  
 Use, reproduction and disclosure by the US Government is
 subject to restrictions as set forth in subparagraphs (a)
 and (c) of the Commercial Computer Software - Restricted
 Rights clause in FAR 52.227-19.
  
 Gaussian, Inc.
 340 Quinnipiac St., Bldg. 40, Wallingford CT 06492
  
  
 ---------------------------------------------------------------
 Warning -- This program may not be used in any manner that
 competes with the business of Gaussian, Inc. or will provide
 assistance to any competitor of Gaussian, Inc.  The licensee
 of this program is prohibited from giving any competitor of
 Gaussian, Inc. access to this program.  By using this program,
 the user acknowledges that Gaussian, Inc. is engaged in the
 business of creating and licensing software in the field of
 computational chemistry and represents and warrants to the
 licensee that it is not a competitor of Gaussian, Inc. and that
 it will not use this program in any manner prohibited above.
 ---------------------------------------------------------------
  

 Cite this work as:
 Gaussian 16, Revision C.01,
 M. J. Frisch, G. W. Trucks, H. B. Schlegel, G. E. Scuseria, 
 M. A. Robb, J. R. Cheeseman, G. Scalmani, V. Barone, 
 G. A. Petersson, H. Nakatsuji, X. Li, M. Caricato, A. V. Marenich, 
 J. Bloino, B. G. Janesko, R. Gomperts, B. Mennucci, H. P. Hratchian, 
 J. V. Ortiz, A. F. Izmaylov, J. L. Sonnenberg, D. Williams-Young, 
 F. Ding, F. Lipparini, F. Egidi, J. Goings, B. Peng, A. Petrone, 
 T. Henderson, D. Ranasinghe, V. G. Zakrzewski, J. Gao, N. Rega, 
 G. Zheng, W. Liang, M. Hada, M. Ehara, K. Toyota, R. Fukuda, 
 J. Hasegawa, M. Ishida, T. Nakajima, Y. Honda, O. Kitao, H. Nakai, 
 T. Vreven, K. Throssell, J. A. Montgomery, Jr., J. E. Peralta, 
 F. Ogliaro, M. J. Bearpark, J. J. Heyd, E. N. Brothers, K. N. Kudin, 
 V. N. Staroverov, T. A. Keith, R. Kobayashi, J. Normand, 
 K. Raghavachari, A. P. Rendell, J. C. Burant, S. S. Iyengar, 
 J. Tomasi, M. Cossi, J. M. Millam, M. Klene, C. Adamo, R. Cammi, 
 J. W. Ochterski, R. L. Martin, K. Morokuma, O. Farkas, 
 J. B. Foresman, and D. J. Fox, Gaussian, Inc., Wallingford CT, 2019.
 
 ******************************************
 Gaussian 16:  ES64L-G16RevC.01  3-Jul-2019
                 4-Mar-2023 
 ******************************************
 %nprocshared=46
 Will use up to   46 processors via shared memory.
 %chk=Mo21S49_Mozz_Mo_S_2.chk
 %mem=100GB
 ----------------------------------------------------------
 # opt freq b3lyp/gen nosymm pseudo=read scf=maxcycles=1000
 ----------------------------------------------------------
 1/18=20,19=15,26=3,38=1/1,3;
 2/9=110,12=2,15=1,17=6,18=5,40=1/2;
 3/5=7,11=2,16=1,17=8,25=1,30=1,71=1,74=-5/1,2,3;
 4//1;
 5/5=2,7=1000,38=5/2;
 6/7=2,8=2,9=2,10=2,28=1/1;
 7/30=1/1,2,3,16;
 1/18=20,19=15,26=3/3(2);
 2/9=110,15=1/2;
 99//99;
 2/9=110,15=1/2;
 3/5=7,6=1,11=2,16=1,17=8,25=1,30=1,71=1,74=-5,82=7/1,2,3;
 4/5=5,16=3,69=1/1;
 5/5=2,7=1000,38=5/2;
 7/30=1/1,2,3,16;
 1/18=20,19=15,26=3/3(-5);
 2/9=110,15=1/2;
 6/7=2,8=2,9=2,10=2,19=2,28=1/1;
 99/9=1/99;
 -------------------
 Title Card Required
 -------------------
 Symbolic Z-matrix:
 Charge =  0 Multiplicity = 1
 42                    0.43223   0.91139   12.48744 
 16                    2.39657   1.80536   13.62954 
 16                   -0.65509   1.46388   14.59287 
 16                   -0.31163   0.66893   10.18459 
 16                    2.10062  -0.71071   11.74437 
 42                   -2.01094   2.24469   10.90503 
 16                   -2.74014   1.99536   8.58129 
 16                   -0.09004   3.23902   12.02706 
 42                    0.98578   2.70944   9.92 
 16                    0.22013   2.52983   7.59808 
 16                    2.68523   1.10975   9.20081 
 42                    3.46219   1.29309   11.49717 
 42                   -1.50028   4.07114   8.33164 
 16                    5.49792   2.25448   12.70222 
 16                    2.95049   3.62892   11.05744 
 16                   -2.61631   4.55947   10.42822 
 16                    0.89992   6.9788    6.97174 
 42                   -4.49194   3.40894   9.42049 
 16                   -5.73127   1.45504   9.63505 
 16                   -5.56606   3.97406   11.4986 
 42                    2.71583  -0.56576   14.06367 
 16                    4.96688  -0.30989   15.16008 
 16                    1.77836   0.04141   16.20058 
 42                    1.5221    4.55221   7.40111 
 16                    0.88119   4.58139   4.98597 
 16                    0.41918   5.04991   9.4852 
 42                    4.02804   3.11313   8.94655 
 16                    3.1917    2.92773   6.66227 
 16                    3.51629   5.4525    8.51314 
 42                    4.47733   4.90602   6.37248 
 16                    6.87601   5.48619   6.81506 
 16                    4.13222   7.39556   6.101 
 42                    2.29639   6.65187   5.04734 
 16                    3.85979   4.91859   4.16143 
 16                   -1.45069   7.20103   4.20489 
 42                   -1.02869   5.92359   5.83476 
 16                   -2.22668   3.82274   5.86246 
 16                   -2.14915   6.52948   7.89127 
 42                   -3.79736   5.40579   6.63434 
 16                   -5.553     3.71779   7.16751 
 16                   -4.67127   6.56191   5.10009 
 42                   -4.95977   1.7088    11.97701 
 16                   -3.09457   2.81113   13.03624 
 16                   -3.32822   0.16808   11.20238 
 42                   -2.60076   0.50386   13.49425 
 16                   -0.91493  -1.09849   12.8197 
 16                   -4.02429  -1.52651   14.02044 
 42                   -0.16428  -0.86032   15.13283 
 16                    1.5251   -2.51416   14.37394 
 16                   -1.29435  -0.04433   17.27926 
 42                    5.97093  -0.03709   12.89707 
 16                    5.18816  -0.43017   10.72683 
 16                    8.45236   1.25759   10.73205 
 42                    6.39166   1.70369   10.47036 
 16                    5.76078   1.39249   8.12491 
 16                    6.10217   4.10899   10.07771 
 42                    7.05712   3.33543   8.07521 
 16                    9.15491   3.04107   8.07751 
 16                    1.99108   8.02887   3.46584 
 16                    7.98427  -0.57549   13.30602 
 16                   -6.87258   0.64694   12.65402 
 16                   -5.57459   5.42667   8.41024 
 16                    4.78686  -1.9881    13.88538 
 16                    6.59056   3.72738   5.67516 
 42                   -5.50676   0.18287   14.47661 
 16                   -3.74703   1.25657   15.57184 
 16                   -7.05327   0.3546    16.15948 
 42                   -3.04464  -1.02375   16.26821 
 16                   -4.11603  -2.0203    18.01565 
 16                   -1.46776  -2.74386   15.56954 
 42                   -6.25949  -1.65813   17.09273 
 16                   -7.0255   -3.43584   16.10635 
 16                   -7.60853  -1.96869   18.7597 
 

 GradGradGradGradGradGradGradGradGradGradGradGradGradGradGradGradGradGrad
 Berny optimization.
 Initialization pass.
                           ----------------------------
                           !    Initial Parameters    !
                           ! (Angstroms and Degrees)  !
 --------------------------                            --------------------------
 ! Name  Definition              Value          Derivative Info.                !
 --------------------------------------------------------------------------------
 ! R1    R(1,2)                  2.4418         estimate D2E/DX2                !
 ! R2    R(1,3)                  2.4332         estimate D2E/DX2                !
 ! R3    R(1,4)                  2.4321         estimate D2E/DX2                !
 ! R4    R(1,5)                  2.4427         estimate D2E/DX2                !
 ! R5    R(1,8)                  2.4295         estimate D2E/DX2                !
 ! R6    R(1,46)                 2.4423         estimate D2E/DX2                !
 ! R7    R(2,12)                 2.4382         estimate D2E/DX2                !
 ! R8    R(2,21)                 2.4316         estimate D2E/DX2                !
 ! R9    R(3,45)                 2.4319         estimate D2E/DX2                !
 ! R10   R(3,48)                 2.4361         estimate D2E/DX2                !
 ! R11   R(4,6)                  2.4269         estimate D2E/DX2                !
 ! R12   R(4,9)                  2.4325         estimate D2E/DX2                !
 ! R13   R(5,12)                 2.4352         estimate D2E/DX2                !
 ! R14   R(5,21)                 2.4039         estimate D2E/DX2                !
 ! R15   R(6,7)                  2.4482         estimate D2E/DX2                !
 ! R16   R(6,8)                  2.4367         estimate D2E/DX2                !
 ! R17   R(6,16)                 2.4397         estimate D2E/DX2                !
 ! R18   R(6,18)                 3.1168         estimate D2E/DX2                !
 ! R19   R(6,43)                 2.4571         estimate D2E/DX2                !
 ! R20   R(6,44)                 2.4771         estimate D2E/DX2                !
 ! R21   R(7,13)                 2.4307         estimate D2E/DX2                !
 ! R22   R(7,18)                 2.4023         estimate D2E/DX2                !
 ! R23   R(8,9)                  2.4244         estimate D2E/DX2                !
 ! R24   R(9,10)                 2.4515         estimate D2E/DX2                !
 ! R25   R(9,11)                 2.4422         estimate D2E/DX2                !
 ! R26   R(9,15)                 2.4493         estimate D2E/DX2                !
 ! R27   R(9,26)                 2.447          estimate D2E/DX2                !
 ! R28   R(10,13)                2.4235         estimate D2E/DX2                !
 ! R29   R(10,24)                2.4133         estimate D2E/DX2                !
 ! R30   R(11,12)                2.4312         estimate D2E/DX2                !
 ! R31   R(11,27)                2.4251         estimate D2E/DX2                !
 ! R32   R(12,14)                2.5536         estimate D2E/DX2                !
 ! R33   R(12,15)                2.4313         estimate D2E/DX2                !
 ! R34   R(12,52)                2.5577         estimate D2E/DX2                !
 ! R35   R(13,16)                2.4248         estimate D2E/DX2                !
 ! R36   R(13,26)                2.444          estimate D2E/DX2                !
 ! R37   R(13,37)                2.5858         estimate D2E/DX2                !
 ! R38   R(13,38)                2.5804         estimate D2E/DX2                !
 ! R39   R(14,51)                2.348          estimate D2E/DX2                !
 ! R40   R(14,54)                2.4664         estimate D2E/DX2                !
 ! R41   R(15,27)                2.4255         estimate D2E/DX2                !
 ! R42   R(16,18)                2.4202         estimate D2E/DX2                !
 ! R43   R(17,24)                2.5416         estimate D2E/DX2                !
 ! R44   R(17,33)                2.4001         estimate D2E/DX2                !
 ! R45   R(17,36)                2.475          estimate D2E/DX2                !
 ! R46   R(18,19)                2.3237         estimate D2E/DX2                !
 ! R47   R(18,20)                2.4066         estimate D2E/DX2                !
 ! R48   R(18,40)                2.5094         estimate D2E/DX2                !
 ! R49   R(18,42)                3.1057         estimate D2E/DX2                !
 ! R50   R(18,62)                2.5028         estimate D2E/DX2                !
 ! R51   R(19,42)                2.4788         estimate D2E/DX2                !
 ! R52   R(20,42)                2.3933         estimate D2E/DX2                !
 ! R53   R(21,22)                2.5169         estimate D2E/DX2                !
 ! R54   R(21,23)                2.4112         estimate D2E/DX2                !
 ! R55   R(21,48)                3.0862         estimate D2E/DX2                !
 ! R56   R(21,49)                2.3044         estimate D2E/DX2                !
 ! R57   R(21,63)                2.5187         estimate D2E/DX2                !
 ! R58   R(22,51)                2.4907         estimate D2E/DX2                !
 ! R59   R(22,63)                2.1151         estimate D2E/DX2                !
 ! R60   R(23,48)                2.3931         estimate D2E/DX2                !
 ! R61   R(24,25)                2.4989         estimate D2E/DX2                !
 ! R62   R(24,26)                2.4099         estimate D2E/DX2                !
 ! R63   R(24,28)                2.4438         estimate D2E/DX2                !
 ! R64   R(24,29)                2.4544         estimate D2E/DX2                !
 ! R65   R(25,33)                2.5087         estimate D2E/DX2                !
 ! R66   R(25,36)                2.4839         estimate D2E/DX2                !
 ! R67   R(27,28)                2.4396         estimate D2E/DX2                !
 ! R68   R(27,29)                2.4336         estimate D2E/DX2                !
 ! R69   R(27,55)                2.5764         estimate D2E/DX2                !
 ! R70   R(27,56)                2.5638         estimate D2E/DX2                !
 ! R71   R(28,30)                2.3771         estimate D2E/DX2                !
 ! R72   R(29,30)                2.4093         estimate D2E/DX2                !
 ! R73   R(30,31)                2.5072         estimate D2E/DX2                !
 ! R74   R(30,32)                2.528          estimate D2E/DX2                !
 ! R75   R(30,33)                3.092          estimate D2E/DX2                !
 ! R76   R(30,34)                2.2957         estimate D2E/DX2                !
 ! R77   R(30,64)                2.5182         estimate D2E/DX2                !
 ! R78   R(31,57)                2.4993         estimate D2E/DX2                !
 ! R79   R(31,64)                2.1152         estimate D2E/DX2                !
 ! R80   R(32,33)                2.2436         estimate D2E/DX2                !
 ! R81   R(33,34)                2.4967         estimate D2E/DX2                !
 ! R82   R(33,59)                2.1191         estimate D2E/DX2                !
 ! R83   R(35,36)                2.1134         estimate D2E/DX2                !
 ! R84   R(36,37)                2.4186         estimate D2E/DX2                !
 ! R85   R(36,38)                2.419          estimate D2E/DX2                !
 ! R86   R(36,39)                2.928          estimate D2E/DX2                !
 ! R87   R(37,39)                2.3599         estimate D2E/DX2                !
 ! R88   R(38,39)                2.3578         estimate D2E/DX2                !
 ! R89   R(39,40)                2.4932         estimate D2E/DX2                !
 ! R90   R(39,41)                2.1105         estimate D2E/DX2                !
 ! R91   R(39,62)                2.5125         estimate D2E/DX2                !
 ! R92   R(40,62)                2.1131         estimate D2E/DX2                !
 ! R93   R(42,43)                2.4116         estimate D2E/DX2                !
 ! R94   R(42,44)                2.374          estimate D2E/DX2                !
 ! R95   R(42,45)                3.0527         estimate D2E/DX2                !
 ! R96   R(42,61)                2.2901         estimate D2E/DX2                !
 ! R97   R(42,65)                2.9792         estimate D2E/DX2                !
 ! R98   R(43,45)                2.4036         estimate D2E/DX2                !
 ! R99   R(44,45)                2.4279         estimate D2E/DX2                !
 ! R100  R(45,46)                2.4217         estimate D2E/DX2                !
 ! R101  R(45,47)                2.5349         estimate D2E/DX2                !
 ! R102  R(45,65)                3.0843         estimate D2E/DX2                !
 ! R103  R(45,66)                2.4894         estimate D2E/DX2                !
 ! R104  R(46,48)                2.4435         estimate D2E/DX2                !
 ! R105  R(47,65)                2.3082         estimate D2E/DX2                !
 ! R106  R(47,68)                2.503          estimate D2E/DX2                !
 ! R107  R(48,49)                2.483          estimate D2E/DX2                !
 ! R108  R(48,50)                2.5593         estimate D2E/DX2                !
 ! R109  R(48,68)                3.1004         estimate D2E/DX2                !
 ! R110  R(48,70)                2.3319         estimate D2E/DX2                !
 ! R111  R(50,68)                2.2461         estimate D2E/DX2                !
 ! R112  R(51,52)                2.3403         estimate D2E/DX2                !
 ! R113  R(51,54)                3.016          estimate D2E/DX2                !
 ! R114  R(51,60)                2.1238         estimate D2E/DX2                !
 ! R115  R(51,63)                2.487          estimate D2E/DX2                !
 ! R116  R(52,54)                2.4632         estimate D2E/DX2                !
 ! R117  R(53,54)                2.1246         estimate D2E/DX2                !
 ! R118  R(54,55)                2.4487         estimate D2E/DX2                !
 ! R119  R(54,56)                2.4543         estimate D2E/DX2                !
 ! R120  R(54,57)                2.9736         estimate D2E/DX2                !
 ! R121  R(55,57)                2.3362         estimate D2E/DX2                !
 ! R122  R(56,57)                2.3495         estimate D2E/DX2                !
 ! R123  R(57,58)                2.1183         estimate D2E/DX2                !
 ! R124  R(57,64)                2.4762         estimate D2E/DX2                !
 ! R125  R(61,65)                2.3244         estimate D2E/DX2                !
 ! R126  R(65,66)                2.3343         estimate D2E/DX2                !
 ! R127  R(65,67)                2.292          estimate D2E/DX2                !
 ! R128  R(66,68)                2.4856         estimate D2E/DX2                !
 ! R129  R(67,71)                2.3563         estimate D2E/DX2                !
 ! R130  R(68,69)                2.2792         estimate D2E/DX2                !
 ! R131  R(68,70)                2.4359         estimate D2E/DX2                !
 ! R132  R(69,71)                2.3616         estimate D2E/DX2                !
 ! R133  R(71,72)                2.1726         estimate D2E/DX2                !
 ! R134  R(71,73)                2.1668         estimate D2E/DX2                !
 ! A1    A(2,1,3)               82.6249         estimate D2E/DX2                !
 ! A2    A(2,1,4)              136.5036         estimate D2E/DX2                !
 ! A3    A(2,1,5)               80.5577         estimate D2E/DX2                !
 ! A4    A(2,1,8)               84.8828         estimate D2E/DX2                !
 ! A5    A(2,1,46)             132.9536         estimate D2E/DX2                !
 ! A6    A(3,1,4)              134.8514         estimate D2E/DX2                !
 ! A7    A(3,1,5)              135.9905         estimate D2E/DX2                !
 ! A8    A(3,1,8)               81.3942         estimate D2E/DX2                !
 ! A9    A(3,1,46)              79.7848         estimate D2E/DX2                !
 ! A10   A(4,1,5)               81.6433         estimate D2E/DX2                !
 ! A11   A(4,1,8)               81.3928         estimate D2E/DX2                !
 ! A12   A(4,1,46)              82.9964         estimate D2E/DX2                !
 ! A13   A(5,1,8)              136.5007         estimate D2E/DX2                !
 ! A14   A(5,1,46)              82.6254         estimate D2E/DX2                !
 ! A15   A(8,1,46)             134.078          estimate D2E/DX2                !
 ! A16   A(1,2,12)              82.2767         estimate D2E/DX2                !
 ! A17   A(1,2,21)              80.3355         estimate D2E/DX2                !
 ! A18   A(12,2,21)             83.9086         estimate D2E/DX2                !
 ! A19   A(1,3,45)              82.9339         estimate D2E/DX2                !
 ! A20   A(1,3,48)              83.4034         estimate D2E/DX2                !
 ! A21   A(45,3,48)             83.3787         estimate D2E/DX2                !
 ! A22   A(1,4,6)               82.4347         estimate D2E/DX2                !
 ! A23   A(1,4,9)               81.7342         estimate D2E/DX2                !
 ! A24   A(6,4,9)               82.0152         estimate D2E/DX2                !
 ! A25   A(1,5,12)              82.319          estimate D2E/DX2                !
 ! A26   A(1,5,21)              80.8662         estimate D2E/DX2                !
 ! A27   A(12,5,21)             84.5618         estimate D2E/DX2                !
 ! A28   A(4,6,7)               81.9906         estimate D2E/DX2                !
 ! A29   A(4,6,8)               81.3536         estimate D2E/DX2                !
 ! A30   A(4,6,16)             137.036          estimate D2E/DX2                !
 ! A31   A(4,6,18)             131.1859         estimate D2E/DX2                !
 ! A32   A(4,6,43)             135.7241         estimate D2E/DX2                !
 ! A33   A(4,6,44)              82.1646         estimate D2E/DX2                !
 ! A34   A(7,6,8)              135.514          estimate D2E/DX2                !
 ! A35   A(7,6,16)              80.6314         estimate D2E/DX2                !
 ! A36   A(7,6,43)             135.6763         estimate D2E/DX2                !
 ! A37   A(7,6,44)              82.5402         estimate D2E/DX2                !
 ! A38   A(8,6,16)              84.1703         estimate D2E/DX2                !
 ! A39   A(8,6,18)             133.9791         estimate D2E/DX2                !
 ! A40   A(8,6,43)              81.616          estimate D2E/DX2                !
 ! A41   A(8,6,44)             134.9133         estimate D2E/DX2                !
 ! A42   A(16,6,43)             80.8716         estimate D2E/DX2                !
 ! A43   A(16,6,44)            133.3866         estimate D2E/DX2                !
 ! A44   A(18,6,43)             88.6225         estimate D2E/DX2                !
 ! A45   A(18,6,44)             86.963          estimate D2E/DX2                !
 ! A46   A(43,6,44)             81.6403         estimate D2E/DX2                !
 ! A47   A(6,7,13)              81.8705         estimate D2E/DX2                !
 ! A48   A(13,7,18)             84.5681         estimate D2E/DX2                !
 ! A49   A(1,8,6)               82.2859         estimate D2E/DX2                !
 ! A50   A(1,8,9)               81.9535         estimate D2E/DX2                !
 ! A51   A(6,8,9)               81.9798         estimate D2E/DX2                !
 ! A52   A(4,9,8)               81.4902         estimate D2E/DX2                !
 ! A53   A(4,9,10)              82.8181         estimate D2E/DX2                !
 ! A54   A(4,9,11)              81.5885         estimate D2E/DX2                !
 ! A55   A(4,9,15)             133.807          estimate D2E/DX2                !
 ! A56   A(4,9,26)             134.2796         estimate D2E/DX2                !
 ! A57   A(8,9,10)             134.4748         estimate D2E/DX2                !
 ! A58   A(8,9,11)             135.0576         estimate D2E/DX2                !
 ! A59   A(8,9,15)              82.5502         estimate D2E/DX2                !
 ! A60   A(8,9,26)              80.9528         estimate D2E/DX2                !
 ! A61   A(10,9,11)             83.709          estimate D2E/DX2                !
 ! A62   A(10,9,15)            135.8786         estimate D2E/DX2                !
 ! A63   A(10,9,26)             80.181          estimate D2E/DX2                !
 ! A64   A(11,9,15)             79.8902         estimate D2E/DX2                !
 ! A65   A(11,9,26)            137.3324         estimate D2E/DX2                !
 ! A66   A(15,9,26)             84.7901         estimate D2E/DX2                !
 ! A67   A(9,10,13)             83.5942         estimate D2E/DX2                !
 ! A68   A(9,10,24)             81.223          estimate D2E/DX2                !
 ! A69   A(13,10,24)            82.8032         estimate D2E/DX2                !
 ! A70   A(9,11,12)             83.9633         estimate D2E/DX2                !
 ! A71   A(9,11,27)             82.8238         estimate D2E/DX2                !
 ! A72   A(12,11,27)            81.9394         estimate D2E/DX2                !
 ! A73   A(2,12,5)              80.7782         estimate D2E/DX2                !
 ! A74   A(2,12,11)            134.6069         estimate D2E/DX2                !
 ! A75   A(2,12,14)             81.7557         estimate D2E/DX2                !
 ! A76   A(2,12,15)             82.2036         estimate D2E/DX2                !
 ! A77   A(2,12,52)            134.4167         estimate D2E/DX2                !
 ! A78   A(5,12,11)             81.671          estimate D2E/DX2                !
 ! A79   A(5,12,14)            135.0424         estimate D2E/DX2                !
 ! A80   A(5,12,15)            133.7268         estimate D2E/DX2                !
 ! A81   A(5,12,52)             81.5747         estimate D2E/DX2                !
 ! A82   A(11,12,14)           136.7954         estimate D2E/DX2                !
 ! A83   A(11,12,15)            80.4655         estimate D2E/DX2                !
 ! A84   A(11,12,52)            83.129          estimate D2E/DX2                !
 ! A85   A(14,12,15)            83.767          estimate D2E/DX2                !
 ! A86   A(14,12,52)            81.8261         estimate D2E/DX2                !
 ! A87   A(15,12,52)           137.2928         estimate D2E/DX2                !
 ! A88   A(7,13,10)             81.3773         estimate D2E/DX2                !
 ! A89   A(7,13,16)             81.2812         estimate D2E/DX2                !
 ! A90   A(7,13,26)            133.9581         estimate D2E/DX2                !
 ! A91   A(7,13,37)             82.689          estimate D2E/DX2                !
 ! A92   A(7,13,38)            134.6558         estimate D2E/DX2                !
 ! A93   A(10,13,16)           135.7673         estimate D2E/DX2                !
 ! A94   A(10,13,26)            80.7952         estimate D2E/DX2                !
 ! A95   A(10,13,37)            81.332          estimate D2E/DX2                !
 ! A96   A(10,13,38)           137.1171         estimate D2E/DX2                !
 ! A97   A(16,13,26)            82.687          estimate D2E/DX2                !
 ! A98   A(16,13,37)           135.7014         estimate D2E/DX2                !
 ! A99   A(16,13,38)            80.7906         estimate D2E/DX2                !
 ! A100  A(26,13,37)           135.2204         estimate D2E/DX2                !
 ! A101  A(26,13,38)            84.0595         estimate D2E/DX2                !
 ! A102  A(37,13,38)            81.8316         estimate D2E/DX2                !
 ! A103  A(12,14,51)            80.347          estimate D2E/DX2                !
 ! A104  A(12,14,54)            77.1604         estimate D2E/DX2                !
 ! A105  A(9,15,12)             83.8087         estimate D2E/DX2                !
 ! A106  A(9,15,27)             82.6678         estimate D2E/DX2                !
 ! A107  A(12,15,27)            81.9292         estimate D2E/DX2                !
 ! A108  A(6,16,13)             82.1662         estimate D2E/DX2                !
 ! A109  A(13,16,18)            84.3144         estimate D2E/DX2                !
 ! A110  A(24,17,33)            82.1238         estimate D2E/DX2                !
 ! A111  A(24,17,36)            82.0282         estimate D2E/DX2                !
 ! A112  A(33,17,36)            91.5461         estimate D2E/DX2                !
 ! A113  A(6,18,19)             93.8111         estimate D2E/DX2                !
 ! A114  A(6,18,20)             91.8166         estimate D2E/DX2                !
 ! A115  A(6,18,40)            144.1127         estimate D2E/DX2                !
 ! A116  A(6,18,42)             61.5327         estimate D2E/DX2                !
 ! A117  A(6,18,62)            146.9008         estimate D2E/DX2                !
 ! A118  A(7,18,16)             81.955          estimate D2E/DX2                !
 ! A119  A(7,18,19)             85.7791         estimate D2E/DX2                !
 ! A120  A(7,18,20)            139.9321         estimate D2E/DX2                !
 ! A121  A(7,18,40)             93.8487         estimate D2E/DX2                !
 ! A122  A(7,18,42)             94.3178         estimate D2E/DX2                !
 ! A123  A(7,18,62)            130.4516         estimate D2E/DX2                !
 ! A124  A(16,18,19)           140.7706         estimate D2E/DX2                !
 ! A125  A(16,18,20)            82.8026         estimate D2E/DX2                !
 ! A126  A(16,18,40)           130.0175         estimate D2E/DX2                !
 ! A127  A(16,18,42)            91.9613         estimate D2E/DX2                !
 ! A128  A(16,18,62)            96.8957         estimate D2E/DX2                !
 ! A129  A(19,18,20)            83.0892         estimate D2E/DX2                !
 ! A130  A(19,18,40)            87.758          estimate D2E/DX2                !
 ! A131  A(19,18,62)           118.9765         estimate D2E/DX2                !
 ! A132  A(20,18,40)           123.8934         estimate D2E/DX2                !
 ! A133  A(20,18,62)            88.0616         estimate D2E/DX2                !
 ! A134  A(40,18,42)           137.9657         estimate D2E/DX2                !
 ! A135  A(42,18,62)           135.1089         estimate D2E/DX2                !
 ! A136  A(2,21,5)              81.5436         estimate D2E/DX2                !
 ! A137  A(2,21,22)             95.513          estimate D2E/DX2                !
 ! A138  A(2,21,23)             82.0464         estimate D2E/DX2                !
 ! A139  A(2,21,48)             91.8563         estimate D2E/DX2                !
 ! A140  A(2,21,49)            141.3224         estimate D2E/DX2                !
 ! A141  A(2,21,63)            130.2397         estimate D2E/DX2                !
 ! A142  A(5,21,22)            130.9436         estimate D2E/DX2                !
 ! A143  A(5,21,23)            140.4204         estimate D2E/DX2                !
 ! A144  A(5,21,48)             95.1436         estimate D2E/DX2                !
 ! A145  A(5,21,49)             86.9435         estimate D2E/DX2                !
 ! A146  A(5,21,63)             96.205          estimate D2E/DX2                !
 ! A147  A(22,21,23)            86.3344         estimate D2E/DX2                !
 ! A148  A(22,21,48)           133.9019         estimate D2E/DX2                !
 ! A149  A(22,21,49)           119.3035         estimate D2E/DX2                !
 ! A150  A(23,21,49)            83.8394         estimate D2E/DX2                !
 ! A151  A(23,21,63)           121.6429         estimate D2E/DX2                !
 ! A152  A(48,21,63)           137.5574         estimate D2E/DX2                !
 ! A153  A(49,21,63)            87.5319         estimate D2E/DX2                !
 ! A154  A(21,22,51)            88.6176         estimate D2E/DX2                !
 ! A155  A(10,24,17)           132.9855         estimate D2E/DX2                !
 ! A156  A(10,24,25)            87.1512         estimate D2E/DX2                !
 ! A157  A(10,24,26)            81.6961         estimate D2E/DX2                !
 ! A158  A(10,24,28)            80.5726         estimate D2E/DX2                !
 ! A159  A(10,24,29)           135.1343         estimate D2E/DX2                !
 ! A160  A(17,24,25)            76.2782         estimate D2E/DX2                !
 ! A161  A(17,24,26)            80.6122         estimate D2E/DX2                !
 ! A162  A(17,24,28)           138.6605         estimate D2E/DX2                !
 ! A163  A(17,24,29)            85.7121         estimate D2E/DX2                !
 ! A164  A(25,24,26)           135.7273         estimate D2E/DX2                !
 ! A165  A(25,24,28)            83.7303         estimate D2E/DX2                !
 ! A166  A(25,24,29)           129.9411         estimate D2E/DX2                !
 ! A167  A(26,24,28)           135.3494         estimate D2E/DX2                !
 ! A168  A(26,24,29)            84.5068         estimate D2E/DX2                !
 ! A169  A(28,24,29)            79.9629         estimate D2E/DX2                !
 ! A170  A(24,25,33)            80.8691         estimate D2E/DX2                !
 ! A171  A(24,25,36)            82.7182         estimate D2E/DX2                !
 ! A172  A(33,25,36)            88.8209         estimate D2E/DX2                !
 ! A173  A(9,26,13)             83.2624         estimate D2E/DX2                !
 ! A174  A(9,26,24)             81.3825         estimate D2E/DX2                !
 ! A175  A(13,26,24)            82.4463         estimate D2E/DX2                !
 ! A176  A(11,27,15)            80.7021         estimate D2E/DX2                !
 ! A177  A(11,27,28)            81.1163         estimate D2E/DX2                !
 ! A178  A(11,27,29)           134.1337         estimate D2E/DX2                !
 ! A179  A(11,27,55)            81.6123         estimate D2E/DX2                !
 ! A180  A(11,27,56)           136.2661         estimate D2E/DX2                !
 ! A181  A(15,27,28)           132.7449         estimate D2E/DX2                !
 ! A182  A(15,27,29)            81.7874         estimate D2E/DX2                !
 ! A183  A(15,27,55)           135.9171         estimate D2E/DX2                !
 ! A184  A(15,27,56)            83.8479         estimate D2E/DX2                !
 ! A185  A(28,27,29)            80.4567         estimate D2E/DX2                !
 ! A186  A(28,27,55)            83.1776         estimate D2E/DX2                !
 ! A187  A(28,27,56)           136.0513         estimate D2E/DX2                !
 ! A188  A(29,27,55)           136.6028         estimate D2E/DX2                !
 ! A189  A(29,27,56)            82.8372         estimate D2E/DX2                !
 ! A190  A(55,27,56)            81.7225         estimate D2E/DX2                !
 ! A191  A(24,28,27)            84.2964         estimate D2E/DX2                !
 ! A192  A(24,28,30)            81.5554         estimate D2E/DX2                !
 ! A193  A(27,28,30)            82.2697         estimate D2E/DX2                !
 ! A194  A(24,29,27)            84.2            estimate D2E/DX2                !
 ! A195  A(24,29,30)            80.6964         estimate D2E/DX2                !
 ! A196  A(27,29,30)            81.739          estimate D2E/DX2                !
 ! A197  A(28,30,29)            82.2248         estimate D2E/DX2                !
 ! A198  A(28,30,31)           133.5109         estimate D2E/DX2                !
 ! A199  A(28,30,32)           139.3626         estimate D2E/DX2                !
 ! A200  A(28,30,33)            98.0868         estimate D2E/DX2                !
 ! A201  A(28,30,34)            88.6527         estimate D2E/DX2                !
 ! A202  A(28,30,64)            95.6298         estimate D2E/DX2                !
 ! A203  A(29,30,31)            99.9214         estimate D2E/DX2                !
 ! A204  A(29,30,32)            79.4898         estimate D2E/DX2                !
 ! A205  A(29,30,33)            88.3589         estimate D2E/DX2                !
 ! A206  A(29,30,34)           138.3484         estimate D2E/DX2                !
 ! A207  A(29,30,64)           133.3892         estimate D2E/DX2                !
 ! A208  A(31,30,32)            85.5082         estimate D2E/DX2                !
 ! A209  A(31,30,33)           128.3023         estimate D2E/DX2                !
 ! A210  A(31,30,34)           115.22           estimate D2E/DX2                !
 ! A211  A(32,30,34)            81.6311         estimate D2E/DX2                !
 ! A212  A(32,30,64)           123.077          estimate D2E/DX2                !
 ! A213  A(33,30,64)           137.5208         estimate D2E/DX2                !
 ! A214  A(34,30,64)            87.7991         estimate D2E/DX2                !
 ! A215  A(30,31,57)            87.6617         estimate D2E/DX2                !
 ! A216  A(17,33,25)            78.6855         estimate D2E/DX2                !
 ! A217  A(17,33,30)            98.2611         estimate D2E/DX2                !
 ! A218  A(17,33,32)            93.1179         estimate D2E/DX2                !
 ! A219  A(17,33,34)           138.0246         estimate D2E/DX2                !
 ! A220  A(17,33,59)           115.2172         estimate D2E/DX2                !
 ! A221  A(25,33,30)            86.6969         estimate D2E/DX2                !
 ! A222  A(25,33,32)           138.303          estimate D2E/DX2                !
 ! A223  A(25,33,34)            76.7971         estimate D2E/DX2                !
 ! A224  A(25,33,59)           115.8981         estimate D2E/DX2                !
 ! A225  A(30,33,59)           142.0346         estimate D2E/DX2                !
 ! A226  A(32,33,34)            83.3604         estimate D2E/DX2                !
 ! A227  A(32,33,59)           104.6547         estimate D2E/DX2                !
 ! A228  A(34,33,59)           106.053          estimate D2E/DX2                !
 ! A229  A(17,36,25)            77.7722         estimate D2E/DX2                !
 ! A230  A(17,36,35)           104.6062         estimate D2E/DX2                !
 ! A231  A(17,36,37)           138.681          estimate D2E/DX2                !
 ! A232  A(17,36,38)            82.1608         estimate D2E/DX2                !
 ! A233  A(17,36,39)           133.3762         estimate D2E/DX2                !
 ! A234  A(25,36,35)           102.5106         estimate D2E/DX2                !
 ! A235  A(25,36,37)            85.1467         estimate D2E/DX2                !
 ! A236  A(25,36,38)           141.4442         estimate D2E/DX2                !
 ! A237  A(25,36,39)           136.4553         estimate D2E/DX2                !
 ! A238  A(35,36,37)           115.7835         estimate D2E/DX2                !
 ! A239  A(35,36,38)           114.315          estimate D2E/DX2                !
 ! A240  A(35,36,39)            97.3937         estimate D2E/DX2                !
 ! A241  A(37,36,38)            88.7623         estimate D2E/DX2                !
 ! A242  A(13,37,36)            77.7806         estimate D2E/DX2                !
 ! A243  A(13,37,39)            79.0585         estimate D2E/DX2                !
 ! A244  A(13,38,36)            77.8771         estimate D2E/DX2                !
 ! A245  A(13,38,39)            79.2057         estimate D2E/DX2                !
 ! A246  A(36,39,40)           147.5653         estimate D2E/DX2                !
 ! A247  A(36,39,41)            95.5176         estimate D2E/DX2                !
 ! A248  A(36,39,62)           149.3631         estimate D2E/DX2                !
 ! A249  A(37,39,38)            91.6503         estimate D2E/DX2                !
 ! A250  A(37,39,40)            94.8448         estimate D2E/DX2                !
 ! A251  A(37,39,41)           113.9098         estimate D2E/DX2                !
 ! A252  A(37,39,62)           135.0372         estimate D2E/DX2                !
 ! A253  A(38,39,40)           134.5013         estimate D2E/DX2                !
 ! A254  A(38,39,41)           114.5778         estimate D2E/DX2                !
 ! A255  A(38,39,62)            96.529          estimate D2E/DX2                !
 ! A256  A(40,39,41)           103.5776         estimate D2E/DX2                !
 ! A257  A(41,39,62)           102.4966         estimate D2E/DX2                !
 ! A258  A(18,40,39)            88.7154         estimate D2E/DX2                !
 ! A259  A(18,42,43)            89.7036         estimate D2E/DX2                !
 ! A260  A(18,42,44)            89.0345         estimate D2E/DX2                !
 ! A261  A(18,42,45)           120.5846         estimate D2E/DX2                !
 ! A262  A(18,42,61)           128.5347         estimate D2E/DX2                !
 ! A263  A(19,42,20)            80.1649         estimate D2E/DX2                !
 ! A264  A(19,42,43)           134.6263         estimate D2E/DX2                !
 ! A265  A(19,42,44)            80.745          estimate D2E/DX2                !
 ! A266  A(19,42,45)           132.0432         estimate D2E/DX2                !
 ! A267  A(19,42,61)            88.3881         estimate D2E/DX2                !
 ! A268  A(19,42,65)           133.0881         estimate D2E/DX2                !
 ! A269  A(20,42,43)            81.4365         estimate D2E/DX2                !
 ! A270  A(20,42,44)           136.3155         estimate D2E/DX2                !
 ! A271  A(20,42,45)           131.9682         estimate D2E/DX2                !
 ! A272  A(20,42,61)           106.6406         estimate D2E/DX2                !
 ! A273  A(20,42,65)           127.3009         estimate D2E/DX2                !
 ! A274  A(43,42,44)            84.746          estimate D2E/DX2                !
 ! A275  A(43,42,61)           136.7258         estimate D2E/DX2                !
 ! A276  A(43,42,65)            90.4361         estimate D2E/DX2                !
 ! A277  A(44,42,61)           111.6888         estimate D2E/DX2                !
 ! A278  A(44,42,65)            93.8727         estimate D2E/DX2                !
 ! A279  A(45,42,61)           108.3912         estimate D2E/DX2                !
 ! A280  A(6,43,42)             81.6485         estimate D2E/DX2                !
 ! A281  A(6,43,45)             81.5685         estimate D2E/DX2                !
 ! A282  A(6,44,42)             81.9852         estimate D2E/DX2                !
 ! A283  A(6,44,45)             80.6791         estimate D2E/DX2                !
 ! A284  A(3,45,42)            133.3905         estimate D2E/DX2                !
 ! A285  A(3,45,43)             82.6177         estimate D2E/DX2                !
 ! A286  A(3,45,44)            136.117          estimate D2E/DX2                !
 ! A287  A(3,45,46)             80.217          estimate D2E/DX2                !
 ! A288  A(3,45,47)            132.1987         estimate D2E/DX2                !
 ! A289  A(3,45,65)            130.6173         estimate D2E/DX2                !
 ! A290  A(3,45,66)             82.6466         estimate D2E/DX2                !
 ! A291  A(42,45,46)           131.3521         estimate D2E/DX2                !
 ! A292  A(42,45,47)            89.1611         estimate D2E/DX2                !
 ! A293  A(42,45,66)            86.5384         estimate D2E/DX2                !
 ! A294  A(43,45,44)            83.761          estimate D2E/DX2                !
 ! A295  A(43,45,46)           136.4775         estimate D2E/DX2                !
 ! A296  A(43,45,47)           133.8726         estimate D2E/DX2                !
 ! A297  A(43,45,65)            88.1102         estimate D2E/DX2                !
 ! A298  A(43,45,66)            76.9485         estimate D2E/DX2                !
 ! A299  A(44,45,46)            81.6125         estimate D2E/DX2                !
 ! A300  A(44,45,47)            85.2339         estimate D2E/DX2                !
 ! A301  A(44,45,65)            90.227          estimate D2E/DX2                !
 ! A302  A(44,45,66)           133.7636         estimate D2E/DX2                !
 ! A303  A(46,45,47)            85.3413         estimate D2E/DX2                !
 ! A304  A(46,45,65)           132.5125         estimate D2E/DX2                !
 ! A305  A(46,45,66)           138.8587         estimate D2E/DX2                !
 ! A306  A(47,45,66)            79.0681         estimate D2E/DX2                !
 ! A307  A(1,46,45)             82.9557         estimate D2E/DX2                !
 ! A308  A(1,46,48)             83.0571         estimate D2E/DX2                !
 ! A309  A(45,46,48)            83.4356         estimate D2E/DX2                !
 ! A310  A(45,47,68)            78.7981         estimate D2E/DX2                !
 ! A311  A(65,47,68)            85.7071         estimate D2E/DX2                !
 ! A312  A(3,48,21)             91.1559         estimate D2E/DX2                !
 ! A313  A(3,48,23)             84.4306         estimate D2E/DX2                !
 ! A314  A(3,48,46)             79.7044         estimate D2E/DX2                !
 ! A315  A(3,48,49)            134.8157         estimate D2E/DX2                !
 ! A316  A(3,48,50)             78.0381         estimate D2E/DX2                !
 ! A317  A(3,48,68)             86.8059         estimate D2E/DX2                !
 ! A318  A(3,48,70)            134.3903         estimate D2E/DX2                !
 ! A319  A(21,48,46)            88.1687         estimate D2E/DX2                !
 ! A320  A(21,48,50)           132.235          estimate D2E/DX2                !
 ! A321  A(21,48,70)           131.5774         estimate D2E/DX2                !
 ! A322  A(23,48,46)           135.1102         estimate D2E/DX2                !
 ! A323  A(23,48,49)            80.5049         estimate D2E/DX2                !
 ! A324  A(23,48,50)            82.1896         estimate D2E/DX2                !
 ! A325  A(23,48,68)           127.6347         estimate D2E/DX2                !
 ! A326  A(23,48,70)           132.4205         estimate D2E/DX2                !
 ! A327  A(46,48,49)            81.649          estimate D2E/DX2                !
 ! A328  A(46,48,50)           133.5789         estimate D2E/DX2                !
 ! A329  A(46,48,68)            93.2174         estimate D2E/DX2                !
 ! A330  A(46,48,70)            85.8041         estimate D2E/DX2                !
 ! A331  A(49,48,50)           140.2756         estimate D2E/DX2                !
 ! A332  A(49,48,68)           135.1474         estimate D2E/DX2                !
 ! A333  A(49,48,70)            84.2351         estimate D2E/DX2                !
 ! A334  A(50,48,70)            81.584          estimate D2E/DX2                !
 ! A335  A(14,51,22)            95.8016         estimate D2E/DX2                !
 ! A336  A(14,51,52)            91.1224         estimate D2E/DX2                !
 ! A337  A(14,51,60)           117.0241         estimate D2E/DX2                !
 ! A338  A(14,51,63)           134.644          estimate D2E/DX2                !
 ! A339  A(22,51,52)           133.5758         estimate D2E/DX2                !
 ! A340  A(22,51,54)           148.2659         estimate D2E/DX2                !
 ! A341  A(22,51,60)           100.3367         estimate D2E/DX2                !
 ! A342  A(52,51,60)           116.9392         estimate D2E/DX2                !
 ! A343  A(52,51,63)            94.4453         estimate D2E/DX2                !
 ! A344  A(54,51,60)            99.7298         estimate D2E/DX2                !
 ! A345  A(54,51,63)           147.0292         estimate D2E/DX2                !
 ! A346  A(60,51,63)           100.1338         estimate D2E/DX2                !
 ! A347  A(12,52,51)            80.401          estimate D2E/DX2                !
 ! A348  A(12,52,54)            77.1385         estimate D2E/DX2                !
 ! A349  A(14,54,52)            85.5375         estimate D2E/DX2                !
 ! A350  A(14,54,53)           106.6721         estimate D2E/DX2                !
 ! A351  A(14,54,55)           143.2991         estimate D2E/DX2                !
 ! A352  A(14,54,56)            83.2908         estimate D2E/DX2                !
 ! A353  A(14,54,57)           133.4261         estimate D2E/DX2                !
 ! A354  A(51,54,53)            85.1245         estimate D2E/DX2                !
 ! A355  A(51,54,55)           131.4067         estimate D2E/DX2                !
 ! A356  A(51,54,56)           132.6827         estimate D2E/DX2                !
 ! A357  A(52,54,53)           106.2106         estimate D2E/DX2                !
 ! A358  A(52,54,55)            82.1693         estimate D2E/DX2                !
 ! A359  A(52,54,56)           143.9032         estimate D2E/DX2                !
 ! A360  A(52,54,57)           131.9572         estimate D2E/DX2                !
 ! A361  A(53,54,55)           109.9491         estimate D2E/DX2                !
 ! A362  A(53,54,56)           109.8704         estimate D2E/DX2                !
 ! A363  A(53,54,57)            89.8495         estimate D2E/DX2                !
 ! A364  A(55,54,56)            86.613          estimate D2E/DX2                !
 ! A365  A(27,55,54)            77.4635         estimate D2E/DX2                !
 ! A366  A(27,55,57)            79.8952         estimate D2E/DX2                !
 ! A367  A(27,56,54)            77.6042         estimate D2E/DX2                !
 ! A368  A(27,56,57)            79.9151         estimate D2E/DX2                !
 ! A369  A(31,57,54)           149.5561         estimate D2E/DX2                !
 ! A370  A(31,57,55)           133.3293         estimate D2E/DX2                !
 ! A371  A(31,57,56)            96.7161         estimate D2E/DX2                !
 ! A372  A(31,57,58)           101.0627         estimate D2E/DX2                !
 ! A373  A(54,57,58)            98.308          estimate D2E/DX2                !
 ! A374  A(54,57,64)           145.6293         estimate D2E/DX2                !
 ! A375  A(55,57,56)            91.7281         estimate D2E/DX2                !
 ! A376  A(55,57,58)           115.7163         estimate D2E/DX2                !
 ! A377  A(55,57,64)            92.7345         estimate D2E/DX2                !
 ! A378  A(56,57,58)           116.5722         estimate D2E/DX2                !
 ! A379  A(56,57,64)           134.2178         estimate D2E/DX2                !
 ! A380  A(58,57,64)           102.1011         estimate D2E/DX2                !
 ! A381  A(18,62,39)            88.4315         estimate D2E/DX2                !
 ! A382  A(21,63,51)            88.6593         estimate D2E/DX2                !
 ! A383  A(30,64,57)            87.9258         estimate D2E/DX2                !
 ! A384  A(42,65,47)            95.4846         estimate D2E/DX2                !
 ! A385  A(42,65,66)            91.1261         estimate D2E/DX2                !
 ! A386  A(42,65,67)           134.5511         estimate D2E/DX2                !
 ! A387  A(45,65,61)           106.4463         estimate D2E/DX2                !
 ! A388  A(45,65,67)           149.5191         estimate D2E/DX2                !
 ! A389  A(47,65,61)           111.7335         estimate D2E/DX2                !
 ! A390  A(47,65,66)            87.0874         estimate D2E/DX2                !
 ! A391  A(47,65,67)           129.3429         estimate D2E/DX2                !
 ! A392  A(61,65,66)           135.9753         estimate D2E/DX2                !
 ! A393  A(61,65,67)            99.4559         estimate D2E/DX2                !
 ! A394  A(66,65,67)            97.4523         estimate D2E/DX2                !
 ! A395  A(45,66,68)            79.997          estimate D2E/DX2                !
 ! A396  A(65,66,68)            85.5551         estimate D2E/DX2                !
 ! A397  A(65,67,71)            89.9716         estimate D2E/DX2                !
 ! A398  A(47,68,48)            92.5988         estimate D2E/DX2                !
 ! A399  A(47,68,50)           142.8274         estimate D2E/DX2                !
 ! A400  A(47,68,66)            79.7511         estimate D2E/DX2                !
 ! A401  A(47,68,69)           114.6274         estimate D2E/DX2                !
 ! A402  A(47,68,70)            81.6021         estimate D2E/DX2                !
 ! A403  A(48,68,66)            96.4062         estimate D2E/DX2                !
 ! A404  A(48,68,69)           137.7781         estimate D2E/DX2                !
 ! A405  A(50,68,66)            86.9203         estimate D2E/DX2                !
 ! A406  A(50,68,69)           102.231          estimate D2E/DX2                !
 ! A407  A(50,68,70)            86.1341         estimate D2E/DX2                !
 ! A408  A(66,68,69)           118.8881         estimate D2E/DX2                !
 ! A409  A(66,68,70)           138.6268         estimate D2E/DX2                !
 ! A410  A(69,68,70)           102.4422         estimate D2E/DX2                !
 ! A411  A(68,69,71)            93.4386         estimate D2E/DX2                !
 ! A412  A(67,71,69)           126.2654         estimate D2E/DX2                !
 ! A413  A(67,71,72)           113.6            estimate D2E/DX2                !
 ! A414  A(67,71,73)           102.556          estimate D2E/DX2                !
 ! A415  A(69,71,72)           111.8364         estimate D2E/DX2                !
 ! A416  A(69,71,73)           104.031          estimate D2E/DX2                !
 ! A417  A(72,71,73)            90.7159         estimate D2E/DX2                !
 ! A418  L(18,42,65,43,-1)     180.1397         estimate D2E/DX2                !
 ! A419  L(21,48,68,3,-1)      177.9619         estimate D2E/DX2                !
 ! A420  L(51,54,57,53,-1)     174.974          estimate D2E/DX2                !
 ! A421  L(18,42,65,43,-2)     177.0933         estimate D2E/DX2                !
 ! A422  L(21,48,68,3,-2)      181.7854         estimate D2E/DX2                !
 ! A423  L(51,54,57,53,-2)     179.1407         estimate D2E/DX2                !
 ! D1    D(3,1,2,12)          -178.7969         estimate D2E/DX2                !
 ! D2    D(3,1,2,21)            96.1098         estimate D2E/DX2                !
 ! D3    D(4,1,2,12)           -25.0596         estimate D2E/DX2                !
 ! D4    D(4,1,2,21)          -110.1529         estimate D2E/DX2                !
 ! D5    D(5,1,2,12)            42.0279         estimate D2E/DX2                !
 ! D6    D(5,1,2,21)           -43.0654         estimate D2E/DX2                !
 ! D7    D(8,1,2,12)           -96.8388         estimate D2E/DX2                !
 ! D8    D(8,1,2,21)           178.0679         estimate D2E/DX2                !
 ! D9    D(46,1,2,12)          112.6004         estimate D2E/DX2                !
 ! D10   D(46,1,2,21)           27.5071         estimate D2E/DX2                !
 ! D11   D(2,1,3,45)          -178.114          estimate D2E/DX2                !
 ! D12   D(2,1,3,48)           -94.0045         estimate D2E/DX2                !
 ! D13   D(4,1,3,45)            27.3289         estimate D2E/DX2                !
 ! D14   D(4,1,3,48)           111.4384         estimate D2E/DX2                !
 ! D15   D(5,1,3,45)          -109.9584         estimate D2E/DX2                !
 ! D16   D(5,1,3,48)           -25.8489         estimate D2E/DX2                !
 ! D17   D(8,1,3,45)            95.9788         estimate D2E/DX2                !
 ! D18   D(8,1,3,48)          -179.9117         estimate D2E/DX2                !
 ! D19   D(46,1,3,45)          -41.9371         estimate D2E/DX2                !
 ! D20   D(46,1,3,48)           42.1724         estimate D2E/DX2                !
 ! D21   D(2,1,4,6)           -114.4337         estimate D2E/DX2                !
 ! D22   D(2,1,4,9)            -31.4589         estimate D2E/DX2                !
 ! D23   D(3,1,4,6)             27.3238         estimate D2E/DX2                !
 ! D24   D(3,1,4,9)            110.2985         estimate D2E/DX2                !
 ! D25   D(5,1,4,6)            178.877          estimate D2E/DX2                !
 ! D26   D(5,1,4,9)            -98.1482         estimate D2E/DX2                !
 ! D27   D(8,1,4,6)            -41.3267         estimate D2E/DX2                !
 ! D28   D(8,1,4,9)             41.6481         estimate D2E/DX2                !
 ! D29   D(46,1,4,6)            95.3459         estimate D2E/DX2                !
 ! D30   D(46,1,4,9)           178.3207         estimate D2E/DX2                !
 ! D31   D(2,1,5,12)           -42.087          estimate D2E/DX2                !
 ! D32   D(2,1,5,21)            43.6017         estimate D2E/DX2                !
 ! D33   D(3,1,5,12)          -111.0202         estimate D2E/DX2                !
 ! D34   D(3,1,5,21)           -25.3315         estimate D2E/DX2                !
 ! D35   D(4,1,5,12)            98.0611         estimate D2E/DX2                !
 ! D36   D(4,1,5,21)          -176.2502         estimate D2E/DX2                !
 ! D37   D(8,1,5,12)            30.0578         estimate D2E/DX2                !
 ! D38   D(8,1,5,21)           115.7465         estimate D2E/DX2                !
 ! D39   D(46,1,5,12)         -177.9808         estimate D2E/DX2                !
 ! D40   D(46,1,5,21)          -92.2921         estimate D2E/DX2                !
 ! D41   D(2,1,8,6)            179.7464         estimate D2E/DX2                !
 ! D42   D(2,1,8,9)             96.8144         estimate D2E/DX2                !
 ! D43   D(3,1,8,6)            -96.9607         estimate D2E/DX2                !
 ! D44   D(3,1,8,9)           -179.8927         estimate D2E/DX2                !
 ! D45   D(4,1,8,6)             41.1412         estimate D2E/DX2                !
 ! D46   D(4,1,8,9)            -41.7908         estimate D2E/DX2                !
 ! D47   D(5,1,8,6)            109.2372         estimate D2E/DX2                !
 ! D48   D(5,1,8,9)             26.3052         estimate D2E/DX2                !
 ! D49   D(46,1,8,6)           -30.3028         estimate D2E/DX2                !
 ! D50   D(46,1,8,9)          -113.2348         estimate D2E/DX2                !
 ! D51   D(2,1,46,45)          111.911          estimate D2E/DX2                !
 ! D52   D(2,1,46,48)           27.7073         estimate D2E/DX2                !
 ! D53   D(3,1,46,45)           42.1525         estimate D2E/DX2                !
 ! D54   D(3,1,46,48)          -42.0511         estimate D2E/DX2                !
 ! D55   D(4,1,46,45)          -95.934          estimate D2E/DX2                !
 ! D56   D(4,1,46,48)          179.8624         estimate D2E/DX2                !
 ! D57   D(5,1,46,45)         -178.3632         estimate D2E/DX2                !
 ! D58   D(5,1,46,48)           97.4331         estimate D2E/DX2                !
 ! D59   D(8,1,46,45)          -25.1329         estimate D2E/DX2                !
 ! D60   D(8,1,46,48)         -109.3366         estimate D2E/DX2                !
 ! D61   D(1,2,12,5)           -42.1548         estimate D2E/DX2                !
 ! D62   D(1,2,12,11)           26.3592         estimate D2E/DX2                !
 ! D63   D(1,2,12,14)          179.4359         estimate D2E/DX2                !
 ! D64   D(1,2,12,15)           94.6507         estimate D2E/DX2                !
 ! D65   D(1,2,12,52)         -110.6302         estimate D2E/DX2                !
 ! D66   D(21,2,12,5)           38.8759         estimate D2E/DX2                !
 ! D67   D(21,2,12,11)         107.3899         estimate D2E/DX2                !
 ! D68   D(21,2,12,14)         -99.5334         estimate D2E/DX2                !
 ! D69   D(21,2,12,15)         175.6814         estimate D2E/DX2                !
 ! D70   D(21,2,12,52)         -29.5995         estimate D2E/DX2                !
 ! D71   D(1,2,21,5)            43.7876         estimate D2E/DX2                !
 ! D72   D(1,2,21,22)          174.4233         estimate D2E/DX2                !
 ! D73   D(1,2,21,23)         -100.0698         estimate D2E/DX2                !
 ! D74   D(1,2,21,48)          -51.1382         estimate D2E/DX2                !
 ! D75   D(1,2,21,49)          -30.4301         estimate D2E/DX2                !
 ! D76   D(1,2,21,63)          134.781          estimate D2E/DX2                !
 ! D77   D(12,2,21,5)          -39.3824         estimate D2E/DX2                !
 ! D78   D(12,2,21,22)          91.2534         estimate D2E/DX2                !
 ! D79   D(12,2,21,23)         176.7602         estimate D2E/DX2                !
 ! D80   D(12,2,21,48)        -134.3082         estimate D2E/DX2                !
 ! D81   D(12,2,21,49)        -113.6001         estimate D2E/DX2                !
 ! D82   D(12,2,21,63)          51.611          estimate D2E/DX2                !
 ! D83   D(1,3,45,42)          -97.1205         estimate D2E/DX2                !
 ! D84   D(1,3,45,43)          -97.5369         estimate D2E/DX2                !
 ! D85   D(1,3,45,44)          -24.5628         estimate D2E/DX2                !
 ! D86   D(1,3,45,46)           42.3074         estimate D2E/DX2                !
 ! D87   D(1,3,45,47)          116.7863         estimate D2E/DX2                !
 ! D88   D(1,3,45,65)         -178.6244         estimate D2E/DX2                !
 ! D89   D(1,3,45,66)         -175.2456         estimate D2E/DX2                !
 ! D90   D(48,3,45,42)         178.7423         estimate D2E/DX2                !
 ! D91   D(48,3,45,43)         178.3259         estimate D2E/DX2                !
 ! D92   D(48,3,45,44)        -108.7            estimate D2E/DX2                !
 ! D93   D(48,3,45,46)         -41.8299         estimate D2E/DX2                !
 ! D94   D(48,3,45,47)          32.6491         estimate D2E/DX2                !
 ! D95   D(48,3,45,65)          97.2384         estimate D2E/DX2                !
 ! D96   D(48,3,45,66)         100.6172         estimate D2E/DX2                !
 ! D97   D(1,3,48,21)           45.7685         estimate D2E/DX2                !
 ! D98   D(1,3,48,23)           95.673          estimate D2E/DX2                !
 ! D99   D(1,3,48,46)          -42.1597         estimate D2E/DX2                !
 ! D100  D(1,3,48,49)           24.9744         estimate D2E/DX2                !
 ! D101  D(1,3,48,50)          178.8437         estimate D2E/DX2                !
 ! D102  D(1,3,48,68)         -136.0169         estimate D2E/DX2                !
 ! D103  D(1,3,48,70)         -115.7866         estimate D2E/DX2                !
 ! D104  D(45,3,48,21)         129.3816         estimate D2E/DX2                !
 ! D105  D(45,3,48,23)         179.2861         estimate D2E/DX2                !
 ! D106  D(45,3,48,46)          41.4533         estimate D2E/DX2                !
 ! D107  D(45,3,48,49)         108.5874         estimate D2E/DX2                !
 ! D108  D(45,3,48,50)         -97.5432         estimate D2E/DX2                !
 ! D109  D(45,3,48,68)         -52.4038         estimate D2E/DX2                !
 ! D110  D(45,3,48,70)         -32.1735         estimate D2E/DX2                !
 ! D111  D(1,4,6,7)            179.7852         estimate D2E/DX2                !
 ! D112  D(1,4,6,8)             41.1836         estimate D2E/DX2                !
 ! D113  D(1,4,6,16)           112.8818         estimate D2E/DX2                !
 ! D114  D(1,4,6,18)          -175.6633         estimate D2E/DX2                !
 ! D115  D(1,4,6,43)           -27.2723         estimate D2E/DX2                !
 ! D116  D(1,4,6,44)           -96.7021         estimate D2E/DX2                !
 ! D117  D(9,4,6,7)             97.1287         estimate D2E/DX2                !
 ! D118  D(9,4,6,8)            -41.4728         estimate D2E/DX2                !
 ! D119  D(9,4,6,16)            30.2253         estimate D2E/DX2                !
 ! D120  D(9,4,6,18)           101.6803         estimate D2E/DX2                !
 ! D121  D(9,4,6,43)          -109.9287         estimate D2E/DX2                !
 ! D122  D(9,4,6,44)          -179.3585         estimate D2E/DX2                !
 ! D123  D(1,4,9,8)            -41.7435         estimate D2E/DX2                !
 ! D124  D(1,4,9,10)          -178.8693         estimate D2E/DX2                !
 ! D125  D(1,4,9,11)            96.4676         estimate D2E/DX2                !
 ! D126  D(1,4,9,15)            29.28           estimate D2E/DX2                !
 ! D127  D(1,4,9,26)          -110.1515         estimate D2E/DX2                !
 ! D128  D(6,4,9,8)             41.7128         estimate D2E/DX2                !
 ! D129  D(6,4,9,10)           -95.4131         estimate D2E/DX2                !
 ! D130  D(6,4,9,11)           179.9238         estimate D2E/DX2                !
 ! D131  D(6,4,9,15)           112.7362         estimate D2E/DX2                !
 ! D132  D(6,4,9,26)           -26.6953         estimate D2E/DX2                !
 ! D133  D(1,5,12,2)            42.1293         estimate D2E/DX2                !
 ! D134  D(1,5,12,11)          -95.8399         estimate D2E/DX2                !
 ! D135  D(1,5,12,14)          110.5251         estimate D2E/DX2                !
 ! D136  D(1,5,12,15)          -27.6601         estimate D2E/DX2                !
 ! D137  D(1,5,12,52)          179.9305         estimate D2E/DX2                !
 ! D138  D(21,5,12,2)          -39.356          estimate D2E/DX2                !
 ! D139  D(21,5,12,11)        -177.3253         estimate D2E/DX2                !
 ! D140  D(21,5,12,14)          29.0398         estimate D2E/DX2                !
 ! D141  D(21,5,12,15)        -109.1454         estimate D2E/DX2                !
 ! D142  D(21,5,12,52)          98.4452         estimate D2E/DX2                !
 ! D143  D(1,5,21,2)           -43.6821         estimate D2E/DX2                !
 ! D144  D(1,5,21,22)         -133.6593         estimate D2E/DX2                !
 ! D145  D(1,5,21,23)           22.7771         estimate D2E/DX2                !
 ! D146  D(1,5,21,48)           47.4352         estimate D2E/DX2                !
 ! D147  D(1,5,21,49)           99.2877         estimate D2E/DX2                !
 ! D148  D(1,5,21,63)         -173.5315         estimate D2E/DX2                !
 ! D149  D(12,5,21,2)           39.3866         estimate D2E/DX2                !
 ! D150  D(12,5,21,22)         -50.5906         estimate D2E/DX2                !
 ! D151  D(12,5,21,23)         105.8458         estimate D2E/DX2                !
 ! D152  D(12,5,21,48)         130.5039         estimate D2E/DX2                !
 ! D153  D(12,5,21,49)        -177.6435         estimate D2E/DX2                !
 ! D154  D(12,5,21,63)         -90.4627         estimate D2E/DX2                !
 ! D155  D(4,6,7,13)           -98.632          estimate D2E/DX2                !
 ! D156  D(8,6,7,13)           -29.7267         estimate D2E/DX2                !
 ! D157  D(16,6,7,13)           41.9195         estimate D2E/DX2                !
 ! D158  D(43,6,7,13)          108.4005         estimate D2E/DX2                !
 ! D159  D(44,6,7,13)          178.2845         estimate D2E/DX2                !
 ! D160  D(4,6,8,1)            -41.255          estimate D2E/DX2                !
 ! D161  D(4,6,8,9)             41.6471         estimate D2E/DX2                !
 ! D162  D(7,6,8,1)           -110.4035         estimate D2E/DX2                !
 ! D163  D(7,6,8,9)            -27.5014         estimate D2E/DX2                !
 ! D164  D(16,6,8,1)           179.3188         estimate D2E/DX2                !
 ! D165  D(16,6,8,9)           -97.7791         estimate D2E/DX2                !
 ! D166  D(18,6,8,1)           177.5863         estimate D2E/DX2                !
 ! D167  D(18,6,8,9)           -99.5116         estimate D2E/DX2                !
 ! D168  D(43,6,8,1)            97.7225         estimate D2E/DX2                !
 ! D169  D(43,6,8,9)          -179.3754         estimate D2E/DX2                !
 ! D170  D(44,6,8,1)            28.4824         estimate D2E/DX2                !
 ! D171  D(44,6,8,9)           111.3844         estimate D2E/DX2                !
 ! D172  D(4,6,16,13)           25.3883         estimate D2E/DX2                !
 ! D173  D(7,6,16,13)          -42.008          estimate D2E/DX2                !
 ! D174  D(8,6,16,13)           96.037          estimate D2E/DX2                !
 ! D175  D(43,6,16,13)         178.4496         estimate D2E/DX2                !
 ! D176  D(44,6,16,13)        -112.3132         estimate D2E/DX2                !
 ! D177  D(4,6,18,19)           75.4323         estimate D2E/DX2                !
 ! D178  D(4,6,18,20)          158.6245         estimate D2E/DX2                !
 ! D179  D(4,6,18,40)          -16.0108         estimate D2E/DX2                !
 ! D180  D(4,6,18,42)          117.7735         estimate D2E/DX2                !
 ! D181  D(4,6,18,62)         -112.1386         estimate D2E/DX2                !
 ! D182  D(8,6,18,19)         -160.0435         estimate D2E/DX2                !
 ! D183  D(8,6,18,20)          -76.8513         estimate D2E/DX2                !
 ! D184  D(8,6,18,40)          108.5135         estimate D2E/DX2                !
 ! D185  D(8,6,18,42)         -117.7022         estimate D2E/DX2                !
 ! D186  D(8,6,18,62)           12.3857         estimate D2E/DX2                !
 ! D187  D(43,6,18,19)         -83.0985         estimate D2E/DX2                !
 ! D188  D(43,6,18,20)           0.0937         estimate D2E/DX2                !
 ! D189  D(43,6,18,40)        -174.5415         estimate D2E/DX2                !
 ! D190  D(43,6,18,42)         -40.7572         estimate D2E/DX2                !
 ! D191  D(43,6,18,62)          89.3307         estimate D2E/DX2                !
 ! D192  D(44,6,18,19)          -1.3986         estimate D2E/DX2                !
 ! D193  D(44,6,18,20)          81.7936         estimate D2E/DX2                !
 ! D194  D(44,6,18,40)         -92.8416         estimate D2E/DX2                !
 ! D195  D(44,6,18,42)          40.9427         estimate D2E/DX2                !
 ! D196  D(44,6,18,62)         171.0306         estimate D2E/DX2                !
 ! D197  D(4,6,43,42)         -108.4306         estimate D2E/DX2                !
 ! D198  D(4,6,43,45)          -28.7241         estimate D2E/DX2                !
 ! D199  D(7,6,43,42)           31.4276         estimate D2E/DX2                !
 ! D200  D(7,6,43,45)          111.1341         estimate D2E/DX2                !
 ! D201  D(8,6,43,42)         -176.7872         estimate D2E/DX2                !
 ! D202  D(8,6,43,45)          -97.0807         estimate D2E/DX2                !
 ! D203  D(16,6,43,42)          97.8189         estimate D2E/DX2                !
 ! D204  D(16,6,43,45)         177.5254         estimate D2E/DX2                !
 ! D205  D(18,6,43,42)          48.3312         estimate D2E/DX2                !
 ! D206  D(18,6,43,45)         128.0377         estimate D2E/DX2                !
 ! D207  D(44,6,43,42)         -38.801          estimate D2E/DX2                !
 ! D208  D(44,6,43,45)          40.9055         estimate D2E/DX2                !
 ! D209  D(4,6,44,42)          178.1482         estimate D2E/DX2                !
 ! D210  D(4,6,44,45)           98.124          estimate D2E/DX2                !
 ! D211  D(7,6,44,42)          -98.965          estimate D2E/DX2                !
 ! D212  D(7,6,44,45)         -178.9893         estimate D2E/DX2                !
 ! D213  D(8,6,44,42)          108.7263         estimate D2E/DX2                !
 ! D214  D(8,6,44,45)           28.7021         estimate D2E/DX2                !
 ! D215  D(16,6,44,42)         -29.4323         estimate D2E/DX2                !
 ! D216  D(16,6,44,45)        -109.4565         estimate D2E/DX2                !
 ! D217  D(18,6,44,42)         -49.557          estimate D2E/DX2                !
 ! D218  D(18,6,44,45)        -129.5812         estimate D2E/DX2                !
 ! D219  D(43,6,44,42)          39.4956         estimate D2E/DX2                !
 ! D220  D(43,6,44,45)         -40.5286         estimate D2E/DX2                !
 ! D221  D(6,7,13,10)           97.0082         estimate D2E/DX2                !
 ! D222  D(6,7,13,16)          -42.1424         estimate D2E/DX2                !
 ! D223  D(6,7,13,26)           28.7845         estimate D2E/DX2                !
 ! D224  D(6,7,13,37)          179.2943         estimate D2E/DX2                !
 ! D225  D(6,7,13,38)         -109.8617         estimate D2E/DX2                !
 ! D226  D(18,7,13,10)         177.6111         estimate D2E/DX2                !
 ! D227  D(18,7,13,16)          38.4605         estimate D2E/DX2                !
 ! D228  D(18,7,13,26)         109.3873         estimate D2E/DX2                !
 ! D229  D(18,7,13,37)        -100.1028         estimate D2E/DX2                !
 ! D230  D(18,7,13,38)         -29.2588         estimate D2E/DX2                !
 ! D231  D(13,7,18,16)         -38.4683         estimate D2E/DX2                !
 ! D232  D(13,7,18,19)         178.888          estimate D2E/DX2                !
 ! D233  D(13,7,18,20)        -107.0846         estimate D2E/DX2                !
 ! D234  D(13,7,18,40)          91.4259         estimate D2E/DX2                !
 ! D235  D(13,7,18,42)        -129.8431         estimate D2E/DX2                !
 ! D236  D(13,7,18,62)          53.7574         estimate D2E/DX2                !
 ! D237  D(1,8,9,4)             41.7704         estimate D2E/DX2                !
 ! D238  D(1,8,9,10)           112.8616         estimate D2E/DX2                !
 ! D239  D(1,8,9,11)           -27.1716         estimate D2E/DX2                !
 ! D240  D(1,8,9,15)           -94.7368         estimate D2E/DX2                !
 ! D241  D(1,8,9,26)           179.387          estimate D2E/DX2                !
 ! D242  D(6,8,9,4)            -41.5115         estimate D2E/DX2                !
 ! D243  D(6,8,9,10)            29.5798         estimate D2E/DX2                !
 ! D244  D(6,8,9,11)          -110.4534         estimate D2E/DX2                !
 ! D245  D(6,8,9,15)          -178.0186         estimate D2E/DX2                !
 ! D246  D(6,8,9,26)            96.1051         estimate D2E/DX2                !
 ! D247  D(4,9,10,13)           96.2884         estimate D2E/DX2                !
 ! D248  D(4,9,10,24)          179.9602         estimate D2E/DX2                !
 ! D249  D(8,9,10,13)           25.7235         estimate D2E/DX2                !
 ! D250  D(8,9,10,24)          109.3953         estimate D2E/DX2                !
 ! D251  D(11,9,10,13)         178.5622         estimate D2E/DX2                !
 ! D252  D(11,9,10,24)         -97.766          estimate D2E/DX2                !
 ! D253  D(15,9,10,13)        -112.9896         estimate D2E/DX2                !
 ! D254  D(15,9,10,24)         -29.3179         estimate D2E/DX2                !
 ! D255  D(26,9,10,13)         -41.0992         estimate D2E/DX2                !
 ! D256  D(26,9,10,24)          42.5725         estimate D2E/DX2                !
 ! D257  D(4,9,11,12)          -96.7479         estimate D2E/DX2                !
 ! D258  D(4,9,11,27)         -179.3476         estimate D2E/DX2                !
 ! D259  D(8,9,11,12)          -27.8439         estimate D2E/DX2                !
 ! D260  D(8,9,11,27)         -110.4436         estimate D2E/DX2                !
 ! D261  D(10,9,11,12)         179.6159         estimate D2E/DX2                !
 ! D262  D(10,9,11,27)          97.0162         estimate D2E/DX2                !
 ! D263  D(15,9,11,12)          40.7421         estimate D2E/DX2                !
 ! D264  D(15,9,11,27)         -41.8576         estimate D2E/DX2                !
 ! D265  D(26,9,11,12)         111.5014         estimate D2E/DX2                !
 ! D266  D(26,9,11,27)          28.9017         estimate D2E/DX2                !
 ! D267  D(4,9,15,12)           27.1035         estimate D2E/DX2                !
 ! D268  D(4,9,15,27)          109.7249         estimate D2E/DX2                !
 ! D269  D(8,9,15,12)           97.7            estimate D2E/DX2                !
 ! D270  D(8,9,15,27)         -179.6786         estimate D2E/DX2                !
 ! D271  D(10,9,15,12)        -110.6486         estimate D2E/DX2                !
 ! D272  D(10,9,15,27)         -28.0272         estimate D2E/DX2                !
 ! D273  D(11,9,15,12)         -40.7533         estimate D2E/DX2                !
 ! D274  D(11,9,15,27)          41.868          estimate D2E/DX2                !
 ! D275  D(26,9,15,12)         179.2283         estimate D2E/DX2                !
 ! D276  D(26,9,15,27)         -98.1504         estimate D2E/DX2                !
 ! D277  D(4,9,26,13)          -29.0419         estimate D2E/DX2                !
 ! D278  D(4,9,26,24)         -112.382          estimate D2E/DX2                !
 ! D279  D(8,9,26,13)          -97.6609         estimate D2E/DX2                !
 ! D280  D(8,9,26,24)          178.9991         estimate D2E/DX2                !
 ! D281  D(10,9,26,13)          40.7157         estimate D2E/DX2                !
 ! D282  D(10,9,26,24)         -42.6243         estimate D2E/DX2                !
 ! D283  D(11,9,26,13)         110.115          estimate D2E/DX2                !
 ! D284  D(11,9,26,24)          26.775          estimate D2E/DX2                !
 ! D285  D(15,9,26,13)         179.0764         estimate D2E/DX2                !
 ! D286  D(15,9,26,24)          95.7363         estimate D2E/DX2                !
 ! D287  D(9,10,13,7)          -96.3031         estimate D2E/DX2                !
 ! D288  D(9,10,13,16)         -28.3612         estimate D2E/DX2                !
 ! D289  D(9,10,13,26)          41.0717         estimate D2E/DX2                !
 ! D290  D(9,10,13,37)         179.8438         estimate D2E/DX2                !
 ! D291  D(9,10,13,38)         111.8902         estimate D2E/DX2                !
 ! D292  D(24,10,13,7)        -178.2211         estimate D2E/DX2                !
 ! D293  D(24,10,13,16)       -110.2792         estimate D2E/DX2                !
 ! D294  D(24,10,13,26)        -40.8463         estimate D2E/DX2                !
 ! D295  D(24,10,13,37)         97.9258         estimate D2E/DX2                !
 ! D296  D(24,10,13,38)         29.9722         estimate D2E/DX2                !
 ! D297  D(9,10,24,17)        -111.9765         estimate D2E/DX2                !
 ! D298  D(9,10,24,25)         179.8036         estimate D2E/DX2                !
 ! D299  D(9,10,24,26)         -43.1614         estimate D2E/DX2                !
 ! D300  D(9,10,24,28)          95.6913         estimate D2E/DX2                !
 ! D301  D(9,10,24,29)          30.353          estimate D2E/DX2                !
 ! D302  D(13,10,24,17)        -27.3871         estimate D2E/DX2                !
 ! D303  D(13,10,24,25)        -95.607          estimate D2E/DX2                !
 ! D304  D(13,10,24,26)         41.428          estimate D2E/DX2                !
 ! D305  D(13,10,24,28)       -179.7193         estimate D2E/DX2                !
 ! D306  D(13,10,24,29)        114.9424         estimate D2E/DX2                !
 ! D307  D(9,11,12,2)           27.946          estimate D2E/DX2                !
 ! D308  D(9,11,12,5)           96.1129         estimate D2E/DX2                !
 ! D309  D(9,11,12,14)        -111.1674         estimate D2E/DX2                !
[...]
 1973,-0.00003150,-0.00010030,0.00008182,-0.00010677,0.00003629,-0.0000
 0238,0.00000288,0.00002214,-0.00002410,-0.00000395,0.00001272,-0.00002
 298,0.00002503,-0.00002795,0.00000147,-0.00002058,-0.00009720,-0.00000
 629,-0.00006056,0.00023621,0.00013706,-0.00007475,-0.00002177,-0.00001
 251,-0.00000359,0.00002446,-0.00006059,0.00008094,-0.00008158,0.000023
 71,-0.00001619,0.00001054,0.00000464,-0.00001029,0.00001280,0.00003758
 ,-0.00001009,0.00010346,0.00013635,-0.00021201,-0.00000129,-0.00013592
 ,0.00003070,0.00007867,-0.00010750,0.00014459,-0.00080982,0.00221832,-
 0.00393013,-0.00002602,-0.00080116,-0.00005543,-0.00051580,0.00038066,
 -0.00003632,-0.00107699,-0.00028622,0.00107042,0.00042579,-0.00033267,
 0.00014814,0.00468667,-0.00297740,-0.00054342,-0.00068763,0.00053489,-
 0.00171212,-0.00033595,-0.00004106,-0.00000355,0.00021666,-0.00149014,
 -0.00008433,0.00007691,-0.00004651,0.00010969,-0.00001718,-0.00002169,
 0.00000527,-0.00008231,-0.00000265,0.00001783,0.00012777,0.00005490,-0
 .00010969,-0.00000877,-0.00002553,0.00000842,-0.00000732,0.00000470,0.
 00002760,0.00010234,-0.00004116,0.00003469,-0.00010562,0.00000765,0.00
 001088,0.00000433,-0.00006482,0.00008065,-0.00007586,0.00002242,-0.000
 02209,0.00077753,0.00148211,0.00059932,-0.00004847,0.00001655,0.000153
 94,0.00002293,0.00000046,0.00011561,-0.00002368,0.00002310,-0.00000161
 ,0.00132907,0.00266245,-0.00026588,0.00037900,0.00278349,0.00079530,-0
 .01591998,0.02912688,-0.02562538,-0.01024606,-0.00888437,0.00599433,-0
 .01593525,0.01074521,-0.02834584,0.00167470,-0.00003156,0.00104009,-0.
 03113792,0.06397959,0.31794546,-0.00002967,0.00004108,-0.00001961,0.00
 000641,-0.00000520,-0.00000100,0.00001180,-0.00001480,-0.00007519,0.00
 001776,-0.00000687,-0.00000735,-0.00000224,-0.00000252,0.00000015,-0.0
 0001864,0.00003352,0.00000753,0.00001780,0.00001569,0.00000519,0.00000
 207,-0.00000303,-0.00000568,-0.00002406,0.00000080,0.00000073,0.000013
 40,0.00000062,-0.00000760,0.00000714,-0.00000132,-0.00000250,-0.000032
 83,-0.00000485,0.00001735,-0.00005340,-0.00001905,0.00003782,0.0000035
 6,0.00000500,0.00000362,0.00000928,0.00000175,-0.00000301,-0.00000543,
 -0.00000512,0.00000108,-0.00001117,0.00000081,0.00000067,0.00004019,-0
 .00004740,-0.00013070,0.00008951,-0.00011123,-0.00000746,-0.00003204,-
 0.00009159,0.00017112,0.00001759,-0.00002163,-0.00000534,-0.00000540,-
 0.00000152,-0.00000455,-0.00000778,-0.00000436,0.00001019,-0.00000341,
 -0.00000572,0.00001102,-0.00000296,-0.00000139,-0.00000195,0.00001607,
 0.00000581,-0.00000797,-0.00002260,0.00000737,0.,0.00000588,0.00000079
 ,-0.00000393,0.00000450,0.00000033,-0.00000462,-0.00000295,-0.00000726
 ,-0.00000233,-0.00000320,-0.00000316,-0.00000291,-0.00001454,-0.000001
 00,-0.00001014,0.00003465,0.00003120,-0.00001961,-0.00000083,-0.000002
 17,0.00000713,0.00000601,-0.00001746,0.00002222,-0.00001318,0.00001322
 ,-0.00001366,0.00000132,-0.00000211,-0.00000227,0.00000226,0.00000848,
 0.00000072,0.00001078,0.00003435,-0.00004994,-0.00000105,-0.00002596,0
 .00001336,0.00002146,-0.00002921,0.00003857,-0.00021621,0.00027493,-0.
 00037402,0.00003603,-0.00003070,-0.00002332,-0.00001414,0.00005907,0.0
 0007115,0.00016456,0.00004282,0.00056752,0.00001935,-0.00008387,-0.000
 00265,-0.00085895,-0.00067382,0.00051188,-0.00001962,0.00001494,0.0001
 1209,0.00001211,0.00001130,-0.00000816,0.00022664,0.00026222,-0.000081
 32,0.00002718,-0.00000527,0.00000119,0.00000194,-0.00000625,-0.0000031
 3,-0.00002139,0.00000565,-0.00000407,0.00002644,-0.00000779,0.00000909
 ,0.00000062,-0.00000309,-0.00000373,0.00000179,0.00000284,0.00000100,0
 .00002670,-0.00000242,-0.00000057,-0.00002705,0.00000288,0.00000087,0.
 00000282,-0.00001929,0.00002311,-0.00003156,0.00001002,-0.00000952,-0.
 00037212,0.00030076,0.00012964,0.00000053,-0.00000826,0.00002444,-0.00
 000948,0.00000373,0.00000428,-0.00000254,0.00000389,0.00000104,0.00069
 325,-0.00085608,0.00074690,0.00014619,0.00023368,-0.00019409,0.0022626
 6,-0.00086831,0.00286604,-0.00067678,-0.00088322,-0.00173532,-0.002417
 04,-0.00472189,-0.00248849,0.00007593,0.00045277,0.00005098,-0.0466726
 5,-0.06371853,-0.03717186,0.03987715,-0.00002148,0.00007385,0.00002972
 ,0.00002758,0.00000415,-0.00002619,0.00004975,0.00011948,-0.00008497,0
 .00002201,-0.00001522,-0.00000635,0.00001273,0.00003176,-0.00000754,-0
 .00004948,0.00010934,-0.00000546,0.00001752,0.00000578,-0.00000939,0.0
 0003253,-0.00000123,-0.00002025,-0.00005324,0.00000630,0.00002957,0.00
 002908,0.00000310,-0.00002302,0.00002578,0.00000068,-0.00002209,-0.000
 10406,-0.00002736,0.00008269,-0.00014403,-0.00005507,0.00012969,0.0000
 1849,0.00002518,0.00001103,0.00002779,0.00001083,-0.00001753,0.0000162
 0,0.00005414,0.00003100,-0.00002698,0.00000174,0.00000491,0.00010842,-
 0.00014556,-0.00022515,0.00003217,-0.00011431,-0.00000965,-0.00012103,
 -0.00021409,0.00028996,0.00006207,-0.00011849,-0.00012674,-0.00003467,
 -0.00002066,-0.00001359,-0.00013518,-0.00001967,0.00004018,0.00000108,
 -0.00001655,0.00002877,-0.00000544,-0.00000616,-0.00000469,0.00003295,
 0.00001105,-0.00001927,-0.00006088,0.00000576,0.00001123,0.00001477,0.
 00000280,-0.00001617,0.00001072,0.00000918,-0.00001452,-0.00001297,-0.
 00002206,-0.00001481,-0.00000500,-0.00001192,-0.00000543,-0.00003272,-
 0.00000312,-0.00002364,0.00007498,0.00008556,-0.00005685,0.00000219,-0
 .00000564,0.00002743,0.00001702,-0.00005111,0.00006421,-0.00002690,0.0
 0004378,-0.00004724,-0.00000535,-0.00001060,-0.00001443,0.00000210,0.0
 0002496,0.00000358,0.00001657,0.00009885,-0.00014642,0.00000191,-0.000
 05782,0.00002828,0.00006149,-0.00008416,0.00011139,0.00005313,0.000282
 56,0.00007858,0.00017716,0.00027043,-0.00000476,-0.00005501,-0.0001019
 9,-0.00001406,-0.00085236,-0.00037038,0.00016249,-0.00000431,0.0000054
 6,0.00002273,-0.00032707,-0.00024532,0.00123864,-0.00030317,-0.0000223
 2,-0.00022894,0.00003031,0.00006205,0.00003878,-0.00055114,-0.00032309
 ,0.00013793,0.00007981,-0.00000447,-0.00001900,0.00001284,-0.00002185,
 -0.00001848,-0.00006889,0.00002374,-0.00002192,0.00008307,-0.00005114,
 0.00006288,0.00000090,-0.00000361,-0.00001459,0.00000248,0.00001242,-0
 .00000262,0.00007920,-0.00000136,-0.00001103,-0.00007789,0.00000934,0.
 00000073,0.00000967,-0.00005799,0.00006905,-0.00009862,0.00003245,-0.0
 0002933,-0.00028668,0.00002892,-0.00016443,0.00003723,-0.00002157,0.00
 005345,-0.00003001,0.00001650,0.00000014,-0.00000340,0.00001002,0.0000
 0728,0.00134711,-0.00061811,-0.00172946,-0.00111011,-0.00056952,0.0001
 5906,0.00038456,-0.00761198,0.00151517,0.00203021,0.00082644,-0.000487
 44,-0.00689265,0.00415764,-0.00064683,-0.00022033,-0.00014394,-0.00000
 658,-0.06511979,-0.17049322,-0.09586358,0.06292153,0.17219772,0.000055
 05,0.00004643,0.00007118,0.00001717,0.00001244,-0.00004879,0.00004950,
 0.00003573,-0.00006929,-0.00000415,0.00000442,-0.00001059,0.00000852,0
 .00005061,-0.00001506,0.00004744,-0.00003018,0.00007213,0.00001146,-0.
 00001810,-0.00003272,0.00001409,0.00001251,-0.00002449,-0.00000336,-0.
 00002153,0.00004829,-0.00000117,0.00000648,-0.00001500,0.00001414,0.00
 001463,-0.00003402,-0.00008374,-0.00006645,0.00012718,0.00001155,-0.00
 002894,0.00006392,0.00002314,0.00002691,0.00000269,0.00001731,0.000023
 19,-0.00003140,0.00002243,0.00002532,-0.00000124,-0.00000261,0.0000015
 9,0.00001087,-0.00006209,-0.00010501,0.00007738,-0.00005501,0.00014613
 ,0.00008787,0.00000050,-0.00009390,-0.00002708,0.00010530,-0.00005789,
 -0.00013520,-0.00004216,-0.00000630,-0.00000801,-0.00013869,-0.0000296
 3,0.00003127,0.00001847,-0.00000874,0.00001523,0.00000357,-0.00001268,
 -0.00000006,0.00000103,0.00000961,-0.00001362,-0.00002930,-0.00002583,
 0.00004448,0.00000538,0.00000551,-0.00001928,0.00000491,0.00001847,-0.
 00001590,-0.00001523,-0.00001565,-0.00002027,0.00000424,-0.00001105,0.
 00000095,-0.00000127,-0.00000288,-0.00000497,-0.00000553,0.00004308,-0
 .00003344,0.00001060,-0.00000097,0.00002814,0.00000918,-0.00003060,0.0
 0003832,-0.00000086,0.00003894,-0.00004458,-0.00000295,-0.00001073,-0.
 00000420,0.00000294,0.00000838,0.00000661,-0.00003315,0.00003984,-0.00
 005771,0.00002027,0.00001476,0.00002327,0.00003150,-0.00004171,0.00005
 495,0.00003579,-0.00003342,0.00016610,0.00007195,0.00013163,-0.0000864
 5,-0.00001494,0.00001367,0.00008135,0.00029619,-0.00050497,-0.00033012
 ,-0.00014091,0.00007310,-0.00007179,0.00092244,0.00138799,0.00014134,-
 0.00008599,0.00030292,-0.00000317,-0.00000800,-0.00001156,-0.00000592,
 -0.00046438,-0.00009736,-0.00016614,0.00006245,0.00001680,-0.00004561,
 0.00001897,-0.00001478,-0.00002351,-0.00003813,0.00002557,-0.00002929,
 0.00003555,-0.00007371,0.00010033,0.00000419,0.00000696,-0.00001582,0.
 00000465,0.00000974,-0.00001278,0.00005201,0.00001469,-0.00002645,-0.0
 0004660,0.00000767,-0.00000303,0.00000854,-0.00003824,0.00004492,-0.00
 008125,0.00002823,-0.00002572,-0.00001813,-0.00010166,0.00051768,-0.00
 000066,-0.00004244,-0.00000912,-0.00003230,0.00000470,-0.00000329,0.00
 000447,0.00000325,0.00000769,0.00102188,-0.00194857,-0.00186510,-0.000
 24071,0.00048436,-0.00014529,0.00360955,-0.00153110,0.00807558,0.00042
 062,0.00098031,-0.00007894,-0.00502705,-0.00039880,-0.00080675,-0.0003
 3751,0.00006719,0.00007046,-0.03946918,-0.09696306,-0.08455975,0.03931
 013,0.10679245,0.08996153,-0.00005139,0.00000653,-0.00000698,0.0000148
 2,-0.00000180,-0.00003157,0.00001108,0.00010075,-0.00012432,0.00001715
 ,0.00000051,-0.00001077,0.00001189,0.00004877,-0.00000897,-0.00002552,
 -0.00002218,0.00008812,0.00001684,0.00002203,-0.00001697,0.00002018,0.
 00001263,-0.00000589,-0.00003930,-0.00002295,0.00003366,0.00001786,0.0
 0000915,-0.00001941,0.00002260,0.00001040,-0.00002655,-0.00010420,-0.0
 0005571,0.00009663,-0.00005974,-0.00005927,0.00008630,0.00002052,0.000
 02516,0.00001005,0.00002689,0.00001971,-0.00002467,0.00000882,0.000022
 78,-0.00000920,-0.00001700,0.00000140,0.00000816,0.00002735,-0.0000073
 2,-0.00012475,0.00001349,-0.00007345,-0.00001617,0.00000236,-0.0002052
 9,0.00012903,0.00014918,-0.00009326,-0.00008216,-0.00003698,-0.0000138
 5,0.00000480,-0.00018002,0.00001156,-0.00000945,0.00001426,-0.00001548
 ,0.00002122,-0.00000201,-0.00000887,-0.00000282,0.00001857,0.00001424,
 -0.00001535,-0.00005197,-0.00001127,0.00002409,0.00001161,0.00000515,-
 0.00001834,0.00000879,0.00001400,-0.00001699,-0.00001284,-0.00001843,-
 0.00001319,-0.00000089,-0.00001167,-0.00000217,-0.00002277,-0.00000556
 ,-0.00001829,0.00004476,0.00007381,-0.00004972,0.00000681,-0.00000430,
 0.00002596,0.00001434,-0.00004349,0.00005624,-0.00001647,0.00004269,-0
 .00005106,-0.00000163,-0.00000964,-0.00000985,0.00000099,0.00001462,0.
 00000566,-0.00001061,0.00007212,-0.00010170,-0.00000163,-0.00001526,0.
 00003045,0.00004809,-0.00006380,0.00008537,0.00005370,0.00046793,-0.00
 002694,0.00013418,0.00012978,0.00000390,-0.00002968,0.00003211,0.00000
 770,-0.00027070,-0.00039225,0.00004593,0.00002904,0.00011232,0.0000604
 1,0.00080067,-0.00030924,-0.00033897,-0.00000435,-0.00020201,0.0000347
 8,0.00006525,0.00003299,0.00000098,-0.00028326,0.00003778,-0.00002164,
 0.00007991,0.00000600,-0.00002866,0.00001751,-0.00001706,-0.00002334,-
 0.00005960,0.00002670,-0.00002609,0.00006688,-0.00006833,0.00008314,0.
 00000327,0.00000162,-0.00001684,0.00000378,0.00001232,-0.00000701,0.00
 007340,0.00000721,-0.00001917,-0.00006932,0.00000971,-0.00000054,0.000
 00959,-0.00005331,0.00006402,-0.00009885,0.00003365,-0.00002983,-0.000
 15601,-0.00020325,0.00008123,0.00000961,-0.00003547,0.00002484,-0.0000
 3805,0.00002671,-0.00000838,0.00000020,0.00000867,0.00000840,-0.000608
 37,-0.00008651,0.00125142,-0.00042313,-0.00073560,-0.00002003,0.002317
 73,-0.00210854,-0.00037457,0.00041328,0.00053729,-0.00034009,-0.009642
 65,0.00094090,0.00594395,-0.00007936,0.00004442,-0.00030435,-0.0815647
 1,-0.00553855,0.10397825,0.00768558,0.00887373,0.00009794,0.08165019,0
 .00001399,-0.00001244,-0.00004874,-0.00000370,-0.00000798,0.00002662,-
 0.00000521,-0.00003418,0.00005627,0.00000813,0.00000681,0.00001002,-0.
 00000470,-0.00001505,0.00001635,-0.00002107,0.00004481,-0.00009282,-0.
 00001078,-0.00001509,-0.00000118,0.00000348,-0.00001449,0.00000823,0.0
 0000948,0.00001824,-0.00003236,0.00000017,-0.00000631,0.00000738,-0.00
 000648,-0.00000756,0.00001224,0.00003786,0.00002921,-0.00005329,-0.000
 03565,0.00001060,-0.00001123,-0.00000993,-0.00001111,-0.00000058,-0.00
 000927,-0.00000797,0.00001516,-0.00000341,0.00000806,0.00003646,-0.000
 00138,-0.00000085,-0.00000521,0.00005288,0.00001718,-0.00001348,-0.000
 05594,-0.00001673,0.00001618,-0.00005511,0.00003688,0.00001749,-0.0000
 5061,0.00001124,0.00001846,0.00001524,0.00000939,0.00000114,0.00000965
 ,0.00000696,0.00000211,-0.00001016,0.00000334,-0.00000066,-0.00000227,
 0.00000574,-0.00000055,0.00000177,-0.00000512,0.00000576,0.00000752,0.
 00001119,-0.00001730,-0.00000158,-0.00000362,0.00000703,-0.00000198,-0
 .00000706,0.00000719,0.00000610,0.00000489,0.00000696,-0.00000182,0.00
 000399,-0.00000086,-0.00000130,0.00000132,0.00000075,0.00000700,-0.000
 01419,0.00001108,-0.00000490,0.00000024,-0.00000958,-0.00000273,0.0000
 0961,-0.00001232,-0.00000072,-0.00001368,0.00001753,-0.00000212,0.0000
 0283,-0.00000116,-0.00000126,0.00000143,-0.00000265,0.00001973,-0.0000
 0488,0.00000281,0.00000833,-0.00001503,-0.00001399,-0.00000813,0.00000
 952,-0.00001261,0.00004266,-0.00033150,0.00032455,0.00002955,0.0001404
 3,0.00000998,0.00008124,-0.00011208,-0.00007860,-0.00077000,0.00015248
 ,0.00026505,0.00002426,-0.00009883,-0.00010177,-0.00079385,0.00047998,
 0.00053107,0.00027094,0.00000979,0.00033426,0.00000578,-0.00000221,-0.
 00000309,0.00051247,0.00020005,-0.00003099,-0.00001808,-0.00000749,0.0
 0001596,-0.00000794,0.00000409,0.00001105,0.00001223,-0.00001016,0.000
 01193,-0.00001139,0.00003139,-0.00004110,-0.00000067,-0.00000362,0.000
 00624,-0.00000034,-0.00000379,0.00000537,-0.00001933,-0.00000722,0.000
 01126,0.00001537,-0.00000296,0.00000146,-0.00000306,0.00001324,-0.0000
 1570,0.00002830,-0.00001017,0.00000948,-0.00058867,-0.00012797,-0.0005
 9153,0.00001573,0.00001928,0.00001018,0.00001428,-0.00000835,0.0000031
 3,-0.00000194,-0.00000087,-0.00000280,0.00336187,0.00065081,-0.0016975
 3,0.00020969,-0.00029467,0.00009715,-0.00352469,-0.00140223,0.00826661
 ,0.00146943,0.00098859,-0.00199002,0.00014945,-0.00008075,-0.00073163,
 -0.00009260,0.00031403,0.00012859,-0.00646378,-0.02121737,-0.00187253,
 0.00752085,0.00299870,-0.00855772,-0.00135687,0.01767924,0.00004931,-0
 .00000582,-0.00004562,-0.00003392,-0.00002090,0.00004724,0.00002750,-0
 .00000455,-0.00002650,-0.00003951,0.00001251,0.00002033,-0.00001860,-0
 .00003553,0.00003126,0.00007368,0.00001813,-0.00016140,-0.00004858,-0.
 00008455,-0.00002729,-0.00004084,-0.00002673,0.00002318,0.00011612,0.0
 0002744,-0.00005152,-0.00005241,-0.00001552,0.00004285,-0.00005063,-0.
 00001403,0.00003593,0.00018357,0.00005876,-0.00013027,0.00016886,0.000
 12328,-0.00018379,-0.00002917,-0.00003964,-0.00001798,-0.00005165,-0.0
 0002096,0.00002934,0.00001382,0.00000535,0.00002154,0.00004365,-0.0000
 0378,-0.00001009,-0.00004217,0.00015371,0.00057518,-0.00017245,0.00024
 824,0.00026713,-0.00001619,0.00048190,-0.00058118,-0.00005871,-0.00000
 261,0.00004213,0.00005506,0.00003056,0.00002280,0.00009026,0.00004396,
 0.00004371,-0.00000967,0.00003345,-0.00004852,0.00000772,0.00001302,0.
 00000871,-0.00005937,-0.00003140,0.00003622,0.00011019,-0.00000433,-0.
 00001152,-0.00002826,-0.00000794,0.00002959,-0.00001993,-0.00001678,0.
 00002904,0.00001664,0.00003697,0.00001458,0.00000874,0.00001815,0.0000
 0898,0.00006140,0.00001082,0.00004561,-0.00013147,-0.00015530,0.000098
 48,-0.00000507,0.00000968,-0.00004181,-0.00002963,0.00008527,-0.000111
 19,0.00005083,-0.00007453,0.00008450,-0.00000389,0.00001243,0.00001309
 ,-0.00000873,-0.00003018,-0.00000558,-0.00000009,-0.00014411,0.0002085
 8,-0.00001384,0.00005232,-0.00005542,-0.00009683,0.00012902,-0.0001728
 7,0.00040092,-0.00129337,0.00120676,-0.00004710,0.00020142,0.00004680,
 0.00029594,-0.00033891,-0.00012534,-0.00044921,0.00055982,-0.00057542,
 -0.00003178,0.00005044,-0.00006363,-0.00195753,0.00056342,0.00098676,0
 .00027564,-0.00035973,0.00056547,0.00008581,0.00000138,0.00002354,0.00
 094588,0.00053742,0.00004642,-0.00014628,0.00000296,0.00001529,-0.0000
 2286,0.00003345,0.00003723,0.00011610,-0.00004178,0.00003733,-0.000139
 01,0.00009423,-0.00010473,-0.00000251,0.00000386,0.00002430,-0.0000036
 5,-0.00002085,0.00000438,-0.00014508,-0.00000035,0.00002182,0.00013866
 ,-0.00001751,-0.00000183,-0.00001683,0.00010271,-0.00012381,0.00017698
 ,-0.00005994,0.00005384,-0.00026637,-0.00044618,-0.00079942,0.00003711
 ,0.00004759,-0.00008051,0.00004500,-0.00002864,-0.00003443,0.00000588,
 -0.00001954,-0.00001288,0.00200138,0.00180746,-0.00308563,0.00028004,-
 0.00073834,0.00048706,0.00016154,0.00529706,-0.00541909,0.00346421,0.0
 0163673,-0.00209122,0.00250589,-0.00089543,0.00413182,0.00002959,0.000
 41055,-0.00013544,0.10452498,-0.00261622,-0.18306707,-0.00229023,-0.01
 103853,-0.01099076,-0.10998885,0.00569904,0.19892495\\0.00002456,-0.00
 000932,0.00000570,0.00000323,0.00000504,0.00000409,0.00000555,0.000004
 39,-0.00000929,-0.00000237,0.00000566,0.00000372,0.00000112,-0.0000083
 3,-0.00000603,-0.00001583,-0.00001009,-0.00000406,0.00000187,0.0000035
 5,-0.00000789,-0.00000639,-0.00000302,-0.00000452,-0.00000252,0.000004
 75,-0.00000374,-0.00000067,0.00000063,-0.00000002,-0.00000017,0.000002
 31,-0.00000029,-0.00000650,-0.00000328,0.00000577,0.00000045,-0.000002
 59,0.00000216,0.00000020,0.00000086,-0.00000183,-0.00000035,0.00000003
 ,-0.00000282,0.00000886,0.00000264,-0.00000773,-0.00000162,0.00000128,
 0.00000045,0.00000226,0.00000323,0.00004506,-0.00000032,-0.00000532,0.
 00000052,0.00000064,0.00000953,-0.00001933,0.00000376,-0.00000326,0.00
 000739,0.00000091,-0.00000054,-0.00000202,-0.00000481,-0.00000767,0.00
 000564,-0.00000085,0.00000196,-0.00000021,-0.00000203,0.00000168,-0.00
 000141,0.00000007,0.00000120,0.00000092,0.00000177,-0.00000133,0.00000
 259,-0.00000086,0.00000213,0.00000065,-0.00000068,0.00000083,-0.000000
 45,-0.00000008,0.00000186,-0.00000361,-0.00000134,0.00000215,0.0000018
 2,-0.00000142,0.00000142,0.00000019,-0.00000221,0.00000046,0.00000025,
 -0.00000244,0.00000143,0.00000079,-0.00000299,0.00000024,0.00000058,0.
 00000096,-0.00000148,0.00000437,-0.00000251,-0.00000005,-0.00000071,-0
 .00000461,0.00000008,0.00000253,-0.00001659,0.00000157,-0.00000705,0.0
 0000271,0.00000137,0.00000738,0.00000455,0.00000072,-0.00000047,-0.000
 01049,-0.00002955,0.00000077,-0.00000952,0.00000038,0.00000416,0.00000
 545,-0.00000062,0.00000054,-0.00000093,-0.00000027,0.00000667,-0.00000
 825,-0.00000201,-0.00000365,0.00000868,0.00000165,-0.00000416,-0.00001
 687,0.00005482,-0.00001957,-0.00000495,-0.00001164,0.00000133,0.000013
 60,-0.00000140,-0.00000268,0.00000105,0.00000434,0.00001119,0.00000142
 ,0.00000031,-0.00000080,0.00000042,0.00000375,-0.00000461,0.00000555,-
 0.00000272,0.00000088,-0.00000076,0.00000206,0.00000041,-0.00000158,0.
 00000072,-0.00000112,-0.00000248,0.00000142,-0.00000473,0.00000013,0.0
 0000219,-0.00000112,-0.00000380,0.00000173,0.00000104,0.00000244,0.000
 00401,-0.00000742,-0.00000986,-0.00000060,0.00001889,0.00000866,-0.000
 00197,-0.00000214,-0.00000265,0.00000448,-0.00000956,-0.00000048,0.000
 00259,-0.00000041,0.00001254,0.00001126,-0.00003188,0.00001108,-0.0000
 0134,0.00002001,0.00000097,-0.00000788,-0.00001538,-0.00000257,-0.0000
 2877,0.00002760,0.00001581,0.00000290,-0.00001040,0.00001116,-0.000014
 58,-0.00000027,-0.00001264,0.00001659,0.00000309,0.00000301,-0.0000126
 2,-0.00000357,0.00000254,-0.00000594,0.00000779\\\@
 The archive entry for this job was punched.


 IF YOU GIVE EVERYONE A PIECE OF YOUR MIND,
 PRETTY SOON IT WILL BE ALL GONE.
 Job cpu time:      10 days 11 hours 46 minutes 29.7 seconds.
 Elapsed time:       0 days  5 hours 29 minutes 30.8 seconds.
 File lengths (MBytes):  RWF=  21168 Int=      0 D2E=      0 Chk=    181 Scr=      2
 Normal termination of Gaussian 16 at Sun Mar  5 01:40:17 2023.
