 Entering Gaussian System, Link 0=/apps/GAU16/avx2/g16/g16
 Initial command:
 /apps/GAU16/avx2//g16/l1.exe "/localscratch/chegho/Gau-32934.inp" -scrdir="/localscratch/chegho/"
 Entering Link 1 = /apps/GAU16/avx2//g16/l1.exe PID=     32935.
  
 Copyright (c) 1988-2019, Gaussian, Inc.  All Rights Reserved.
  
 This is part of the Gaussian(R) 16 program.  It is based on
 the Gaussian(R) 09 system (copyright 2009, Gaussian, Inc.),
 the Gaussian(R) 03 system (copyright 2003, Gaussian, Inc.),
 the Gaussian(R) 98 system (copyright 1998, Gaussian, Inc.),
 the Gaussian(R) 94 system (copyright 1995, Gaussian, Inc.),
 the Gaussian 92(TM) system (copyright 1992, Gaussian, Inc.),
 the Gaussian 90(TM) system (copyright 1990, Gaussian, Inc.),
 the Gaussian 88(TM) system (copyright 1988, Gaussian, Inc.),
 the Gaussian 86(TM) system (copyright 1986, Carnegie Mellon
 University), and the Gaussian 82(TM) system (copyright 1983,
 Carnegie Mellon University). Gaussian is a federally registered
 trademark of Gaussian, Inc.
  
 This software contains proprietary and confidential information,
 including trade secrets, belonging to Gaussian, Inc.
  
 This software is provided under written license and may be
 used, copied, transmitted, or stored only in accord with that
 written license.
  
 The following legend is applicable only to US Government
 contracts under FAR:
  
                    RESTRICTED RIGHTS LEGEND
  
 Use, reproduction and disclosure by the US Government is
 subject to restrictions as set forth in subparagraphs (a)
 and (c) of the Commercial Computer Software - Restricted
 Rights clause in FAR 52.227-19.
  
 Gaussian, Inc.
 340 Quinnipiac St., Bldg. 40, Wallingford CT 06492
  
  
 ---------------------------------------------------------------
 Warning -- This program may not be used in any manner that
 competes with the business of Gaussian, Inc. or will provide
 assistance to any competitor of Gaussian, Inc.  The licensee
 of this program is prohibited from giving any competitor of
 Gaussian, Inc. access to this program.  By using this program,
 the user acknowledges that Gaussian, Inc. is engaged in the
 business of creating and licensing software in the field of
 computational chemistry and represents and warrants to the
 licensee that it is not a competitor of Gaussian, Inc. and that
 it will not use this program in any manner prohibited above.
 ---------------------------------------------------------------
  

 Cite this work as:
 Gaussian 16, Revision C.01,
 M. J. Frisch, G. W. Trucks, H. B. Schlegel, G. E. Scuseria, 
 M. A. Robb, J. R. Cheeseman, G. Scalmani, V. Barone, 
 G. A. Petersson, H. Nakatsuji, X. Li, M. Caricato, A. V. Marenich, 
 J. Bloino, B. G. Janesko, R. Gomperts, B. Mennucci, H. P. Hratchian, 
 J. V. Ortiz, A. F. Izmaylov, J. L. Sonnenberg, D. Williams-Young, 
 F. Ding, F. Lipparini, F. Egidi, J. Goings, B. Peng, A. Petrone, 
 T. Henderson, D. Ranasinghe, V. G. Zakrzewski, J. Gao, N. Rega, 
 G. Zheng, W. Liang, M. Hada, M. Ehara, K. Toyota, R. Fukuda, 
 J. Hasegawa, M. Ishida, T. Nakajima, Y. Honda, O. Kitao, H. Nakai, 
 T. Vreven, K. Throssell, J. A. Montgomery, Jr., J. E. Peralta, 
 F. Ogliaro, M. J. Bearpark, J. J. Heyd, E. N. Brothers, K. N. Kudin, 
 V. N. Staroverov, T. A. Keith, R. Kobayashi, J. Normand, 
 K. Raghavachari, A. P. Rendell, J. C. Burant, S. S. Iyengar, 
 J. Tomasi, M. Cossi, J. M. Millam, M. Klene, C. Adamo, R. Cammi, 
 J. W. Ochterski, R. L. Martin, K. Morokuma, O. Farkas, 
 J. B. Foresman, and D. J. Fox, Gaussian, Inc., Wallingford CT, 2019.
 
 ******************************************
 Gaussian 16:  ES64L-G16RevC.01  3-Jul-2019
                30-Jul-2022 
 ******************************************
 %nprocshared=15
 Will use up to   15 processors via shared memory.
 %mem=100GB
 -----------------------------------------------------------
 # opt=(calcfc,ts,noeigen) freq b3lyp/gen nosymm pseudo=read
 -----------------------------------------------------------
 1/5=1,10=4,11=1,18=20,26=3,38=1/1,3;
 2/9=110,12=2,15=1,17=6,18=5,40=1/2;
 3/5=7,11=2,16=1,17=8,25=1,30=1,71=2,74=-5,140=1/1,2,3;
 4//1;
 5/5=2,38=5/2;
 8/6=4,10=90,11=11/1;
 11/6=1,8=1,9=11,15=111,16=1,31=1/1,2,10;
 10/6=1,13=1,31=1/2;
 6/7=2,8=2,9=2,10=2,28=1/1;
 7/10=1,25=1,30=1/1,2,3,16;
 1/5=1,10=4,11=1,18=20,26=3/3(2);
 2/9=110,15=1/2;
 99//99;
 2/9=110,15=1/2;
 3/5=7,6=1,11=2,16=1,17=8,25=1,30=1,71=1,74=-5,82=7/1,2,3;
 4/5=5,16=3,69=1/1;
 5/5=2,38=5/2;
 7/30=1/1,2,3,16;
 1/5=1,11=1,18=20,26=3/3(-5);
 2/9=110,15=1/2;
 6/7=2,8=2,9=2,10=2,19=2,28=1/1;
 99/9=1/99;
 -------------------
 Title Card Required
 -------------------
 Symbolic Z-matrix:
 Charge =  0 Multiplicity = 1
 42                    2.42776   0.09517   0.17484 
 6                     2.39158  -1.89995   0.35233 
 8                     2.38117  -3.04467   0.51322 
 16                    0.43483  -0.02835  -1.00295 
 1                     0.06489   1.27045  -1.1409 
 16                    2.46593   0.35895   2.49528 
 1                     2.44072  -0.88955   3.0172 
 16                    2.54957   2.55858  -0.06363 
 1                     4.00172   2.39983  -0.79824 
 1                     3.15125   3.01671   1.05856 
 16                    4.42985   0.12856  -1.14085 
 1                     5.28604  -0.01131  -0.10507 
 1                     4.53454   1.80372  -1.08426 
 
 Add virtual bond connecting atoms H9         and S8         Dist= 3.09D+00.
 Add virtual bond connecting atoms H13        and S11        Dist= 3.17D+00.

 GradGradGradGradGradGradGradGradGradGradGradGradGradGradGradGradGradGrad
 Berny optimization.
 Initialization pass.
                           ----------------------------
                           !    Initial Parameters    !
                           ! (Angstroms and Degrees)  !
 --------------------------                            --------------------------
 ! Name  Definition              Value          Derivative Info.                !
 --------------------------------------------------------------------------------
 ! R1    R(1,2)                  2.0033         calculate D2E/DX2 analytically  !
 ! R2    R(1,4)                  2.3182         calculate D2E/DX2 analytically  !
 ! R3    R(1,6)                  2.3357         calculate D2E/DX2 analytically  !
 ! R4    R(1,8)                  2.4779         calculate D2E/DX2 analytically  !
 ! R5    R(1,11)                 2.3959         calculate D2E/DX2 analytically  !
 ! R6    R(2,3)                  1.156          calculate D2E/DX2 analytically  !
 ! R7    R(4,5)                  1.3575         calculate D2E/DX2 analytically  !
 ! R8    R(6,7)                  1.3534         calculate D2E/DX2 analytically  !
 ! R9    R(8,9)                  1.6351         calculate D2E/DX2 analytically  !
 ! R10   R(8,10)                 1.3532         calculate D2E/DX2 analytically  !
 ! R11   R(9,13)                 0.8491         calculate D2E/DX2 analytically  !
 ! R12   R(11,12)                1.3511         calculate D2E/DX2 analytically  !
 ! R13   R(11,13)                1.6794         calculate D2E/DX2 analytically  !
 ! A1    A(2,1,4)               88.649          calculate D2E/DX2 analytically  !
 ! A2    A(2,1,6)               91.418          calculate D2E/DX2 analytically  !
 ! A3    A(2,1,11)              94.4522         calculate D2E/DX2 analytically  !
 ! A4    A(4,1,6)              121.6546         calculate D2E/DX2 analytically  !
 ! A5    A(4,1,8)               92.6557         calculate D2E/DX2 analytically  !
 ! A6    A(4,1,11)             116.1113         calculate D2E/DX2 analytically  !
 ! A7    A(6,1,8)               88.9991         calculate D2E/DX2 analytically  !
 ! A8    A(6,1,11)             122.027          calculate D2E/DX2 analytically  !
 ! A9    A(8,1,11)              83.8127         calculate D2E/DX2 analytically  !
 ! A10   A(1,4,5)              103.5877         calculate D2E/DX2 analytically  !
 ! A11   A(1,6,7)              106.1784         calculate D2E/DX2 analytically  !
 ! A12   A(1,8,9)               89.4484         calculate D2E/DX2 analytically  !
 ! A13   A(1,8,10)             106.1776         calculate D2E/DX2 analytically  !
 ! A14   A(9,8,10)              90.6055         calculate D2E/DX2 analytically  !
 ! A15   A(8,9,13)             140.9642         calculate D2E/DX2 analytically  !
 ! A16   A(1,11,12)             96.1487         calculate D2E/DX2 analytically  !
 ! A17   A(1,11,13)             92.7218         calculate D2E/DX2 analytically  !
 ! A18   A(12,11,13)            92.1732         calculate D2E/DX2 analytically  !
 ! A19   A(9,13,11)            132.2587         calculate D2E/DX2 analytically  !
 ! A20   L(2,1,8,4,-1)         181.3048         calculate D2E/DX2 analytically  !
 ! A21   L(1,2,3,7,-1)         177.0766         calculate D2E/DX2 analytically  !
 ! A22   L(2,1,8,4,-2)         181.2945         calculate D2E/DX2 analytically  !
 ! A23   L(1,2,3,7,-2)         180.4929         calculate D2E/DX2 analytically  !
 ! D1    D(2,1,4,5)            172.0783         calculate D2E/DX2 analytically  !
 ! D2    D(6,1,4,5)             81.2452         calculate D2E/DX2 analytically  !
 ! D3    D(8,1,4,5)             -9.2162         calculate D2E/DX2 analytically  !
 ! D4    D(11,1,4,5)           -93.6253         calculate D2E/DX2 analytically  !
 ! D5    D(2,1,6,7)             -0.3707         calculate D2E/DX2 analytically  !
 ! D6    D(4,1,6,7)             88.9162         calculate D2E/DX2 analytically  !
 ! D7    D(8,1,6,7)           -178.5809         calculate D2E/DX2 analytically  !
 ! D8    D(11,1,6,7)           -96.5175         calculate D2E/DX2 analytically  !
 ! D9    D(4,1,8,9)           -122.0795         calculate D2E/DX2 analytically  !
 ! D10   D(4,1,8,10)           147.45           calculate D2E/DX2 analytically  !
 ! D11   D(6,1,8,9)            116.277          calculate D2E/DX2 analytically  !
 ! D12   D(6,1,8,10)            25.8065         calculate D2E/DX2 analytically  !
 ! D13   D(11,1,8,9)            -6.0941         calculate D2E/DX2 analytically  !
 ! D14   D(11,1,8,10)          -96.5646         calculate D2E/DX2 analytically  !
 ! D15   D(2,1,11,12)          -80.2489         calculate D2E/DX2 analytically  !
 ! D16   D(2,1,11,13)         -172.7309         calculate D2E/DX2 analytically  !
 ! D17   D(4,1,11,12)         -170.9266         calculate D2E/DX2 analytically  !
 ! D18   D(4,1,11,13)           96.5914         calculate D2E/DX2 analytically  !
 ! D19   D(6,1,11,12)           14.2236         calculate D2E/DX2 analytically  !
 ! D20   D(6,1,11,13)          -78.2583         calculate D2E/DX2 analytically  !
 ! D21   D(8,1,11,12)           99.1441         calculate D2E/DX2 analytically  !
 ! D22   D(8,1,11,13)            6.6621         calculate D2E/DX2 analytically  !
 ! D23   D(1,8,9,13)             5.2266         calculate D2E/DX2 analytically  !
 ! D24   D(10,8,9,13)          111.3999         calculate D2E/DX2 analytically  !
 ! D25   D(8,9,13,11)            2.3843         calculate D2E/DX2 analytically  !
 ! D26   D(1,11,13,9)           -8.3483         calculate D2E/DX2 analytically  !
 ! D27   D(12,11,13,9)        -104.6124         calculate D2E/DX2 analytically  !
 --------------------------------------------------------------------------------
 Trust Radius=3.00D-01 FncErr=1.00D-07 GrdErr=1.00D-06 EigMax=2.50D+02 EigMin=1.00D-04
 Number of steps in this run=     73 maximum allowed number of steps=    100.
 Search for a saddle point of order  1.
 GradGradGradGradGradGradGradGradGradGradGradGradGradGradGradGradGradGrad

                          Input orientation:                          
 ---------------------------------------------------------------------
 Center     Atomic      Atomic             Coordinates (Angstroms)
 Number     Number       Type             X           Y           Z
 ---------------------------------------------------------------------
      1         42           0        2.427763    0.095165    0.174835
      2          6           0        2.391576   -1.899946    0.352332
      3          8           0        2.381174   -3.044674    0.513223
      4         16           0        0.434834   -0.028352   -1.002951
      5          1           0        0.064887    1.270452   -1.140902
      6         16           0        2.465925    0.358949    2.495275
      7          1           0        2.440718   -0.889551    3.017203
      8         16           0        2.549573    2.558579   -0.063634
      9          1           0        4.001720    2.399826   -0.798242
     10          1           0        3.151249    3.016714    1.058564
     11         16           0        4.429854    0.128556   -1.140851
     12          1           0        5.286041   -0.011307   -0.105069
     13          1           0        4.534541    1.803720   -1.084258
 ---------------------------------------------------------------------
                    Distance matrix (angstroms):
                    1          2          3          4          5
     1  Mo   0.000000
     2  C    2.003318   0.000000
     3  O    3.158364   1.156026   0.000000
     4  S    2.318233   3.027952   3.896822   0.000000
     5  H    2.948838   4.206501   5.169297   1.357491   0.000000
     6  S    2.335697   3.114537   3.939589   4.063609   4.451697
     7  H    3.008137   2.850412   3.304242   4.574590   5.253572
     8  S    2.477925   4.480674   5.635385   3.470828   2.998907
     9  H    2.955619   4.733331   5.829982   4.319795   4.109934
    10  H    3.136855   5.024879   6.134398   4.571781   4.172854
    11  S    2.395937   3.240215   4.123401   4.000478   4.511858
    12  H    2.873923   3.486273   4.245215   4.933629   5.475062
    13  H    2.990483   4.513672   5.540384   4.491180   4.501710
                    6          7          8          9         10
     6  S    0.000000
     7  H    1.353439   0.000000
     8  S    3.375409   4.625257   0.000000
     9  H    4.167865   5.273931   1.635109   0.000000
    10  H    3.097987   4.427192   1.353229   2.133443   0.000000
    11  S    4.139023   4.720447   3.255897   2.336525   3.848859
    12  H    3.853821   4.314598   3.754236   2.818427   3.883335
    13  H    4.379451   5.334771   2.356180   0.849144   2.824276
                   11         12         13
    11  S    0.000000
    12  H    1.351097   0.000000
    13  H    1.679386   2.194968   0.000000
 Symmetry turned off by external request.
 Stoichiometry    CH6MoOS4
 Framework group  C1[X(CH6MoOS4)]
 Deg. of freedom    33
 Full point group                 C1      NOp   1
 Rotational constants (GHZ):           0.9088372           0.7217962           0.7057621
 General basis read from cards:  (5D, 7F)
 ======================================================================================================
                                       Pseudopotential Parameters
 ======================================================================================================
  Center     Atomic      Valence      Angular      Power
  Number     Number     Electrons     Momentum     of R      Exponent        Coefficient   SO-Coeffient
 ======================================================================================================
    1         42           14
                                      F and up 
                                                     0      537.9667807       -0.04694920    0.00000000
                                                     1      147.8982938      -20.20800840    0.00000000
                                                     2       45.7358898     -106.21163020    0.00000000
                                                     2       13.2911467      -41.81073680    0.00000000
                                                     2        4.7059961       -4.20541030    0.00000000
                                      S - F
                                                     0      110.2991760        2.80637170    0.00000000
                                                     1       23.2014645       44.51620120    0.00000000
                                                     2        5.3530131       82.77852270    0.00000000
                                      P - F
                                                     0       63.2901397        4.94208760    0.00000000
                                                     1       23.3315302       25.86049760    0.00000000
                                                     2       24.6759423      132.47087420    0.00000000
                                                     2        4.6493040       57.31497940    0.00000000
                                      D - F
                                                     0      104.4839977        3.00545910    0.00000000
                                                     1       66.2307245       26.36378510    0.00000000
                                                     2       39.1283176      183.38491990    0.00000000
                                                     2       13.1164437       98.44530680    0.00000000
                                                     2        3.6280263       22.49013770    0.00000000
    2          6
                                   No pseudopotential on this center.
    3          8
                                   No pseudopotential on this center.
    4         16
                                   No pseudopotential on this center.
    5          1
                                   No pseudopotential on this center.
    6         16
                                   No pseudopotential on this center.
    7          1
                                   No pseudopotential on this center.
    8         16
                                   No pseudopotential on this center.
    9          1
                                   No pseudopotential on this center.
   10          1
                                   No pseudopotential on this center.
   11         16
                                   No pseudopotential on this center.
   12          1
                                   No pseudopotential on this center.
   13          1
                                   No pseudopotential on this center.
 ======================================================================================================
   152 basis functions,   355 primitive gaussians,   160 cartesian basis functions
    49 alpha electrons       49 beta electrons
       nuclear repulsion energy       708.8381725210 Hartrees.
 NAtoms=   13 NActive=   13 NUniq=   13 SFac= 1.00D+00 NAtFMM=   60 NAOKFM=F Big=F
 Integral buffers will be    131072 words long.
 Raffenetti 2 integral format.
 Two-electron integral symmetry is turned off.
 One-electron integrals computed using PRISM.
   1 Symmetry operations used in ECPInt.
 ECPInt:  NShTT=    1485 NPrTT=    9652 LenC2=    1423 LenP2D=    6565.
 LDataN:  DoStor=T MaxTD1= 5 Len=  102
 NBasis=   152 RedAO= T EigKep=  3.64D-03  NBF=   152
 NBsUse=   152 1.00D-06 EigRej= -1.00D+00 NBFU=   152
 Defaulting to unpruned grid for atomic number  42.
 ExpMin= 2.47D-02 ExpMax= 2.19D+04 ExpMxC= 3.30D+03 IAcc=3 IRadAn=         5 AccDes= 0.00D+00
 Harris functional with IExCor=  402 and IRadAn=       5 diagonalized for initial guess.
 HarFok:  IExCor=  402 AccDes= 0.00D+00 IRadAn=         5 IDoV= 1 UseB2=F ITyADJ=14
 ICtDFT=  3500011 ScaDFX=  1.000000  1.000000  1.000000  1.000000
 Defaulting to unpruned grid for atomic number  42.
 FoFCou: FMM=F IPFlag=           0 FMFlag=      100000 FMFlg1=           0
         NFxFlg=           0 DoJE=T BraDBF=F KetDBF=T FulRan=T
         wScrn=  0.000000 ICntrl=       500 IOpCl=  0 I1Cent=   200000004 NGrid=           0
         NMat0=    1 NMatS0=      1 NMatT0=    0 NMatD0=    1 NMtDS0=    0 NMtDT0=    0
 Symmetry not used in FoFCou.
 Requested convergence on RMS density matrix=1.00D-08 within 128 cycles.
 Requested convergence on MAX density matrix=1.00D-06.
 Requested convergence on             energy=1.00D-06.
 No special actions if energy rises.
 Defaulting to unpruned grid for atomic number  42.
 Defaulting to unpruned grid for atomic number  42.
 Defaulting to unpruned grid for atomic number  42.
 Defaulting to unpruned grid for atomic number  42.
 Defaulting to unpruned grid for atomic number  42.
 Defaulting to unpruned grid for atomic number  42.
 Defaulting to unpruned grid for atomic number  42.
 Defaulting to unpruned grid for atomic number  42.
 Defaulting to unpruned grid for atomic number  42.
 Defaulting to unpruned grid for atomic number  42.
 Defaulting to unpruned grid for atomic number  42.
 Defaulting to unpruned grid for atomic number  42.
 Defaulting to unpruned grid for atomic number  42.
 Defaulting to unpruned grid for atomic number  42.
 Defaulting to unpruned grid for atomic number  42.
 EnCoef did     1 forward-backward iterations
 EnCoef did   100 forward-backward iterations
 EnCoef did     3 forward-backward iterations
 EnCoef did     8 forward-backward iterations
 EnCoef did     3 forward-backward iterations
 EnCoef did     2 forward-backward iterations
 SCF Done:  E(RB3LYP) =  -1777.25274397     A.U. after   20 cycles
            NFock= 20  Conv=0.24D-08     -V/T= 2.0285
 DoSCS=F DFT=T ScalE2(SS,OS)=  1.000000  1.000000
 Range of M.O.s used for correlation:     1   152
 NBasis=   152 NAE=    49 NBE=    49 NFC=     0 NFV=     0
 NROrb=    152 NOA=    49 NOB=    49 NVA=   103 NVB=   103

 **** Warning!!: The smallest alpha delta epsilon is  0.94569440D-01

   1 Symmetry operations used in ECPInt.
 ECPInt:  NShTT=    1485 NPrTT=    9652 LenC2=    1423 LenP2D=    6565.
 LDataN:  DoStor=T MaxTD1= 6 Len=  172
 Symmetrizing basis deriv contribution to polar:
 IMax=3 JMax=2 DiffMx= 0.00D+00
 G2DrvN: will do    14 centers at a time, making    1 passes.
 Calling FoFCou, ICntrl=  3107 FMM=F I1Cent=   0 AccDes= 0.00D+00.
 Defaulting to unpruned grid for atomic number  42.
 Defaulting to unpruned grid for atomic number  42.
 Defaulting to unpruned grid for atomic number  42.
 Defaulting to unpruned grid for atomic number  42.
 Defaulting to unpruned grid for atomic number  42.
 Defaulting to unpruned grid for atomic number  42.
 Defaulting to unpruned grid for atomic number  42.
 Defaulting to unpruned grid for atomic number  42.
 Defaulting to unpruned grid for atomic number  42.
 Defaulting to unpruned grid for atomic number  42.
 Defaulting to unpruned grid for atomic number  42.
 Defaulting to unpruned grid for atomic number  42.
 Defaulting to unpruned grid for atomic number  42.
 Defaulting to unpruned grid for atomic number  42.
 Defaulting to unpruned grid for atomic number  42.
 End of G2Drv F.D. properties file   721 does not exist.
 End of G2Drv F.D. properties file   722 does not exist.
 End of G2Drv F.D. properties file   788 does not exist.
          IDoAtm=1111111111111
          Differentiating once with respect to nuclear coordinates.
 Defaulting to unpruned grid for atomic number  42.
 Keep R1 ints in memory in canonical form, NReq=82404284.
 Defaulting to unpruned grid for atomic number  42.
 Defaulting to unpruned grid for atomic number  42.
 Defaulting to unpruned grid for atomic number  42.
 Defaulting to unpruned grid for atomic number  42.
 Defaulting to unpruned grid for atomic number  42.
 Defaulting to unpruned grid for atomic number  42.
 Defaulting to unpruned grid for atomic number  42.
 Defaulting to unpruned grid for atomic number  42.
 Defaulting to unpruned grid for atomic number  42.
 Defaulting to unpruned grid for atomic number  42.
 Defaulting to unpruned grid for atomic number  42.
 Defaulting to unpruned grid for atomic number  42.
 Defaulting to unpruned grid for atomic number  42.
 Defaulting to unpruned grid for atomic number  42.
 Defaulting to unpruned grid for atomic number  42.
          There are    42 degrees of freedom in the 1st order CPHF.  IDoFFX=6 NUNeed=     0.
     36 vectors produced by pass  0 Test12= 1.20D-14 2.38D-09 XBig12= 2.07D-01 1.89D-01.
 AX will form    36 AO Fock derivatives at one time.
     36 vectors produced by pass  1 Test12= 1.20D-14 2.38D-09 XBig12= 1.28D-01 9.32D-02.
     36 vectors produced by pass  2 Test12= 1.20D-14 2.38D-09 XBig12= 1.23D-02 1.76D-02.
     36 vectors produced by pass  3 Test12= 1.20D-14 2.38D-09 XBig12= 2.04D-04 2.56D-03.
     36 vectors produced by pass  4 Test12= 1.20D-14 2.38D-09 XBig12= 1.33D-06 2.18D-04.
     36 vectors produced by pass  5 Test12= 1.20D-14 2.38D-09 XBig12= 3.23D-09 8.63D-06.
     22 vectors produced by pass  6 Test12= 1.20D-14 2.38D-09 XBig12= 4.72D-12 3.38D-07.
      2 vectors produced by pass  7 Test12= 1.20D-14 2.38D-09 XBig12= 6.10D-15 1.23D-08.
 InvSVY:  IOpt=1 It=  1 EMax= 1.44D-15
 Solved reduced A of dimension   240 with    36 vectors.
 End of Minotr F.D. properties file   721 does not exist.
 End of Minotr F.D. properties file   722 does not exist.
 End of Minotr F.D. properties file   788 does not exist.

 **********************************************************************

            Population analysis using the SCF Density.

 **********************************************************************

 Alpha  occ. eigenvalues --  -88.92266 -88.89925 -88.86194 -88.86189 -19.22730
 Alpha  occ. eigenvalues --  -10.29843  -8.00042  -7.97581  -7.93932  -7.93903
 Alpha  occ. eigenvalues --   -5.96227  -5.96054  -5.95676  -5.93802  -5.93683
 Alpha  occ. eigenvalues --   -5.93126  -5.90210  -5.90172  -5.89797  -5.89758
 Alpha  occ. eigenvalues --   -5.89651  -5.89638  -2.50131  -1.53737  -1.52386
 Alpha  occ. eigenvalues --   -1.51317  -1.12855  -0.79091  -0.75605  -0.71463
 Alpha  occ. eigenvalues --   -0.70942  -0.56253  -0.53741  -0.45864  -0.45598
 Alpha  occ. eigenvalues --   -0.45268  -0.44868  -0.42941  -0.41268  -0.39934
 Alpha  occ. eigenvalues --   -0.36631  -0.33879  -0.31888  -0.30905  -0.30509
 Alpha  occ. eigenvalues --   -0.28024  -0.26240  -0.24544  -0.22092
 Alpha virt. eigenvalues --   -0.12635  -0.10384  -0.08563  -0.02165  -0.01403
 Alpha virt. eigenvalues --   -0.00902  -0.00145   0.00839   0.02147   0.04200
 Alpha virt. eigenvalues --    0.04435   0.06719   0.08448   0.09833   0.15423
 Alpha virt. eigenvalues --    0.18311   0.19753   0.20800   0.24841   0.29232
 Alpha virt. eigenvalues --    0.30733   0.31318   0.33259   0.33808   0.34459
 Alpha virt. eigenvalues --    0.34858   0.35453   0.36161   0.37688   0.40278
 Alpha virt. eigenvalues --    0.41095   0.42368   0.43343   0.50613   0.52546
 Alpha virt. eigenvalues --    0.54507   0.54940   0.57489   0.62127   0.65176
 Alpha virt. eigenvalues --    0.66814   0.67892   0.69885   0.70898   0.71539
 Alpha virt. eigenvalues --    0.72015   0.73212   0.73646   0.74291   0.74781
 Alpha virt. eigenvalues --    0.75000   0.77170   0.77753   0.79694   0.84645
 Alpha virt. eigenvalues --    0.84895   0.88350   0.89133   0.91032   0.92661
 Alpha virt. eigenvalues --    0.93207   0.93555   0.98695   1.01035   1.02505
 Alpha virt. eigenvalues --    1.04120   1.07038   1.09333   1.11627   1.14418
 Alpha virt. eigenvalues --    1.15701   1.17606   1.19107   1.51460   1.51712
 Alpha virt. eigenvalues --    1.57444   1.58246   1.63979   1.69034   1.86666
 Alpha virt. eigenvalues --    1.95335   1.95650   2.03928   2.06142   2.06471
 Alpha virt. eigenvalues --    2.07754   2.08837   2.09103   2.11063   2.11779
 Alpha virt. eigenvalues --    2.29215   2.39138   2.45815   2.58297   2.58625
 Alpha virt. eigenvalues --    2.67344   2.70220   2.73507   2.73785   2.74691
 Alpha virt. eigenvalues --    2.98041   3.70826   7.92645
          Condensed to atoms (all electrons):
               1          2          3          4          5          6
     1  Mo  13.082009   0.199116  -0.014665   0.277090  -0.035216   0.300855
     2  C    0.199116   4.992165   0.618394  -0.015712   0.000730  -0.011438
     3  O   -0.014665   0.618394   7.639111   0.000686  -0.000005  -0.001432
     4  S    0.277090  -0.015712   0.000686  15.583988   0.237733   0.019557
     5  H   -0.035216   0.000730  -0.000005   0.237733   0.738598  -0.000358
     6  S    0.300855  -0.011438  -0.001432   0.019557  -0.000358  15.591069
     7  H   -0.035443  -0.007153   0.001713  -0.000327   0.000007   0.259017
     8  S    0.246979  -0.008475   0.000032   0.005041  -0.006901  -0.015554
     9  H   -0.053791   0.000103  -0.000000  -0.000294  -0.000002  -0.000384
    10  H   -0.029828   0.000091  -0.000000   0.000101  -0.000023   0.001203
    11  S    0.286100  -0.000774  -0.001183   0.009041   0.000277   0.003873
    12  H   -0.028683  -0.000298  -0.000005  -0.000183   0.000000  -0.001201
    13  H   -0.080035   0.000062  -0.000001  -0.000603  -0.000077  -0.000484
               7          8          9         10         11         12
     1  Mo  -0.035443   0.246979  -0.053791  -0.029828   0.286100  -0.028683
     2  C   -0.007153  -0.008475   0.000103   0.000091  -0.000774  -0.000298
     3  O    0.001713   0.000032  -0.000000  -0.000000  -0.001183  -0.000005
     4  S   -0.000327   0.005041  -0.000294   0.000101   0.009041  -0.000183
     5  H    0.000007  -0.006901  -0.000002  -0.000023   0.000277   0.000000
     6  S    0.259017  -0.015554  -0.000384   0.001203   0.003873  -0.001201
     7  H    0.707270   0.000830   0.000004  -0.000052   0.000229  -0.000039
     8  S    0.000830  15.560582   0.157174   0.278828  -0.084798   0.002944
     9  H    0.000004   0.157174   0.777305  -0.015360  -0.120619   0.000363
    10  H   -0.000052   0.278828  -0.015360   0.647682   0.002268  -0.000149
    11  S    0.000229  -0.084798  -0.120619   0.002268  15.538966   0.284598
    12  H   -0.000039   0.002944   0.000363  -0.000149   0.284598   0.611739
    13  H    0.000010  -0.128565   0.253813   0.000521   0.106154  -0.012352
              13
     1  Mo  -0.080035
     2  C    0.000062
     3  O   -0.000001
     4  S   -0.000603
     5  H   -0.000077
     6  S   -0.000484
     7  H    0.000010
     8  S   -0.128565
     9  H    0.253813
    10  H    0.000521
    11  S    0.106154
    12  H   -0.012352
    13  H    0.843371
 Mulliken charges:
               1
     1  Mo  -0.114488
     2  C    0.233190
     3  O   -0.242646
     4  S   -0.116118
     5  H    0.065239
     6  S   -0.144722
     7  H    0.073932
     8  S   -0.008116
     9  H    0.001688
    10  H    0.114719
    11  S   -0.024131
    12  H    0.143267
    13  H    0.018186
 Sum of Mulliken charges =  -0.00000
 Mulliken charges with hydrogens summed into heavy atoms:
               1
     1  Mo  -0.114488
     2  C    0.233190
     3  O   -0.242646
     4  S   -0.050879
     6  S   -0.070790
     8  S    0.108291
    11  S    0.137321
 APT charges:
               1
     1  Mo   0.424004
     2  C   -0.879724
     3  O    0.908996
     4  S   -0.530840
     5  H    0.282519
     6  S   -0.477505
     7  H    0.346582
     8  S   -0.478011
     9  H   -0.108689
    10  H    0.551137
    11  S   -0.454884
    12  H    0.530169
    13  H   -0.113753
 Sum of APT charges =  -0.00000
 APT charges with hydrogens summed into heavy atoms:
               1
     1  Mo   0.424004
     2  C   -0.879724
     3  O    0.908996
     4  S   -0.248322
     6  S   -0.130923
     8  S   -0.035563
    11  S   -0.038469
 Electronic spatial extent (au):  <R**2>=           4249.9412
 Charge=              0.0000 electrons
 Dipole moment (field-independent basis, Debye):
    X=              3.4401    Y=              1.7548    Z=             -0.0857  Tot=              3.8628
 Quadrupole moment (field-independent basis, Debye-Ang):
   XX=            -68.7255   YY=            -90.5250   ZZ=            -92.5318
   XY=              5.1682   XZ=              0.2955   YZ=             -2.3011
 Traceless Quadrupole moment (field-independent basis, Debye-Ang):
   XX=             15.2019   YY=             -6.5976   ZZ=             -8.6043
   XY=              5.1682   XZ=              0.2955   YZ=             -2.3011
 Octapole moment (field-independent basis, Debye-Ang**2):
  XXX=           -554.1613  YYY=            -45.9901  ZZZ=            -40.9509  XYY=           -219.0896
  XXY=              1.4413  XXZ=             -9.6233  XZZ=           -230.5660  YZZ=            -27.8940
  YYZ=             -7.0178  XYZ=             -1.8903
 Hexadecapole moment (field-independent basis, Debye-Ang**3):
 XXXX=          -3552.4233 YYYY=          -1197.5652 ZZZZ=           -879.2826 XXXY=           -116.6994
 XXXZ=            -58.3119 YYYX=           -136.4402 YYYZ=             62.6930 ZZZX=            -88.8074
 ZZZY=            -19.8931 XXYY=           -846.8534 XXZZ=           -873.9408 YYZZ=           -321.9780
 XXYZ=              1.1721 YYXZ=             -7.4375 ZZXY=            -82.9019
 N-N= 7.088381725210D+02 E-N=-5.615471983522D+03  KE= 1.728029171349D+03
  Exact polarizability:       0.000       0.000       0.000       0.000       0.000       0.000
 Approx polarizability:     279.451      25.406     375.529      -0.950     -24.326     277.851
   1 Symmetry operations used in ECPInt.
 ECPInt:  NShTT=    1485 NPrTT=    9652 LenC2=    1423 LenP2D=    6565.
 LDataN:  DoStor=T MaxTD1= 7 Len=  274
 Calling FoFJK, ICntrl=    100127 FMM=F ISym2X=0 I1Cent= 0 IOpClX= 0 NMat=1 NMatS=1 NMatT=0.
 Defaulting to unpruned grid for atomic number  42.
 Defaulting to unpruned grid for atomic number  42.
 Defaulting to unpruned grid for atomic number  42.
 Defaulting to unpruned grid for atomic number  42.
 Defaulting to unpruned grid for atomic number  42.
 Defaulting to unpruned grid for atomic number  42.
 Defaulting to unpruned grid for atomic number  42.
 Defaulting to unpruned grid for atomic number  42.
 Defaulting to unpruned grid for atomic number  42.
 Defaulting to unpruned grid for atomic number  42.
 Defaulting to unpruned grid for atomic number  42.
 Defaulting to unpruned grid for atomic number  42.
 Defaulting to unpruned grid for atomic number  42.
 Defaulting to unpruned grid for atomic number  42.
 Defaulting to unpruned grid for atomic number  42.
 -------------------------------------------------------------------
 Center     Atomic                   Forces (Hartrees/Bohr)
 Number     Number              X              Y              Z
 -------------------------------------------------------------------
      1       42           0.000882499    0.004870797   -0.001073694
      2        6          -0.000087677   -0.002132981   -0.000197825
      3        8           0.000081949   -0.000001921   -0.000060318
      4       16           0.000048873   -0.000010868   -0.000322639
      5        1          -0.000226036    0.000102421    0.000205932
      6       16          -0.000336046    0.000008286    0.000598233
      7        1           0.000266039   -0.000077173   -0.000263915
      8       16          -0.011437959    0.000123889    0.005638227
      9        1          -0.014661846    0.027809262    0.008331229
     10        1           0.000704228   -0.000075102   -0.000357445
     11       16          -0.000487245   -0.013845924   -0.000229212
     12        1           0.000696264    0.001015360   -0.000076669
     13        1           0.024556956   -0.017786046   -0.012191903
 -------------------------------------------------------------------
 Cartesian Forces:  Max     0.027809262 RMS     0.008028215
 FormGI is forming the generalized inverse of G from B-inverse, IUseBI=4.

 GradGradGradGradGradGradGradGradGradGradGradGradGradGradGradGradGradGrad
 Berny optimization.
 Internal  Forces:  Max     0.036297575 RMS     0.005151493
 Search for a saddle point.
 Step number   1 out of a maximum of   73
 All quantities printed in internal units (Hartrees-Bohrs-Radians)
 Swapping is turned off.
 Second derivative matrix not updated -- analytic derivatives used.
 ITU=  0
     Eigenvalues ---   -0.01706   0.00363   0.00485   0.00958   0.01102
     Eigenvalues ---    0.01208   0.02096   0.02213   0.02824   0.03100
     Eigenvalues ---    0.03336   0.03648   0.03831   0.04478   0.05543
     Eigenvalues ---    0.06301   0.07552   0.08560   0.09660   0.10191
     Eigenvalues ---    0.11234   0.11681   0.13486   0.15851   0.16274
     Eigenvalues ---    0.16652   0.17407   0.21884   0.24990   0.25632
     Eigenvalues ---    0.25791   0.26497   1.11581
 Eigenvectors required to have negative eigenvalues:
                          R13       R9        R11       R4        R1
   1                    0.61861   0.57966  -0.33877  -0.20782   0.12447
                          A9        R5        D8        D4        A19
   1                    0.12045  -0.11624   0.10560  -0.09935  -0.09568
 RFO step:  Lambda0=3.260710288D-05 Lambda=-8.61652999D-03.
 Linear search not attempted -- option 19 set.
 Iteration  1 RMS(Cart)=  0.02336231 RMS(Int)=  0.00107224
 Iteration  2 RMS(Cart)=  0.00076644 RMS(Int)=  0.00015320
 Iteration  3 RMS(Cart)=  0.00000089 RMS(Int)=  0.00015319
 Variable       Old X    -DE/DX   Delta X   Delta X   Delta X     New X
                                 (Linear)    (Quad)   (Total)
    R1        3.78572   0.00210   0.00000   0.00660   0.00660   3.79232
    R2        4.38082   0.00021   0.00000   0.00220   0.00220   4.38302
    R3        4.41383   0.00032   0.00000   0.00292   0.00292   4.41675
    R4        4.68260   0.00141   0.00000  -0.00718  -0.00720   4.67540
    R5        4.52766   0.00239   0.00000   0.00702   0.00680   4.53446
    R6        2.18457  -0.00001   0.00000   0.00033   0.00033   2.18490
    R7        2.56529   0.00014   0.00000   0.00104   0.00104   2.56633
    R8        2.55763  -0.00004   0.00000  -0.00038  -0.00038   2.55725
    R9        3.08991   0.00818   0.00000   0.00128   0.00150   3.09141
   R10        2.55723  -0.00001   0.00000   0.00038   0.00038   2.55761
   R11        1.60465   0.03630   0.00000   0.20734   0.20752   1.81217
   R12        2.55320   0.00028   0.00000   0.00043   0.00043   2.55364
   R13        3.17358   0.00843   0.00000   0.00558   0.00561   3.17918
    A1        1.54722   0.00042   0.00000  -0.00248  -0.00250   1.54472
    A2        1.59554   0.00083   0.00000   0.00159   0.00158   1.59712
    A3        1.64850  -0.00360   0.00000  -0.01516  -0.01504   1.63347
    A4        2.12327  -0.00015   0.00000  -0.00098  -0.00101   2.12227
    A5        1.61715  -0.00232   0.00000  -0.00470  -0.00454   1.61260
    A6        2.02652  -0.00005   0.00000   0.00020   0.00028   2.02681
    A7        1.55333  -0.00234   0.00000   0.00017   0.00019   1.55351
    A8        2.12977   0.00041   0.00000   0.00220   0.00201   2.13178
    A9        1.46281   0.00709   0.00000   0.02045   0.02019   1.48300
   A10        1.80795   0.00013   0.00000   0.00179   0.00179   1.80973
   A11        1.85316  -0.00068   0.00000  -0.00457  -0.00457   1.84859
   A12        1.56117   0.00161   0.00000   0.02947   0.02977   1.59093
   A13        1.85315   0.00024   0.00000   0.00414   0.00404   1.85719
   A14        1.58136  -0.00101   0.00000  -0.01003  -0.01004   1.57132
   A15        2.46029  -0.00572   0.00000  -0.05126  -0.05091   2.40938
   A16        1.67811   0.00113   0.00000   0.01705   0.01697   1.69508
   A17        1.61830   0.00135   0.00000   0.01932   0.01874   1.63704
   A18        1.60873  -0.00077   0.00000  -0.01429  -0.01436   1.59437
   A19        2.30835  -0.00429   0.00000  -0.01570  -0.01561   2.29274
   A20        3.16437  -0.00190   0.00000  -0.00717  -0.00704   3.15732
   A21        3.09057   0.00012   0.00000   0.00482   0.00482   3.09539
   A22        3.16419  -0.00296   0.00000  -0.00239  -0.00230   3.16189
   A23        3.15019   0.00017   0.00000   0.00117   0.00117   3.15136
    D1        3.00333   0.00034   0.00000  -0.00493  -0.00494   2.99839
    D2        1.41800  -0.00089   0.00000  -0.00528  -0.00527   1.41272
    D3       -0.16085   0.00330   0.00000  -0.00253  -0.00264  -0.16349
    D4       -1.63407  -0.00346   0.00000  -0.02302  -0.02291  -1.65698
    D5       -0.00647  -0.00022   0.00000   0.00375   0.00375  -0.00272
    D6        1.55188   0.00078   0.00000   0.00181   0.00177   1.55365
    D7       -3.11682  -0.00338   0.00000  -0.00362  -0.00346  -3.12029
    D8       -1.68455   0.00349   0.00000   0.02048   0.02037  -1.66418
    D9       -2.13069  -0.00040   0.00000   0.00683   0.00698  -2.12371
   D10        2.57349   0.00018   0.00000   0.00875   0.00871   2.58220
   D11        2.02942  -0.00013   0.00000   0.00784   0.00802   2.03743
   D12        0.45041   0.00045   0.00000   0.00976   0.00975   0.46016
   D13       -0.10636  -0.00024   0.00000   0.00747   0.00769  -0.09867
   D14       -1.68537   0.00035   0.00000   0.00939   0.00942  -1.67595
   D15       -1.40061  -0.00059   0.00000  -0.02370  -0.02366  -1.42427
   D16       -3.01472  -0.00002   0.00000  -0.01233  -0.01244  -3.02716
   D17       -2.98323   0.00072   0.00000  -0.01351  -0.01351  -2.99674
   D18        1.68584   0.00129   0.00000  -0.00214  -0.00229   1.68355
   D19        0.24825  -0.00184   0.00000  -0.03114  -0.03108   0.21717
   D20       -1.36587  -0.00127   0.00000  -0.01977  -0.01986  -1.38573
   D21        1.73039  -0.00017   0.00000  -0.01826  -0.01830   1.71209
   D22        0.11628   0.00040   0.00000  -0.00689  -0.00708   0.10920
   D23        0.09122  -0.00050   0.00000  -0.01361  -0.01324   0.07798
   D24        1.94429  -0.00024   0.00000  -0.00916  -0.00905   1.93524
   D25        0.04161  -0.00023   0.00000   0.00172   0.00174   0.04335
   D26       -0.14570   0.00077   0.00000   0.01171   0.01130  -0.13441
   D27       -1.82583  -0.00039   0.00000  -0.00547  -0.00555  -1.83138
         Item               Value     Threshold  Converged?
 Maximum Force            0.036298     0.000450     NO 
 RMS     Force            0.005151     0.000300     NO 
 Maximum Displacement     0.110590     0.001800     NO 
 RMS     Displacement     0.023877     0.001200     NO 
 Predicted change in Energy=-4.513067D-03
 GradGradGradGradGradGradGradGradGradGradGradGradGradGradGradGradGradGrad

                          Input orientation:                          
 ---------------------------------------------------------------------
 Center     Atomic      Atomic             Coordinates (Angstroms)
 Number     Number       Type             X           Y           Z
 ---------------------------------------------------------------------
      1         42           0        2.426984    0.098016    0.180624
      2          6           0        2.389347   -1.901093    0.352178
      3          8           0        2.379317   -3.047239    0.503983
      4         16           0        0.435043   -0.026594   -1.001002
      5          1           0        0.057801    1.271323   -1.132817
      6         16           0        2.458879    0.358483    2.503089
      7          1           0        2.436456   -0.893081    3.017224
      8         16           0        2.532491    2.558741   -0.053764
      9          1           0        3.983654    2.458348   -0.802251
     10          1           0        3.139801    3.023482    1.062909
     11         16           0        4.435837    0.098436   -1.131728
     12          1           0        5.306816   -0.015455   -0.104835
     13          1           0        4.577428    1.774763   -1.118084
 ---------------------------------------------------------------------
                    Distance matrix (angstroms):
                    1          2          3          4          5
     1  Mo   0.000000
     2  C    2.006809   0.000000
     3  O    3.162193   1.156200   0.000000
     4  S    2.319396   3.027234   3.894801   0.000000
     5  H    2.952085   4.207795   5.168997   1.358041   0.000000
     6  S    2.337243   3.120407   3.949899   4.064831   4.451771
     7  H    3.004773   2.849698   3.310596   4.571936   5.250284
     8  S    2.474114   4.480558   5.635740   3.461287   2.990968
     9  H    2.993397   4.783225   5.881465   4.336713   4.114684
    10  H    3.137656   5.031874   6.143647   4.569290   4.170132
    11  S    2.399533   3.223075   4.098792   4.004881   4.532424
    12  H    2.896169   3.503729   4.258243   4.953525   5.501337
    13  H    3.020353   4.523415   5.542067   4.518622   4.547604
                    6          7          8          9         10
     6  S    0.000000
     7  H    1.353237   0.000000
     8  S    3.374026   4.621176   0.000000
     9  H    4.202338   5.311712   1.635905   0.000000
    10  H    3.104834   4.433228   1.353429   2.123743   0.000000
    11  S    4.145827   4.711097   3.292087   2.425327   3.879696
    12  H    3.879671   4.330872   3.784967   2.890821   3.910847
    13  H    4.427979   5.366743   2.434988   0.958961   2.895307
                   11         12         13
    11  S    0.000000
    12  H    1.351327   0.000000
    13  H    1.682352   2.182558   0.000000
 Symmetry turned off by external request.
 Stoichiometry    CH6MoOS4
 Framework group  C1[X(CH6MoOS4)]
 Deg. of freedom    33
 Full point group                 C1      NOp   1
 Rotational constants (GHZ):           0.9041295           0.7218033           0.7053564
 Basis read from rwf:  (5D, 7F)
 Pseudo-potential data read from rwf file.
   152 basis functions,   355 primitive gaussians,   160 cartesian basis functions
    49 alpha electrons       49 beta electrons
       nuclear repulsion energy       707.8342480929 Hartrees.
 NAtoms=   13 NActive=   13 NUniq=   13 SFac= 1.00D+00 NAtFMM=   60 NAOKFM=F Big=F
 Integral buffers will be    131072 words long.
 Raffenetti 2 integral format.
 Two-electron integral symmetry is turned off.
 One-electron integrals computed using PRISM.
   1 Symmetry operations used in ECPInt.
 ECPInt:  NShTT=    1485 NPrTT=    9652 LenC2=    1422 LenP2D=    6548.
 LDataN:  DoStor=T MaxTD1= 5 Len=  102
 NBasis=   152 RedAO= T EigKep=  3.72D-03  NBF=   152
 NBsUse=   152 1.00D-06 EigRej= -1.00D+00 NBFU=   152
 Defaulting to unpruned grid for atomic number  42.
 Initial guess from the checkpoint file:  "/localscratch/chegho/Gau-32935.chk"
 B after Tr=    -0.004720   -0.000588    0.001015
         Rot=    1.000000    0.000016    0.000857    0.000476 Ang=   0.11 deg.
 ExpMin= 2.47D-02 ExpMax= 2.19D+04 ExpMxC= 3.30D+03 IAcc=3 IRadAn=         5 AccDes= 0.00D+00
 Harris functional with IExCor=  402 and IRadAn=       5 diagonalized for initial guess.
 HarFok:  IExCor=  402 AccDes= 0.00D+00 IRadAn=         5 IDoV= 1 UseB2=F ITyADJ=14
 ICtDFT=  3500011 ScaDFX=  1.000000  1.000000  1.000000  1.000000
 Defaulting to unpruned grid for atomic number  42.
 FoFCou: FMM=F IPFlag=           0 FMFlag=      100000 FMFlg1=           0
         NFxFlg=           0 DoJE=T BraDBF=F KetDBF=T FulRan=T
         wScrn=  0.000000 ICntrl=       500 IOpCl=  0 I1Cent=   200000004 NGrid=           0
         NMat0=    1 NMatS0=      1 NMatT0=    0 NMatD0=    1 NMtDS0=    0 NMtDT0=    0
 Symmetry not used in FoFCou.
 Requested convergence on RMS density matrix=1.00D-08 within 128 cycles.
 Requested convergence on MAX density matrix=1.00D-06.
 Requested convergence on             energy=1.00D-06.
 No special actions if energy rises.
 Defaulting to unpruned grid for atomic number  42.
 Defaulting to unpruned grid for atomic number  42.
 Defaulting to unpruned grid for atomic number  42.
 Defaulting to unpruned grid for atomic number  42.
 Defaulting to unpruned grid for atomic number  42.
 Defaulting to unpruned grid for atomic number  42.
 Defaulting to unpruned grid for atomic number  42.
 Defaulting to unpruned grid for atomic number  42.
 Defaulting to unpruned grid for atomic number  42.
 Defaulting to unpruned grid for atomic number  42.
 Defaulting to unpruned grid for atomic number  42.
 Defaulting to unpruned grid for atomic number  42.
 Defaulting to unpruned grid for atomic number  42.
 Defaulting to unpruned grid for atomic number  42.
 Defaulting to unpruned grid for atomic number  42.
 EnCoef did     3 forward-backward iterations
 SCF Done:  E(RB3LYP) =  -1777.25805031     A.U. after   14 cycles
            NFock= 14  Conv=0.10D-07     -V/T= 2.0286
   1 Symmetry operations used in ECPInt.
 ECPInt:  NShTT=    1485 NPrTT=    9652 LenC2=    1422 LenP2D=    6548.
 LDataN:  DoStor=T MaxTD1= 6 Len=  172
 Calling FoFJK, ICntrl=      2127 FMM=F ISym2X=0 I1Cent= 0 IOpClX= 0 NMat=1 NMatS=1 NMatT=0.
 Defaulting to unpruned grid for atomic number  42.
 Defaulting to unpruned grid for atomic number  42.
 Defaulting to unpruned grid for atomic number  42.
 Defaulting to unpruned grid for atomic number  42.
 Defaulting to unpruned grid for atomic number  42.
 Defaulting to unpruned grid for atomic number  42.
 Defaulting to unpruned grid for atomic number  42.
 Defaulting to unpruned grid for atomic number  42.
 Defaulting to unpruned grid for atomic number  42.
 Defaulting to unpruned grid for atomic number  42.
 Defaulting to unpruned grid for atomic number  42.
 Defaulting to unpruned grid for atomic number  42.
 Defaulting to unpruned grid for atomic number  42.
 Defaulting to unpruned grid for atomic number  42.
 Defaulting to unpruned grid for atomic number  42.
 -------------------------------------------------------------------
 Center     Atomic                   Forces (Hartrees/Bohr)
 Number     Number              X              Y              Z
 -------------------------------------------------------------------
      1       42           0.000149154    0.000681184   -0.000108240
      2        6          -0.000092065   -0.000108966   -0.000041861
      3        8           0.000016036   -0.000014203   -0.000020749
      4       16           0.000072248    0.000016313   -0.000165883
      5        1          -0.000073343   -0.000002002    0.000114487
      6       16          -0.000159728   -0.000133016    0.000069738
      7        1           0.000092487   -0.000004110   -0.000016323
      8       16          -0.000696593   -0.000195538    0.000542514
      9        1          -0.007313983    0.009152121    0.003621556
     10        1           0.000128828   -0.000025404   -0.000050274
     11       16          -0.000014766   -0.001278315    0.000167783
     12        1           0.000078433    0.000319814   -0.000003630
     13        1           0.007813292   -0.008407878   -0.004109118
 -------------------------------------------------------------------
 Cartesian Forces:  Max     0.009152121 RMS     0.002783808

 GradGradGradGradGradGradGradGradGradGradGradGradGradGradGradGradGradGrad
 Berny optimization.
 FormGI is forming the generalized inverse of G from B-inverse, IUseBI=4.
 Internal  Forces:  Max     0.011787049 RMS     0.001547027
 Search for a saddle point.
 Step number   2 out of a maximum of   73
 All quantities printed in internal units (Hartrees-Bohrs-Radians)
 Swapping is turned off.
 Update second derivatives using D2CorX and points    1    2
 ITU=  0  0
     Eigenvalues ---   -0.02292   0.00363   0.00506   0.00958   0.01102
     Eigenvalues ---    0.01209   0.02107   0.02215   0.02823   0.03100
     Eigenvalues ---    0.03335   0.03634   0.03834   0.04473   0.05498
     Eigenvalues ---    0.06261   0.07542   0.08521   0.09589   0.10099
     Eigenvalues ---    0.11225   0.11679   0.13452   0.13845   0.16211
     Eigenvalues ---    0.16619   0.17361   0.20124   0.24991   0.25632
     Eigenvalues ---    0.25791   0.26496   1.11581
 Eigenvectors required to have negative eigenvalues:
                          R13       R9        R11       R4        R1
   1                   -0.60438  -0.57401   0.41780   0.19361  -0.11858
                          R5        A9        D8        D4        D19
   1                    0.11186  -0.10555  -0.09033   0.08428   0.07973
 RFO step:  Lambda0=7.883154861D-04 Lambda=-1.09812855D-03.
 Linear search not attempted -- option 19 set.
 Iteration  1 RMS(Cart)=  0.02681173 RMS(Int)=  0.00077256
 Iteration  2 RMS(Cart)=  0.00076302 RMS(Int)=  0.00027143
 Iteration  3 RMS(Cart)=  0.00000057 RMS(Int)=  0.00027143
 Variable       Old X    -DE/DX   Delta X   Delta X   Delta X     New X
                                 (Linear)    (Quad)   (Total)
    R1        3.79232   0.00012   0.00000   0.02755   0.02755   3.81987
    R2        4.38302   0.00003   0.00000   0.00091   0.00091   4.38393
    R3        4.41675   0.00004   0.00000   0.00269   0.00269   4.41944
    R4        4.67540   0.00041   0.00000  -0.05560  -0.05586   4.61954
    R5        4.53446   0.00059   0.00000  -0.02425  -0.02446   4.51000
    R6        2.18490   0.00001   0.00000  -0.00339  -0.00339   2.18151
    R7        2.56633   0.00001   0.00000  -0.00031  -0.00031   2.56601
    R8        2.55725  -0.00000   0.00000  -0.00019  -0.00019   2.55706
    R9        3.09141   0.00001   0.00000   0.10618   0.10639   3.19780
   R10        2.55761   0.00001   0.00000   0.00015   0.00015   2.55776
   R11        1.81217   0.01179   0.00000   0.00302   0.00336   1.81553
   R12        2.55364   0.00002   0.00000   0.00080   0.00080   2.55444
   R13        3.17918   0.00009   0.00000   0.12115   0.12140   3.30058
    A1        1.54472   0.00005   0.00000  -0.00871  -0.00878   1.53593
    A2        1.59712   0.00011   0.00000  -0.00935  -0.00933   1.58780
    A3        1.63347  -0.00070   0.00000  -0.01598  -0.01576   1.61771
    A4        2.12227  -0.00005   0.00000   0.00299   0.00286   2.12513
    A5        1.61260  -0.00050   0.00000  -0.00346  -0.00308   1.60953
    A6        2.02681  -0.00005   0.00000  -0.00407  -0.00401   2.02280
    A7        1.55351  -0.00043   0.00000   0.00704   0.00704   1.56055
    A8        2.13178   0.00013   0.00000   0.00357   0.00297   2.13475
    A9        1.48300   0.00149   0.00000   0.03043   0.02990   1.51289
   A10        1.80973   0.00000   0.00000  -0.00171  -0.00171   1.80802
   A11        1.84859  -0.00004   0.00000  -0.00140  -0.00140   1.84719
   A12        1.59093   0.00063   0.00000   0.01776   0.01734   1.60827
   A13        1.85719   0.00008   0.00000  -0.00425  -0.00456   1.85263
   A14        1.57132  -0.00018   0.00000  -0.00808  -0.00772   1.56360
   A15        2.40938  -0.00145   0.00000  -0.02144  -0.02117   2.38821
   A16        1.69508   0.00018   0.00000  -0.01779  -0.01817   1.67691
   A17        1.63704   0.00064   0.00000   0.00837   0.00803   1.64508
   A18        1.59437  -0.00020   0.00000  -0.01408  -0.01377   1.58060
   A19        2.29274  -0.00129   0.00000  -0.02955  -0.02927   2.26347
   A20        3.15732  -0.00045   0.00000  -0.01218  -0.01186   3.14546
   A21        3.09539   0.00005   0.00000   0.00252   0.00252   3.09791
   A22        3.16189  -0.00066   0.00000  -0.01011  -0.00995   3.15194
   A23        3.15136   0.00003   0.00000   0.00287   0.00287   3.15423
    D1        2.99839  -0.00002   0.00000  -0.02095  -0.02101   2.97739
    D2        1.41272  -0.00018   0.00000  -0.00457  -0.00455   1.40817
    D3       -0.16349   0.00064   0.00000  -0.01084  -0.01106  -0.17455
    D4       -1.65698  -0.00078   0.00000  -0.04303  -0.04279  -1.69976
    D5       -0.00272   0.00002   0.00000   0.01409   0.01408   0.01136
    D6        1.55365   0.00014   0.00000  -0.00183  -0.00197   1.55168
    D7       -3.12029  -0.00071   0.00000  -0.00155  -0.00121  -3.12150
    D8       -1.66418   0.00077   0.00000   0.03864   0.03844  -1.62573
    D9       -2.12371   0.00003   0.00000   0.02758   0.02776  -2.09594
   D10        2.58220   0.00004   0.00000   0.03086   0.03088   2.61308
   D11        2.03743   0.00010   0.00000   0.02433   0.02465   2.06208
   D12        0.46016   0.00010   0.00000   0.02762   0.02777   0.48793
   D13       -0.09867   0.00003   0.00000   0.02387   0.02421  -0.07446
   D14       -1.67595   0.00003   0.00000   0.02715   0.02733  -1.64862
   D15       -1.42427  -0.00018   0.00000  -0.04480  -0.04482  -1.46909
   D16       -3.02716  -0.00007   0.00000  -0.03039  -0.03054  -3.05770
   D17       -2.99674   0.00011   0.00000  -0.02698  -0.02715  -3.02389
   D18        1.68355   0.00022   0.00000  -0.01257  -0.01286   1.67068
   D19        0.21717  -0.00048   0.00000  -0.06564  -0.06561   0.15156
   D20       -1.38573  -0.00038   0.00000  -0.05123  -0.05132  -1.43705
   D21        1.71209  -0.00006   0.00000  -0.03838  -0.03856   1.67353
   D22        0.10920   0.00004   0.00000  -0.02397  -0.02428   0.08492
   D23        0.07798  -0.00021   0.00000  -0.02985  -0.02914   0.04884
   D24        1.93524  -0.00013   0.00000  -0.03416  -0.03384   1.90140
   D25        0.04335  -0.00001   0.00000   0.00150   0.00143   0.04478
   D26       -0.13441   0.00022   0.00000   0.02860   0.02772  -0.10669
   D27       -1.83138   0.00003   0.00000   0.04715   0.04674  -1.78464
         Item               Value     Threshold  Converged?
 Maximum Force            0.011787     0.000450     NO 
 RMS     Force            0.001547     0.000300     NO 
 Maximum Displacement     0.086939     0.001800     NO 
 RMS     Displacement     0.027006     0.001200     NO 
 Predicted change in Energy=-1.570840D-04
 GradGradGradGradGradGradGradGradGradGradGradGradGradGradGradGradGradGrad

                          Input orientation:                          
 ---------------------------------------------------------------------
 Center     Atomic      Atomic             Coordinates (Angstroms)
 Number     Number       Type             X           Y           Z
 ---------------------------------------------------------------------
      1         42           0        2.432384    0.111726    0.185029
      2          6           0        2.383364   -1.901859    0.355545
      3          8           0        2.370364   -3.046754    0.502838
      4         16           0        0.447512   -0.022183   -1.008359
      5          1           0        0.055545    1.272905   -1.122087
      6         16           0        2.456393    0.348077    2.511600
      7          1           0        2.443624   -0.909600    3.010668
      8         16           0        2.512837    2.544775   -0.037784
      9          1           0        3.997135    2.485179   -0.848257
     10          1           0        3.145753    3.003262    1.067291
     11         16           0        4.434411    0.065401   -1.113262
     12          1           0        5.284189    0.003469   -0.063844
     13          1           0        4.596342    1.803735   -1.163854
 ---------------------------------------------------------------------
                    Distance matrix (angstroms):
                    1          2          3          4          5
     1  Mo   0.000000
     2  C    2.021387   0.000000
     3  O    3.175035   1.154404   0.000000
     4  S    2.319876   3.023398   3.889615   0.000000
     5  H    2.950636   4.204910   5.163160   1.357875   0.000000
     6  S    2.338668   3.117069   3.945555   4.069743   4.452310
     7  H    3.004575   2.835117   3.295756   4.574336   5.248421
     8  S    2.444554   4.465874   5.619410   3.434655   2.971809
     9  H    3.024798   4.826956   5.922341   4.348830   4.132883
    10  H    3.106165   5.014782   6.125563   4.554355   4.163761
    11  S    2.386591   3.199110   4.069100   3.989241   4.542314
    12  H    2.864689   3.495848   4.256215   4.928104   5.483618
    13  H    3.060244   4.575727   5.591072   4.535521   4.571911
                    6          7          8          9         10
     6  S    0.000000
     7  H    1.353139   0.000000
     8  S    3.365714   4.607663   0.000000
     9  H    4.269629   5.369285   1.692205   0.000000
    10  H    3.100202   4.424951   1.353509   2.159302   0.000000
    11  S    4.139092   4.681950   3.316081   2.473209   3.878979
    12  H    3.840325   4.284288   3.760227   2.903566   3.853716
    13  H    4.495252   5.424299   2.481566   0.960738   2.919089
                   11         12         13
    11  S    0.000000
    12  H    1.351753   0.000000
    13  H    1.746593   2.219034   0.000000
 Symmetry turned off by external request.
 Stoichiometry    CH6MoOS4
 Framework group  C1[X(CH6MoOS4)]
 Deg. of freedom    33
 Full point group                 C1      NOp   1
 Rotational constants (GHZ):           0.9043608           0.7260309           0.7086495
 Basis read from rwf:  (5D, 7F)
 Pseudo-potential data read from rwf file.
   152 basis functions,   355 primitive gaussians,   160 cartesian basis functions
    49 alpha electrons       49 beta electrons
       nuclear repulsion energy       708.5817558633 Hartrees.
 NAtoms=   13 NActive=   13 NUniq=   13 SFac= 1.00D+00 NAtFMM=   60 NAOKFM=F Big=F
 Integral buffers will be    131072 words long.
 Raffenetti 2 integral format.
 Two-electron integral symmetry is turned off.
 One-electron integrals computed using PRISM.
   1 Symmetry operations used in ECPInt.
 ECPInt:  NShTT=    1485 NPrTT=    9652 LenC2=    1423 LenP2D=    6561.
 LDataN:  DoStor=T MaxTD1= 5 Len=  102
 NBasis=   152 RedAO= T EigKep=  3.72D-03  NBF=   152
 NBsUse=   152 1.00D-06 EigRej= -1.00D+00 NBFU=   152
 Defaulting to unpruned grid for atomic number  42.
 Initial guess from the checkpoint file:  "/localscratch/chegho/Gau-32935.chk"
 B after Tr=    -0.000163    0.004428   -0.004563
         Rot=    0.999998   -0.000364    0.001616    0.000822 Ang=  -0.21 deg.
 ExpMin= 2.47D-02 ExpMax= 2.19D+04 ExpMxC= 3.30D+03 IAcc=3 IRadAn=         5 AccDes= 0.00D+00
 Harris functional with IExCor=  402 and IRadAn=       5 diagonalized for initial guess.
 HarFok:  IExCor=  402 AccDes= 0.00D+00 IRadAn=         5 IDoV= 1 UseB2=F ITyADJ=14
 ICtDFT=  3500011 ScaDFX=  1.000000  1.000000  1.000000  1.000000
 Defaulting to unpruned grid for atomic number  42.
 FoFCou: FMM=F IPFlag=           0 FMFlag=      100000 FMFlg1=           0
         NFxFlg=           0 DoJE=T BraDBF=F KetDBF=T FulRan=T
         wScrn=  0.000000 ICntrl=       500 IOpCl=  0 I1Cent=   200000004 NGrid=           0
         NMat0=    1 NMatS0=      1 NMatT0=    0 NMatD0=    1 NMtDS0=    0 NMtDT0=    0
 Symmetry not used in FoFCou.
 Requested convergence on RMS density matrix=1.00D-08 within 128 cycles.
 Requested convergence on MAX density matrix=1.00D-06.
 Requested convergence on             energy=1.00D-06.
 No special actions if energy rises.
 Defaulting to unpruned grid for atomic number  42.
 Defaulting to unpruned grid for atomic number  42.
 Defaulting to unpruned grid for atomic number  42.
 Defaulting to unpruned grid for atomic number  42.
 Defaulting to unpruned grid for atomic number  42.
 Defaulting to unpruned grid for atomic number  42.
 Defaulting to unpruned grid for atomic number  42.
 Defaulting to unpruned grid for atomic number  42.
 Defaulting to unpruned grid for atomic number  42.
 Defaulting to unpruned grid for atomic number  42.
 Defaulting to unpruned grid for atomic number  42.
 Defaulting to unpruned grid for atomic number  42.
 Defaulting to unpruned grid for atomic number  42.
 Defaulting to unpruned grid for atomic number  42.
 Defaulting to unpruned grid for atomic number  42.
 SCF Done:  E(RB3LYP) =  -1777.25829271     A.U. after   14 cycles
            NFock= 14  Conv=0.62D-08     -V/T= 2.0286
   1 Symmetry operations used in ECPInt.
 ECPInt:  NShTT=    1485 NPrTT=    9652 LenC2=    1423 LenP2D=    6561.
 LDataN:  DoStor=T MaxTD1= 6 Len=  172
 Calling FoFJK, ICntrl=      2127 FMM=F ISym2X=0 I1Cent= 0 IOpClX= 0 NMat=1 NMatS=1 NMatT=0.
 Defaulting to unpruned grid for atomic number  42.
 Defaulting to unpruned grid for atomic number  42.
 Defaulting to unpruned grid for atomic number  42.
 Defaulting to unpruned grid for atomic number  42.
 Defaulting to unpruned grid for atomic number  42.
 Defaulting to unpruned grid for atomic number  42.
 Defaulting to unpruned grid for atomic number  42.
 Defaulting to unpruned grid for atomic number  42.
 Defaulting to unpruned grid for atomic number  42.
 Defaulting to unpruned grid for atomic number  42.
 Defaulting to unpruned grid for atomic number  42.
 Defaulting to unpruned grid for atomic number  42.
 Defaulting to unpruned grid for atomic number  42.
 Defaulting to unpruned grid for atomic number  42.
 Defaulting to unpruned grid for atomic number  42.
 -------------------------------------------------------------------
 Center     Atomic                   Forces (Hartrees/Bohr)
 Number     Number              X              Y              Z
 -------------------------------------------------------------------
      1       42          -0.000051872   -0.000196066   -0.000063424
      2        6           0.000014966   -0.000035605   -0.000014995
      3        8          -0.000010269   -0.000100586    0.000000252
      4       16           0.000010670    0.000019120   -0.000026957
      5        1          -0.000027409   -0.000003970    0.000037562
      6       16          -0.000096861   -0.000042278    0.000044213
      7        1           0.000033252    0.000009619   -0.000003899
      8       16          -0.000821613    0.000770939    0.000503969
      9        1           0.000061014    0.000547063   -0.000071891
     10        1           0.000064176    0.000056858   -0.000029167
     11       16           0.000256461   -0.001466135   -0.000149458
     12        1           0.000091127    0.000189804   -0.000010544
     13        1           0.000476357    0.000251237   -0.000215662
 -------------------------------------------------------------------
 Cartesian Forces:  Max     0.001466135 RMS     0.000340934

 GradGradGradGradGradGradGradGradGradGradGradGradGradGradGradGradGradGrad
 Berny optimization.
 FormGI is forming the generalized inverse of G from B-inverse, IUseBI=4.
 Internal  Forces:  Max     0.000892743 RMS     0.000231254
 Search for a saddle point.
 Step number   3 out of a maximum of   73
 All quantities printed in internal units (Hartrees-Bohrs-Radians)
 Swapping is turned off.
 Update second derivatives using D2CorX and points    1    2    3
 ITU=  0  0  0
     Eigenvalues ---   -0.02513   0.00365   0.00575   0.00958   0.01106
     Eigenvalues ---    0.01208   0.02110   0.02209   0.02821   0.03100
     Eigenvalues ---    0.03334   0.03640   0.03827   0.04478   0.05519
     Eigenvalues ---    0.06290   0.07540   0.08527   0.09573   0.10108
     Eigenvalues ---    0.11222   0.11680   0.13372   0.13611   0.16208
     Eigenvalues ---    0.16619   0.17346   0.19810   0.24990   0.25632
     Eigenvalues ---    0.25791   0.26496   1.11580
 Eigenvectors required to have negative eigenvalues:
                          R13       R9        R11       R4        R1
   1                   -0.61641  -0.57986   0.39921   0.17351  -0.11621
                          A9        R5        D8        D19       D4
   1                   -0.10657   0.10533  -0.09312   0.08887   0.08866
 RFO step:  Lambda0=1.326009500D-05 Lambda=-3.19043802D-05.
 Linear search not attempted -- option 19 set.
 Iteration  1 RMS(Cart)=  0.00641179 RMS(Int)=  0.00002307
 Iteration  2 RMS(Cart)=  0.00002316 RMS(Int)=  0.00000417
 Iteration  3 RMS(Cart)=  0.00000000 RMS(Int)=  0.00000417
 Variable       Old X    -DE/DX   Delta X   Delta X   Delta X     New X
                                 (Linear)    (Quad)   (Total)
    R1        3.81987   0.00013   0.00000  -0.00492  -0.00492   3.81495
    R2        4.38393   0.00001   0.00000  -0.00060  -0.00060   4.38333
    R3        4.41944   0.00004   0.00000  -0.00052  -0.00052   4.41892
    R4        4.61954   0.00070   0.00000   0.01753   0.01753   4.63706
    R5        4.51000   0.00036   0.00000   0.00704   0.00704   4.51704
    R6        2.18151   0.00010   0.00000   0.00068   0.00068   2.18219
    R7        2.56601   0.00000   0.00000   0.00011   0.00011   2.56612
    R8        2.55706  -0.00001   0.00000   0.00002   0.00002   2.55708
    R9        3.19780   0.00064   0.00000  -0.01312  -0.01311   3.18469
   R10        2.55776   0.00003   0.00000  -0.00011  -0.00011   2.55765
   R11        1.81553   0.00085   0.00000   0.01676   0.01676   1.83229
   R12        2.55444   0.00004   0.00000   0.00014   0.00014   2.55459
   R13        3.30058   0.00089   0.00000  -0.01039  -0.01038   3.29020
    A1        1.53593   0.00002   0.00000   0.00080   0.00080   1.53674
    A2        1.58780   0.00004   0.00000   0.00111   0.00112   1.58891
    A3        1.61771  -0.00022   0.00000  -0.00137  -0.00136   1.61635
    A4        2.12513  -0.00008   0.00000  -0.00340  -0.00340   2.12173
    A5        1.60953  -0.00010   0.00000   0.00043   0.00043   1.60996
    A6        2.02280   0.00004   0.00000   0.00048   0.00048   2.02327
    A7        1.56055  -0.00016   0.00000   0.00003   0.00003   1.56058
    A8        2.13475   0.00005   0.00000   0.00290   0.00290   2.13765
    A9        1.51289   0.00043   0.00000  -0.00103  -0.00104   1.51185
   A10        1.80802   0.00001   0.00000  -0.00044  -0.00044   1.80759
   A11        1.84719   0.00000   0.00000   0.00032   0.00032   1.84751
   A12        1.60827  -0.00026   0.00000  -0.00313  -0.00314   1.60513
   A13        1.85263   0.00009   0.00000   0.00008   0.00009   1.85272
   A14        1.56360   0.00003   0.00000   0.00099   0.00098   1.56459
   A15        2.38821  -0.00001   0.00000   0.00352   0.00352   2.39173
   A16        1.67691   0.00012   0.00000   0.00129   0.00130   1.67821
   A17        1.64508  -0.00027   0.00000  -0.00049  -0.00050   1.64458
   A18        1.58060  -0.00006   0.00000  -0.00523  -0.00523   1.57537
   A19        2.26347   0.00011   0.00000   0.00200   0.00201   2.26548
   A20        3.14546  -0.00008   0.00000   0.00123   0.00124   3.14670
   A21        3.09791   0.00003   0.00000   0.00055   0.00055   3.09847
   A22        3.15194  -0.00019   0.00000   0.00207   0.00207   3.15401
   A23        3.15423  -0.00003   0.00000  -0.00120  -0.00120   3.15303
    D1        2.97739  -0.00000   0.00000  -0.00223  -0.00223   2.97515
    D2        1.40817  -0.00007   0.00000  -0.00416  -0.00416   1.40402
    D3       -0.17455   0.00019   0.00000  -0.00430  -0.00431  -0.17886
    D4       -1.69976  -0.00024   0.00000  -0.00337  -0.00337  -1.70313
    D5        0.01136  -0.00001   0.00000  -0.00091  -0.00091   0.01045
    D6        1.55168   0.00005   0.00000   0.00073   0.00073   1.55241
    D7       -3.12150  -0.00018   0.00000   0.00120   0.00121  -3.12029
    D8       -1.62573   0.00022   0.00000  -0.00017  -0.00017  -1.62591
    D9       -2.09594  -0.00002   0.00000   0.00479   0.00479  -2.09115
   D10        2.61308   0.00002   0.00000   0.00467   0.00467   2.61776
   D11        2.06208   0.00006   0.00000   0.00819   0.00819   2.07027
   D12        0.48793   0.00011   0.00000   0.00807   0.00807   0.49600
   D13       -0.07446   0.00002   0.00000   0.00524   0.00523  -0.06923
   D14       -1.64862   0.00007   0.00000   0.00512   0.00511  -1.64351
   D15       -1.46909  -0.00010   0.00000  -0.01060  -0.01060  -1.47969
   D16       -3.05770  -0.00002   0.00000  -0.00537  -0.00537  -3.06307
   D17       -3.02389  -0.00002   0.00000  -0.01085  -0.01085  -3.03474
   D18        1.67068   0.00006   0.00000  -0.00562  -0.00562   1.66506
   D19        0.15156  -0.00019   0.00000  -0.00992  -0.00992   0.14164
   D20       -1.43705  -0.00010   0.00000  -0.00469  -0.00469  -1.44174
   D21        1.67353  -0.00011   0.00000  -0.01081  -0.01080   1.66272
   D22        0.08492  -0.00003   0.00000  -0.00558  -0.00557   0.07934
   D23        0.04884  -0.00004   0.00000  -0.00406  -0.00406   0.04478
   D24        1.90140   0.00005   0.00000  -0.00395  -0.00395   1.89745
   D25        0.04478   0.00000   0.00000  -0.00158  -0.00158   0.04320
   D26       -0.10669   0.00004   0.00000   0.00617   0.00618  -0.10051
   D27       -1.78464  -0.00007   0.00000   0.00528   0.00528  -1.77935
         Item               Value     Threshold  Converged?
 Maximum Force            0.000893     0.000450     NO 
 RMS     Force            0.000231     0.000300     YES
 Maximum Displacement     0.020497     0.001800     NO 
 RMS     Displacement     0.006410     0.001200     NO 
 Predicted change in Energy=-9.341628D-06
 GradGradGradGradGradGradGradGradGradGradGradGradGradGradGradGradGradGrad

                          Input orientation:                          
 ---------------------------------------------------------------------
 Center     Atomic      Atomic             Coordinates (Angstroms)
 Number     Number       Type             X           Y           Z
 ---------------------------------------------------------------------
      1         42           0        2.432539    0.109056    0.186533
      2          6           0        2.385271   -1.902193    0.354231
      3          8           0        2.371685   -3.047699    0.499530
      4         16           0        0.447946   -0.023091   -1.006902
      5          1           0        0.054747    1.272118   -1.115592
      6         16           0        2.448553    0.345177    2.512917
      7          1           0        2.434369   -0.912398    3.012239
      8         16           0        2.516472    2.551266   -0.036726
      9          1           0        3.990821    2.484351   -0.850321
     10          1           0        3.155098    3.008410    1.065546
     11         16           0        4.438359    0.062832   -1.112755
     12          1           0        5.289516    0.014316   -0.063651
     13          1           0        4.594480    1.795988   -1.169524
 ---------------------------------------------------------------------
                    Distance matrix (angstroms):
                    1          2          3          4          5
     1  Mo   0.000000
     2  C    2.018782   0.000000
     3  O    3.172818   1.154764   0.000000
     4  S    2.319559   3.022736   3.888234   0.000000
     5  H    2.949938   4.203329   5.161167   1.357935   0.000000
     6  S    2.338391   3.116825   3.946040   4.065362   4.444728
     7  H    3.004661   2.836743   3.298052   4.570584   5.241536
     8  S    2.453829   4.472511   5.626450   3.441998   2.976618
     9  H    3.024125   4.823951   5.920073   4.343241   4.127051
    10  H    3.114644   5.021217   6.132745   4.562204   4.169442
    11  S    2.390314   3.198210   4.067679   3.992741   4.547355
    12  H    2.869475   3.504607   4.266947   4.932739   5.485567
    13  H    3.059186   4.569352   5.584609   4.530920   4.570177
                    6          7          8          9         10
     6  S    0.000000
     7  H    1.353151   0.000000
     8  S    3.372257   4.615181   0.000000
     9  H    4.273877   5.373994   1.685266   0.000000
    10  H    3.112378   4.436417   1.353451   2.154906   0.000000
    11  S    4.145424   4.688564   3.323220   2.476472   3.881776
    12  H    3.849577   4.297879   3.758539   2.899402   3.846482
    13  H    4.502247   5.430339   2.484310   0.969608   2.921871
                   11         12         13
    11  S    0.000000
    12  H    1.351829   0.000000
    13  H    1.741098   2.209159   0.000000
 Symmetry turned off by external request.
 Stoichiometry    CH6MoOS4
 Framework group  C1[X(CH6MoOS4)]
 Deg. of freedom    33
 Full point group                 C1      NOp   1
 Rotational constants (GHZ):           0.9035517           0.7250046           0.7069506
 Basis read from rwf:  (5D, 7F)
 Pseudo-potential data read from rwf file.
   152 basis functions,   355 primitive gaussians,   160 cartesian basis functions
    49 alpha electrons       49 beta electrons
       nuclear repulsion energy       708.0424445017 Hartrees.
 NAtoms=   13 NActive=   13 NUniq=   13 SFac= 1.00D+00 NAtFMM=   60 NAOKFM=F Big=F
 Integral buffers will be    131072 words long.
 Raffenetti 2 integral format.
 Two-electron integral symmetry is turned off.
 One-electron integrals computed using PRISM.
   1 Symmetry operations used in ECPInt.
 ECPInt:  NShTT=    1485 NPrTT=    9652 LenC2=    1423 LenP2D=    6560.
 LDataN:  DoStor=T MaxTD1= 5 Len=  102
 NBasis=   152 RedAO= T EigKep=  3.73D-03  NBF=   152
 NBsUse=   152 1.00D-06 EigRej= -1.00D+00 NBFU=   152
 Defaulting to unpruned grid for atomic number  42.
 Initial guess from the checkpoint file:  "/localscratch/chegho/Gau-32935.chk"
 B after Tr=     0.000680   -0.000629   -0.003811
         Rot=    1.000000   -0.000225    0.000545    0.000104 Ang=  -0.07 deg.
 ExpMin= 2.47D-02 ExpMax= 2.19D+04 ExpMxC= 3.30D+03 IAcc=3 IRadAn=         5 AccDes= 0.00D+00
 Harris functional with IExCor=  402 and IRadAn=       5 diagonalized for initial guess.
 HarFok:  IExCor=  402 AccDes= 0.00D+00 IRadAn=         5 IDoV= 1 UseB2=F ITyADJ=14
 ICtDFT=  3500011 ScaDFX=  1.000000  1.000000  1.000000  1.000000
 Defaulting to unpruned grid for atomic number  42.
 FoFCou: FMM=F IPFlag=           0 FMFlag=      100000 FMFlg1=           0
         NFxFlg=           0 DoJE=T BraDBF=F KetDBF=T FulRan=T
         wScrn=  0.000000 ICntrl=       500 IOpCl=  0 I1Cent=   200000004 NGrid=           0
         NMat0=    1 NMatS0=      1 NMatT0=    0 NMatD0=    1 NMtDS0=    0 NMtDT0=    0
 Symmetry not used in FoFCou.
 Requested convergence on RMS density matrix=1.00D-08 within 128 cycles.
 Requested convergence on MAX density matrix=1.00D-06.
 Requested convergence on             energy=1.00D-06.
 No special actions if energy rises.
 Defaulting to unpruned grid for atomic number  42.
 Defaulting to unpruned grid for atomic number  42.
 Defaulting to unpruned grid for atomic number  42.
 Defaulting to unpruned grid for atomic number  42.
 Defaulting to unpruned grid for atomic number  42.
 Defaulting to unpruned grid for atomic number  42.
 Defaulting to unpruned grid for atomic number  42.
 Defaulting to unpruned grid for atomic number  42.
 Defaulting to unpruned grid for atomic number  42.
 Defaulting to unpruned grid for atomic number  42.
 Defaulting to unpruned grid for atomic number  42.
 Defaulting to unpruned grid for atomic number  42.
 Defaulting to unpruned grid for atomic number  42.
 Defaulting to unpruned grid for atomic number  42.
 Defaulting to unpruned grid for atomic number  42.
 SCF Done:  E(RB3LYP) =  -1777.25830603     A.U. after   13 cycles
            NFock= 13  Conv=0.89D-08     -V/T= 2.0286
   1 Symmetry operations used in ECPInt.
 ECPInt:  NShTT=    1485 NPrTT=    9652 LenC2=    1423 LenP2D=    6560.
 LDataN:  DoStor=T MaxTD1= 6 Len=  172
 Calling FoFJK, ICntrl=      2127 FMM=F ISym2X=0 I1Cent= 0 IOpClX= 0 NMat=1 NMatS=1 NMatT=0.
 Defaulting to unpruned grid for atomic number  42.
 Defaulting to unpruned grid for atomic number  42.
 Defaulting to unpruned grid for atomic number  42.
 Defaulting to unpruned grid for atomic number  42.
 Defaulting to unpruned grid for atomic number  42.
 Defaulting to unpruned grid for atomic number  42.
 Defaulting to unpruned grid for atomic number  42.
 Defaulting to unpruned grid for atomic number  42.
 Defaulting to unpruned grid for atomic number  42.
 Defaulting to unpruned grid for atomic number  42.
 Defaulting to unpruned grid for atomic number  42.
 Defaulting to unpruned grid for atomic number  42.
 Defaulting to unpruned grid for atomic number  42.
 Defaulting to unpruned grid for atomic number  42.
 Defaulting to unpruned grid for atomic number  42.
 -------------------------------------------------------------------
 Center     Atomic                   Forces (Hartrees/Bohr)
 Number     Number              X              Y              Z
 -------------------------------------------------------------------
      1       42           0.000070367    0.000171197   -0.000031166
      2        6           0.000008006   -0.000002563   -0.000004354
      3        8           0.000001342    0.000041019   -0.000001661
      4       16           0.000000068    0.000008757   -0.000001253
      5        1           0.000001429   -0.000009454   -0.000000660
      6       16           0.000003050   -0.000015677   -0.000005784
      7        1          -0.000002532   -0.000000115    0.000003348
      8       16           0.000119998   -0.000234412   -0.000058115
      9        1          -0.000549534    0.000534073    0.000283107
     10        1          -0.000017619   -0.000013706    0.000000966
     11       16          -0.000086999    0.000044233    0.000072531
     12        1           0.000001263   -0.000023849    0.000006743
[...]
 ! A3    A(2,1,11)              92.5637         -DE/DX =    0.0                 !
 ! A4    A(4,1,6)              121.5819         -DE/DX =    0.0                 !
 ! A5    A(4,1,8)               92.2238         -DE/DX =    0.0                 !
 ! A6    A(4,1,11)             115.908          -DE/DX =    0.0                 !
 ! A7    A(6,1,8)               89.4433         -DE/DX =    0.0                 !
 ! A8    A(6,1,11)             122.4833         -DE/DX =    0.0                 !
 ! A9    A(8,1,11)              86.7332         -DE/DX =    0.0                 !
 ! A10   A(1,4,5)              103.5665         -DE/DX =    0.0                 !
 ! A11   A(1,6,7)              105.8508         -DE/DX =    0.0                 !
 ! A12   A(1,8,9)               92.0547         -DE/DX =    0.0                 !
 ! A13   A(1,8,10)             106.1551         -DE/DX =    0.0                 !
 ! A14   A(9,8,10)              89.6337         -DE/DX =    0.0                 !
 ! A15   A(8,9,13)             136.9977         -DE/DX =    0.0                 !
 ! A16   A(1,11,12)             96.1177         -DE/DX =    0.0                 !
 ! A17   A(1,11,13)             94.2589         -DE/DX =    0.0                 !
 ! A18   A(12,11,13)            90.2687         -DE/DX =    0.0                 !
 ! A19   A(9,13,11)            129.6191         -DE/DX =    0.0                 !
 ! A20   L(2,1,8,4,-1)         180.2406         -DE/DX =    0.0                 !
 ! A21   L(1,2,3,7,-1)         177.53           -DE/DX =    0.0                 !
 ! A22   L(2,1,8,4,-2)         180.6652         -DE/DX =    0.0                 !
 ! A23   L(1,2,3,7,-2)         180.6653         -DE/DX =    0.0                 !
 ! D1    D(2,1,4,5)            170.4142         -DE/DX =    0.0                 !
 ! D2    D(6,1,4,5)             80.4628         -DE/DX =    0.0                 !
 ! D3    D(8,1,4,5)            -10.2511         -DE/DX =    0.0                 !
 ! D4    D(11,1,4,5)           -97.6983         -DE/DX =    0.0                 !
 ! D5    D(2,1,6,7)              0.6385         -DE/DX =    0.0                 !
 ! D6    D(4,1,6,7)             88.9234         -DE/DX =    0.0                 !
 ! D7    D(8,1,6,7)           -178.8083         -DE/DX =    0.0                 !
 ! D8    D(11,1,6,7)           -93.0374         -DE/DX =    0.0                 !
 ! D9    D(4,1,8,9)           -119.7546         -DE/DX =    0.0                 !
 ! D10   D(4,1,8,10)           150.0315         -DE/DX =    0.0                 !
 ! D11   D(6,1,8,9)            118.6606         -DE/DX =    0.0                 !
 ! D12   D(6,1,8,10)            28.4467         -DE/DX =    0.0                 !
 ! D13   D(11,1,8,9)            -3.9214         -DE/DX =    0.0                 !
 ! D14   D(11,1,8,10)          -94.1354         -DE/DX =    0.0                 !
 ! D15   D(2,1,11,12)          -84.8451         -DE/DX =    0.0                 !
 ! D16   D(2,1,11,13)         -175.5735         -DE/DX =    0.0                 !
 ! D17   D(4,1,11,12)         -173.8846         -DE/DX =    0.0                 !
 ! D18   D(4,1,11,13)           95.387          -DE/DX =    0.0                 !
 ! D19   D(6,1,11,12)            7.9725         -DE/DX =    0.0                 !
 ! D20   D(6,1,11,13)          -82.7559         -DE/DX =    0.0                 !
 ! D21   D(8,1,11,12)           95.2283         -DE/DX =    0.0                 !
 ! D22   D(8,1,11,13)            4.4999         -DE/DX =    0.0                 !
 ! D23   D(1,8,9,13)             2.5063         -DE/DX =    0.0                 !
 ! D24   D(10,8,9,13)          108.6587         -DE/DX =    0.0                 !
 ! D25   D(8,9,13,11)            2.4749         -DE/DX =    0.0                 !
 ! D26   D(1,11,13,9)           -5.699          -DE/DX =    0.0                 !
 ! D27   D(12,11,13,9)        -101.8538         -DE/DX =    0.0                 !
 --------------------------------------------------------------------------------
 GradGradGradGradGradGradGradGradGradGradGradGradGradGradGradGradGradGrad


 ----------------------------------------------------------------------

 Electric dipole moment (input orientation):
 (Debye = 10**-18 statcoulomb cm , SI units = C m)
                  (au)            (Debye)         (10**-30 SI)
   Tot        0.137086D+01      0.348438D+01      0.116226D+02
   x          0.124644D+01      0.316814D+01      0.105678D+02
   y          0.570396D+00      0.144980D+01      0.483601D+01
   z          0.168403D-01      0.428039D-01      0.142778D+00

 Dipole polarizability, Alpha (input orientation).
 (esu units = cm**3 , SI units = C**2 m**2 J**-1)
 Alpha(0;0):
               (au)            (10**-24 esu)      (10**-40 SI)
   iso        0.146899D+03      0.217682D+02      0.242204D+02
   aniso      0.291992D+02      0.432688D+01      0.481430D+01
   xx         0.139649D+03      0.206938D+02      0.230250D+02
   yx         0.786492D+01      0.116546D+01      0.129675D+01
   yy         0.162020D+03      0.240089D+02      0.267135D+02
   zx         0.436132D+00      0.646280D-01      0.719084D-01
   zy        -0.711094D+01     -0.105373D+01     -0.117244D+01
   zz         0.139028D+03      0.206018D+02      0.229225D+02

 ----------------------------------------------------------------------

 Dipole orientation:
    42          0.44400777         -1.69269264          4.27172197
     6          1.56017347         -4.94285280          2.61038146
     8          2.11472748         -6.84143744          1.68922056
    16          1.90232997          0.43989227          0.73051114
     1          1.03688922          2.83173318          1.06941892
    16         -3.71382823         -3.16613183          4.53716736
     1         -3.68635464         -5.51871173          3.53556507
    16         -0.86770393          2.24521434          6.32510346
     1          1.09253031          1.74649580          8.79271335
     1         -2.86201272          1.64384726          7.80927926
    16          3.40400927         -2.16494374          7.64770127
     1          1.92680853         -3.66366114          9.09615191
     1          2.33650976          0.49389509          9.28327394

 Electric dipole moment (dipole orientation):
 (Debye = 10**-18 statcoulomb cm , SI units = C m)
                  (au)            (Debye)         (10**-30 SI)
   Tot        0.137086D+01      0.348438D+01      0.116226D+02
   x          0.000000D+00      0.000000D+00      0.000000D+00
   y          0.000000D+00      0.000000D+00      0.000000D+00
   z          0.137086D+01      0.348438D+01      0.116226D+02

 Dipole polarizability, Alpha (dipole orientation).
 (esu units = cm**3 , SI units = C**2 m**2 J**-1)
 Alpha(0;0):
               (au)            (10**-24 esu)      (10**-40 SI)
   iso        0.146899D+03      0.217682D+02      0.242204D+02
   aniso      0.291992D+02      0.432688D+01      0.481430D+01
   xx         0.136204D+03      0.201834D+02      0.224570D+02
   yx        -0.503379D+00     -0.745931D-01     -0.829961D-01
   yy         0.155083D+03      0.229809D+02      0.255697D+02
   zx        -0.318129D+01     -0.471419D+00     -0.524524D+00
   zy         0.134163D+02      0.198809D+01      0.221204D+01
   zz         0.149410D+03      0.221403D+02      0.246344D+02

 ----------------------------------------------------------------------
 Unable to Open any file for archive entry.
 1\1\GINC-NODE6\Freq\RB3LYP\Gen\C1H6Mo1O1S4\CHEGHO\30-Jul-2022\0\\#N Ge
 om=AllCheck Guess=TCheck SCRF=Check GenChk RB3LYP/ChkBas Freq\\Title C
 ard Required\\0,1\Mo,2.4331753116,0.1102101828,0.1868372493\C,2.384879
 0364,-1.9020938948,0.354624857\O,2.3709400977,-3.0474518434,0.49984944
 21\S,0.4490217411,-0.0224090467,-1.0074146889\H,0.0551006402,1.2726093
 175,-1.1154478531\S,2.4489700369,0.3445946082,2.5135334299\H,2.4349845
 812,-0.9133901053,3.0118021401\S,2.5151174774,2.5492048585,-0.03574515
 67\H,3.9911911625,2.4860801619,-0.8530617789\H,3.1547055923,3.00660683
 55,1.0658761947\S,4.4380582274,0.060979421,-1.1114403315\H,5.288088112
 ,0.0146025641,-0.0612763692\H,4.5956229831,1.7985879406,-1.1726121347\
 \Version=ES64L-G16RevC.01\HF=-1777.2583066\RMSD=3.857e-09\RMSF=1.381e-
 05\ZeroPoint=0.0600181\Thermal=0.0717343\ETot=-1777.1865722\HTot=-1777
 .1856281\GTot=-1777.2370847\Dipole=1.2464433,0.5703955,0.0168403\Dipol
 eDeriv=0.3493044,-0.1862541,0.1410626,-0.4377898,-0.9745105,0.14995,0.
 1592243,0.3551723,0.5144228,0.336194,0.1071792,0.0479521,0.3215808,2.8
 671108,-0.3264658,0.0330535,-0.3664276,0.3940248,-0.1644066,-0.0123404
 ,-0.0086003,-0.1426212,-2.1070215,0.1976727,0.0080012,0.2780518,-0.204
 7411,-0.513609,-0.1055109,-0.2676613,0.0128953,0.1320625,0.0341506,-0.
 182141,-0.0590188,-0.326835,0.0094345,-0.0202345,-0.0822028,0.1010494,
 -0.0922487,0.0250046,-0.0877593,-0.0082498,0.0846969,-0.183488,-0.0391
 668,-0.0332069,0.0291597,0.1047554,-0.142588,-0.0654271,-0.0132117,-0.
 7410154,0.1239461,0.0204758,0.0072959,-0.0173449,-0.0765529,0.0821532,
 -0.0110324,-0.00876,-0.0115057,0.3298278,0.6751042,-0.1433962,0.11279,
 -0.0355839,-0.038227,-0.0633591,-0.2842298,0.2114893,-0.3414659,-0.720
 9954,0.250967,0.0834777,0.1968757,-0.0767334,0.1490013,0.3395215,-0.09
 82234,0.0286927,-0.0742052,-0.0405236,0.0145378,0.0512891,0.0374019,-0
 .0356599,-0.0272774,-0.0166978,-0.122098,0.3674669,0.1000386,0.6899028
 ,0.3947038,-0.3601499,0.1666648,-0.1606446,0.1806611,0.136545,-0.00570
 95,0.0469202,-0.0914443,0.0682504,-0.0233108,-0.0185724,-0.0060093,-0.
 0274562,0.011123,-0.0058093,-0.0186454,-0.6761933,-0.5291301,0.4411421
 ,-0.0519938,-0.0389167,0.0411797\Polar=139.6489815,7.8649236,162.02012
 83,0.4361316,-7.1109415,139.0275059\Quadrupole=10.504258,-4.4926944,-6
 .0115635,3.0096227,0.7280283,-1.577196\PG=C01 [X(C1H6Mo1O1S4)]\NImag=1
 \\0.25730333,0.00960069,0.24512686,0.01707783,-0.00833611,0.27540550,-
 0.05994950,-0.00011512,-0.01016611,0.09519217,0.00650062,-0.06001207,-
 0.00463181,0.00881786,1.14362018,-0.01007059,0.00031079,-0.06519990,0.
 01075027,-0.12867897,0.12071276,0.02242923,-0.00323863,0.00423565,-0.0
 3988048,-0.01162574,-0.00240338,0.02059345,-0.00559836,-0.06239286,0.0
 1173758,-0.01008903,-1.04989303,0.12654808,0.01427843,1.10423703,0.004
 38054,0.00926315,0.02310595,-0.00254323,0.12676065,-0.05806206,-0.0007
 8589,-0.13572463,0.03731128,-0.08906262,-0.01276780,-0.04214528,-0.004
 28590,0.00464791,-0.00199961,0.00059734,-0.00026500,0.00026497,0.11672
 230,-0.00823806,-0.03287293,-0.00813005,0.01449418,-0.00024216,0.00925
 365,-0.00276490,0.00106918,-0.00238917,-0.04680890,0.26696141,-0.04688
 391,-0.00535396,-0.03864003,-0.00036277,0.00234455,-0.00466348,-0.0001
 1800,-0.00000416,0.00054138,0.05670852,-0.00598653,0.04987959,-0.00934
 675,0.01486721,-0.00296722,-0.00166488,-0.00288500,-0.00227986,0.00029
 187,0.00114952,0.00039875,-0.02588336,0.04987598,-0.00534439,0.0361423
 0,0.00494178,0.00461541,0.00432653,-0.00014049,-0.00046721,-0.00137098
 ,0.00002478,0.00036483,0.00026161,0.05700041,-0.23434065,0.01262168,-0
 .06156836,0.22924471,-0.00436216,0.00525612,-0.00273872,-0.00298547,-0
 .00122657,0.00199077,0.00059400,0.00053165,-0.00023499,-0.00383315,0.0
 0924385,-0.01064836,0.01039068,-0.01487288,0.01222597,-0.01495837,0.00
 244012,-0.00068810,0.00290896,0.00148060,0.00022979,-0.00053618,-0.000
 79841,-0.00002447,0.00184673,-0.00442219,-0.00129641,0.00197997,0.0006
 0896,0.00031327,0.01440508,-0.00080920,-0.03044805,0.00042437,-0.00064
 234,-0.00315937,-0.01251237,0.00066377,0.00224836,0.00210502,0.0015923
 4,0.00114303,-0.00382191,-0.00147485,0.00018799,0.00300801,0.00255111,
 0.26402638,0.00162508,-0.01627096,-0.10322812,-0.00069314,-0.00395209,
 -0.00799917,0.00024900,0.00141934,0.00215068,-0.00930877,0.00026157,-0
 .00465353,-0.00061062,-0.00093959,0.00151492,0.00225614,-0.06363977,0.
 15183448,0.00053917,-0.00165454,-0.00041410,-0.00160740,-0.00086001,-0
 .00002979,0.00012756,0.00037946,-0.00001301,0.00146568,0.00282949,0.00
 027523,-0.00118171,-0.00033200,-0.00011622,-0.00826558,-0.00229264,0.0
 0012965,0.00728796,0.00045720,0.00536528,0.00068122,0.00013840,-0.0012
 3587,-0.00176138,0.00004699,0.00134903,0.00098602,-0.00074807,0.000301
 31,0.00040363,0.00009994,-0.00008285,-0.00048690,-0.00290744,-0.232673
 17,0.07811673,0.00258104,0.22638976,0.00112293,0.00992767,-0.01447630,
 0.00039980,0.00336221,-0.00002362,-0.00022659,-0.00276591,0.00005737,-
 0.00055391,0.00007518,0.00157394,0.00028038,0.00006633,-0.00108097,-0.
 00041220,0.06829563,-0.03629140,-0.00041458,-0.07825870,0.05044323,-0.
 01863007,0.01655473,-0.00556947,0.01043232,-0.01544813,0.00563601,-0.0
 0355898,0.00510254,-0.00203323,-0.00111637,-0.00479632,-0.00156517,-0.
 00073569,-0.00081781,0.00033839,-0.00126444,-0.00146426,-0.00077087,0.
 00124430,-0.00028872,-0.00023159,0.12532285,0.01861000,-0.02620674,0.0
 0231664,-0.01139581,-0.03418988,0.00129287,0.00368313,0.00655984,-0.00
 005456,-0.00249592,-0.00150467,-0.00031940,-0.00058284,0.00064388,-0.0
 0150700,0.00053829,-0.00082401,0.00532842,-0.00026675,-0.00021943,-0.0
 0144366,0.01960580,0.11029597,-0.00668372,-0.00369446,-0.03014760,0.00
 369871,0.00826010,0.01385772,-0.00151940,-0.00328928,-0.00480404,-0.00
 354977,-0.00306866,-0.00103141,0.00002026,-0.00130705,-0.00112298,-0.0
 0009172,0.00809013,-0.00497777,0.00009420,0.00056993,-0.00025143,0.091
 05098,0.06693021,0.21719444,-0.01443748,-0.03954686,0.00924687,0.00291
 678,0.02074255,-0.00234726,-0.00106915,-0.00791251,0.00119512,-0.00034
 058,0.00093861,0.00061931,-0.00071199,0.00068757,-0.00125942,0.0013984
 7,0.00163430,0.00107750,-0.00069283,0.00032474,0.00024429,0.00522450,0
 .00572469,-0.01060683,0.00671574,0.00047023,0.00134747,0.00111593,0.00
 175941,-0.00652002,-0.00129965,-0.00057887,0.00257220,0.00029782,0.000
 32149,-0.00017972,-0.00031439,0.00022299,-0.00035186,0.00053810,-0.000
 21498,-0.00045466,-0.00063933,0.00012957,-0.00006017,-0.00009062,-0.01
 836741,-0.00976301,0.00586713,0.00272531,0.06049767,0.01072040,0.02043
 711,-0.00478713,-0.00228315,-0.01057132,0.00191068,0.00080330,0.004006
 99,-0.00079601,0.00024466,-0.00039813,-0.00036260,0.00055006,-0.000337
 87,0.00088920,-0.00046964,-0.00093757,-0.00016436,0.00019747,-0.000112
 10,-0.00007884,-0.02134374,-0.00535622,-0.00630937,0.01097599,0.002643
 74,0.02802809,0.00005233,-0.00410373,-0.00003292,-0.00085808,0.0015897
 6,-0.00083762,0.00016999,-0.00056479,0.00027483,-0.00013594,-0.0007404
 4,-0.00031468,0.00073239,-0.00026901,0.00030850,-0.00017645,0.00007121
 ,-0.00044535,0.00007817,0.00031612,0.00034759,-0.07261139,-0.04044342,
 -0.10056280,0.00291190,0.00336324,0.00931325,0.06926492,-0.00533725,-0
 .00577583,-0.01359107,0.00221518,-0.00001183,0.00561670,-0.00079696,-0
 .00085805,-0.00177885,0.00023293,-0.00034687,0.00011138,-0.00002922,-0
 .00023957,0.00012767,-0.00076031,-0.00032300,0.00058627,0.00058709,0.0
 0052807,0.00028988,-0.03738825,-0.03172168,-0.05728974,0.00195268,-0.0
 0081874,-0.00133665,0.03992726,0.04002095,-0.00077107,-0.00174297,0.00
 350732,0.00112296,0.00050897,-0.00082337,-0.00014238,0.00019023,0.0003
 7650,0.00111373,0.00003248,0.00074360,0.00003013,0.00071798,0.00007970
 ,-0.00018338,-0.00029234,0.00068988,0.00001592,-0.00035110,-0.00002159
 ,-0.09141259,-0.06381747,-0.17507992,-0.00145035,-0.00190105,-0.006534
 52,0.09227804,0.06645424,0.17665306,-0.05905583,0.01377497,0.03223558,
 -0.00311411,-0.00950869,0.00337568,0.00090220,0.00272382,-0.00096225,-
 0.00015630,-0.00057640,-0.00287744,0.00017761,0.00012009,0.00058122,0.
 00165905,0.00046231,0.00553989,0.00072636,-0.00000792,-0.00064695,-0.0
 1082846,0.01185388,0.00914675,0.00581510,-0.00866299,-0.00180301,-0.00
 112406,-0.00024798,-0.00014126,0.18431635,0.00038949,0.00056383,0.0014
 5069,-0.00720674,-0.01360971,0.00564583,0.00124474,0.00613748,-0.00139
 346,-0.00006885,-0.00195206,-0.00145581,0.00083452,-0.00043544,0.00148
 077,0.00039954,-0.00112428,-0.00100266,-0.00056208,0.00020950,0.000248
 89,-0.01516158,-0.01410383,0.00999607,0.04973646,-0.04403584,-0.029164
 33,0.00034013,-0.00180740,-0.00008734,-0.01687742,0.06049261,0.0263392
 3,-0.00877085,-0.04704187,0.00329093,0.00632776,-0.00186158,-0.0007884
 4,-0.00216201,0.00033442,0.00359794,0.00199575,0.00814557,-0.00044123,
 0.00070873,-0.00130745,0.00012414,-0.00136239,0.00299677,0.00065391,0.
 00032775,0.00021485,0.00806745,-0.00549488,-0.00034702,-0.00179287,0.0
 0357134,0.00363222,0.00055036,0.00050194,-0.00033702,0.08653521,0.0057
 4071,0.21093816,-0.00784801,0.00122788,-0.00731488,0.00006717,-0.00055
 063,-0.00024352,-0.00007239,0.00027739,-0.00002061,0.00064375,0.000248
 86,0.00154894,0.00000658,-0.00004665,-0.00000373,0.00086338,-0.0001781
 3,0.00097729,0.00025163,0.00008440,0.00006077,-0.00039110,-0.00013095,
 0.00044692,0.00021700,-0.00023835,-0.00009189,-0.00007062,0.00013378,0
 .00005291,-0.10727514,0.00233168,-0.12097144,0.11314768,0.00068114,-0.
 00287614,0.00024619,-0.00041548,0.00148704,-0.00047023,0.00008638,-0.0
 0078314,0.00011114,-0.00063275,0.00130204,0.00093493,0.00015925,-0.000
 03019,-0.00084103,-0.00024520,-0.00043739,0.00014892,0.00010831,0.0000
 2234,0.00004865,-0.00074636,-0.00053823,-0.00152772,-0.00091000,0.0018
 5425,0.00022940,0.00121881,-0.00029372,-0.00057461,-0.00198698,-0.0106
 0378,0.00243231,-0.00378142,0.01323364,0.00195817,-0.00039366,0.004466
 80,0.00000534,-0.00042850,0.00050991,0.00000942,0.00027926,-0.00009713
 ,-0.00056623,-0.00064370,-0.00085062,0.00007487,0.00000867,0.00025837,
 0.00014390,0.00026483,-0.00176829,-0.00030704,-0.00005076,-0.00007225,
 0.00058786,-0.00032127,-0.00070842,-0.00026075,0.00036000,0.00071086,0
 .00009214,-0.00006965,-0.00004501,-0.12658601,0.01062019,-0.16197477,0
 .12468739,-0.00883866,0.16040239,-0.00703543,0.00296108,0.00650215,-0.
 00015705,-0.00290109,0.00021986,0.00000553,0.00131694,-0.00013152,-0.0
 0029474,-0.00003989,-0.00038923,0.00019365,-0.00020927,0.00003410,0.00
 013939,-0.00011364,-0.00002580,0.00002669,-0.00009668,0.00003006,-0.03
 308745,-0.00470012,0.01855642,-0.00794745,0.01907037,-0.00681371,0.001
 76683,-0.00048896,-0.00051266,-0.01204276,-0.01539989,-0.00516519,0.00
 046006,0.00646429,0.00016094,0.05797271,-0.02166828,-0.03643423,0.0123
 8989,0.00257998,0.02423393,-0.00257433,-0.00102314,-0.01061087,0.00155
 526,-0.00000780,0.00066210,0.00084000,-0.00066915,0.00089095,-0.001251
 80,0.00132991,0.00183816,0.00058314,-0.00064693,0.00010620,0.00024444,
 0.05321576,0.00157179,-0.02953666,-0.03609753,-0.00408758,0.02089695,-
 0.00070514,0.00164767,0.00086299,0.00893332,0.02026893,-0.00381615,0.0
 0062214,-0.00233673,-0.00078674,-0.00586314,0.00224969,0.00554726,-0.0
 0063187,-0.00022588,-0.00023416,0.00192501,-0.00034863,0.00009273,-0.0
 0076714,0.00011663,0.00002689,-0.00024624,-0.00003404,-0.00010181,0.00
 011685,0.00017454,0.00009868,0.00037837,-0.00010408,-0.00007165,-0.000
 06435,0.00000700,0.01724597,0.00244631,-0.00627220,-0.00564157,-0.0101
 4901,-0.01613822,-0.00097135,0.00037787,0.00079138,-0.00439740,-0.0020
 7955,-0.01339229,0.00087184,0.00810072,-0.00083184,-0.01246542,0.00059
 302,0.03625764\\0.00000644,0.00002357,0.00000388,-0.00000280,0.0000011
 9,-0.00000364,-0.00000317,0.00000859,0.,0.00000069,0.00000563,-0.00000
 292,-0.00000006,0.00000143,0.00000275,-0.00000016,-0.00000093,-0.00000
 311,-0.00000087,-0.00000005,0.00000043,0.00000660,-0.00003953,0.000003
 88,-0.00000519,0.00000306,0.00000048,0.00000630,-0.00000529,-0.0000033
 0,-0.00000244,0.00004893,0.00001200,-0.00000539,0.00000032,0.00000141,
 0.00000005,-0.00004692,-0.00001185\\\@
 The archive entry for this job was punched.


 A COMPLEXITY IS MERELY A DISARRANGEMENT OF SIMPLICITIES.

                                    -- G. O. ABELL IN "EXPLORATION OF THE UNIVERSE"
 Job cpu time:       0 days  0 hours  6 minutes 17.2 seconds.
 Elapsed time:       0 days  0 hours  0 minutes 25.8 seconds.
 File lengths (MBytes):  RWF=    107 Int=      0 D2E=      0 Chk=      4 Scr=      2
 Normal termination of Gaussian 16 at Sat Jul 30 18:00:44 2022.
