 Entering Gaussian System, Link 0=g16
 Initial command:
 /home/chesagar/softwares/G16_AVX2//g16/l1.exe "/home/chesagar/scratch/Gau-162903.inp" -scrdir="/home/chesagar/scratch/"
 Entering Link 1 = /home/chesagar/softwares/G16_AVX2//g16/l1.exe PID=    162904.
  
 Copyright (c) 1988-2019, Gaussian, Inc.  All Rights Reserved.
  
 This is part of the Gaussian(R) 16 program.  It is based on
 the Gaussian(R) 09 system (copyright 2009, Gaussian, Inc.),
 the Gaussian(R) 03 system (copyright 2003, Gaussian, Inc.),
 the Gaussian(R) 98 system (copyright 1998, Gaussian, Inc.),
 the Gaussian(R) 94 system (copyright 1995, Gaussian, Inc.),
 the Gaussian 92(TM) system (copyright 1992, Gaussian, Inc.),
 the Gaussian 90(TM) system (copyright 1990, Gaussian, Inc.),
 the Gaussian 88(TM) system (copyright 1988, Gaussian, Inc.),
 the Gaussian 86(TM) system (copyright 1986, Carnegie Mellon
 University), and the Gaussian 82(TM) system (copyright 1983,
 Carnegie Mellon University). Gaussian is a federally registered
 trademark of Gaussian, Inc.
  
 This software contains proprietary and confidential information,
 including trade secrets, belonging to Gaussian, Inc.
  
 This software is provided under written license and may be
 used, copied, transmitted, or stored only in accord with that
 written license.
  
 The following legend is applicable only to US Government
 contracts under FAR:
  
                    RESTRICTED RIGHTS LEGEND
  
 Use, reproduction and disclosure by the US Government is
 subject to restrictions as set forth in subparagraphs (a)
 and (c) of the Commercial Computer Software - Restricted
 Rights clause in FAR 52.227-19.
  
 Gaussian, Inc.
 340 Quinnipiac St., Bldg. 40, Wallingford CT 06492
  
  
 ---------------------------------------------------------------
 Warning -- This program may not be used in any manner that
 competes with the business of Gaussian, Inc. or will provide
 assistance to any competitor of Gaussian, Inc.  The licensee
 of this program is prohibited from giving any competitor of
 Gaussian, Inc. access to this program.  By using this program,
 the user acknowledges that Gaussian, Inc. is engaged in the
 business of creating and licensing software in the field of
 computational chemistry and represents and warrants to the
 licensee that it is not a competitor of Gaussian, Inc. and that
 it will not use this program in any manner prohibited above.
 ---------------------------------------------------------------
  

 Cite this work as:
 Gaussian 16, Revision C.01,
 M. J. Frisch, G. W. Trucks, H. B. Schlegel, G. E. Scuseria, 
 M. A. Robb, J. R. Cheeseman, G. Scalmani, V. Barone, 
 G. A. Petersson, H. Nakatsuji, X. Li, M. Caricato, A. V. Marenich, 
 J. Bloino, B. G. Janesko, R. Gomperts, B. Mennucci, H. P. Hratchian, 
 J. V. Ortiz, A. F. Izmaylov, J. L. Sonnenberg, D. Williams-Young, 
 F. Ding, F. Lipparini, F. Egidi, J. Goings, B. Peng, A. Petrone, 
 T. Henderson, D. Ranasinghe, V. G. Zakrzewski, J. Gao, N. Rega, 
 G. Zheng, W. Liang, M. Hada, M. Ehara, K. Toyota, R. Fukuda, 
 J. Hasegawa, M. Ishida, T. Nakajima, Y. Honda, O. Kitao, H. Nakai, 
 T. Vreven, K. Throssell, J. A. Montgomery, Jr., J. E. Peralta, 
 F. Ogliaro, M. J. Bearpark, J. J. Heyd, E. N. Brothers, K. N. Kudin, 
 V. N. Staroverov, T. A. Keith, R. Kobayashi, J. Normand, 
 K. Raghavachari, A. P. Rendell, J. C. Burant, S. S. Iyengar, 
 J. Tomasi, M. Cossi, J. M. Millam, M. Klene, C. Adamo, R. Cammi, 
 J. W. Ochterski, R. L. Martin, K. Morokuma, O. Farkas, 
 J. B. Foresman, and D. J. Fox, Gaussian, Inc., Wallingford CT, 2019.
 
 ******************************************
 Gaussian 16:  ES64L-G16RevC.01  3-Jul-2019
                17-Oct-2022 
 ******************************************
 %nprocshared=48
 Will use up to   48 processors via shared memory.
 %chk=24_18_12_Mo_SH_4_ts.chk
 %mem=48GB
 -----------------------------------------------------------
 # opt=(calcfc,ts,noeigen) freq b3lyp/gen nosymm pseudo=read
 -----------------------------------------------------------
 1/5=1,10=4,11=1,18=20,26=3,38=1/1,3;
 2/9=110,12=2,15=1,17=6,18=5,40=1/2;
 3/5=7,11=2,16=1,17=8,25=1,30=1,71=2,74=-5,140=1/1,2,3;
 4//1;
 5/5=2,38=5/2;
 8/6=4,10=90,11=11/1;
 11/6=1,8=1,9=11,15=111,16=1,31=1/1,2,10;
 10/6=1,13=1,31=1/2;
 6/7=2,8=2,9=2,10=2,28=1/1;
 7/10=1,25=1,30=1/1,2,3,16;
 1/5=1,10=4,11=1,18=20,26=3/3(2);
 2/9=110,15=1/2;
 99//99;
 2/9=110,15=1/2;
 3/5=7,6=1,11=2,16=1,17=8,25=1,30=1,71=1,74=-5,82=7/1,2,3;
 4/5=5,16=3,69=1/1;
 5/5=2,38=5/2;
 7/30=1/1,2,3,16;
 1/5=1,11=1,18=20,26=3/3(-5);
 2/9=110,15=1/2;
 6/7=2,8=2,9=2,10=2,19=2,28=1/1;
 99/9=1/99;
 -------------------
 Title Card Required
 -------------------
 Symbolic Z-matrix:
 Charge =  0 Multiplicity = 1
 42                    2.63405   0.8916    0.07345 
 16                    0.72321   0.05905  -0.49693 
 1                     0.29802  -0.39936   1.12834 
 16                    2.35365   0.4298    2.16966 
 1                     0.79902  -0.29827   1.92082 
 16                    2.66448   3.19181  -0.27584 
 1                     1.49593   3.56019   0.29146 
 16                    4.37547  -0.35206  -0.84186 
 1                     3.97011  -1.61047  -0.56875 
 
 Add virtual bond connecting atoms H5         and H3         Dist= 1.78D+00.
 Add virtual bond connecting atoms H3         and S2         Dist= 3.29D+00.
 Add virtual bond connecting atoms H5         and S4         Dist= 3.28D+00.

 GradGradGradGradGradGradGradGradGradGradGradGradGradGradGradGradGradGrad
 Berny optimization.
 Initialization pass.
                           ----------------------------
                           !    Initial Parameters    !
                           ! (Angstroms and Degrees)  !
 --------------------------                            --------------------------
 ! Name  Definition              Value          Derivative Info.                !
 --------------------------------------------------------------------------------
 ! R1    R(1,2)                  2.161          calculate D2E/DX2 analytically  !
 ! R2    R(1,4)                  2.1647         calculate D2E/DX2 analytically  !
 ! R3    R(1,6)                  2.3268         calculate D2E/DX2 analytically  !
 ! R4    R(1,8)                  2.3275         calculate D2E/DX2 analytically  !
 ! R5    R(2,3)                  1.7414         calculate D2E/DX2 analytically  !
 ! R6    R(3,5)                  0.943          calculate D2E/DX2 analytically  !
 ! R7    R(4,5)                  1.7346         calculate D2E/DX2 analytically  !
 ! R8    R(6,7)                  1.3502         calculate D2E/DX2 analytically  !
 ! R9    R(8,9)                  1.35           calculate D2E/DX2 analytically  !
 ! A1    A(2,1,4)               93.3746         calculate D2E/DX2 analytically  !
 ! A2    A(2,1,6)              110.659          calculate D2E/DX2 analytically  !
 ! A3    A(2,1,8)              110.606          calculate D2E/DX2 analytically  !
 ! A4    A(4,1,6)              110.9749         calculate D2E/DX2 analytically  !
 ! A5    A(4,1,8)              111.3304         calculate D2E/DX2 analytically  !
 ! A6    A(6,1,8)              117.3499         calculate D2E/DX2 analytically  !
 ! A7    A(1,2,3)               94.0702         calculate D2E/DX2 analytically  !
 ! A8    A(2,3,5)              128.7852         calculate D2E/DX2 analytically  !
 ! A9    A(1,4,5)               93.8257         calculate D2E/DX2 analytically  !
 ! A10   A(3,5,4)              129.9195         calculate D2E/DX2 analytically  !
 ! A11   A(1,6,7)              101.2637         calculate D2E/DX2 analytically  !
 ! A12   A(1,8,9)              101.1787         calculate D2E/DX2 analytically  !
 ! D1    D(4,1,2,3)             -0.0048         calculate D2E/DX2 analytically  !
 ! D2    D(6,1,2,3)           -113.9246         calculate D2E/DX2 analytically  !
 ! D3    D(8,1,2,3)            114.2914         calculate D2E/DX2 analytically  !
 ! D4    D(2,1,4,5)              0.5075         calculate D2E/DX2 analytically  !
 ! D5    D(6,1,4,5)            114.1547         calculate D2E/DX2 analytically  !
 ! D6    D(8,1,4,5)           -113.1647         calculate D2E/DX2 analytically  !
 ! D7    D(2,1,6,7)             47.6512         calculate D2E/DX2 analytically  !
 ! D8    D(4,1,6,7)            -54.5838         calculate D2E/DX2 analytically  !
 ! D9    D(8,1,6,7)            175.857          calculate D2E/DX2 analytically  !
 ! D10   D(2,1,8,9)            -45.8615         calculate D2E/DX2 analytically  !
 ! D11   D(4,1,8,9)             56.5152         calculate D2E/DX2 analytically  !
 ! D12   D(6,1,8,9)           -174.0926         calculate D2E/DX2 analytically  !
 ! D13   D(1,2,3,5)             -1.1796         calculate D2E/DX2 analytically  !
 ! D14   D(2,3,5,4)              2.168          calculate D2E/DX2 analytically  !
 ! D15   D(1,4,5,3)             -1.6609         calculate D2E/DX2 analytically  !
 --------------------------------------------------------------------------------
 Trust Radius=3.00D-01 FncErr=1.00D-07 GrdErr=1.00D-06 EigMax=2.50D+02 EigMin=1.00D-04
 Number of steps in this run=     46 maximum allowed number of steps=    100.
 Search for a saddle point of order  1.
 GradGradGradGradGradGradGradGradGradGradGradGradGradGradGradGradGradGrad

                          Input orientation:                          
 ---------------------------------------------------------------------
 Center     Atomic      Atomic             Coordinates (Angstroms)
 Number     Number       Type             X           Y           Z
 ---------------------------------------------------------------------
      1         42           0        2.634051    0.891602    0.073449
      2         16           0        0.723207    0.059054   -0.496932
      3          1           0        0.298017   -0.399359    1.128341
      4         16           0        2.353651    0.429797    2.169656
      5          1           0        0.799019   -0.298269    1.920821
      6         16           0        2.664475    3.191812   -0.275844
      7          1           0        1.495930    3.560188    0.291463
      8         16           0        4.375474   -0.352061   -0.841860
      9          1           0        3.970110   -1.610471   -0.568753
 ---------------------------------------------------------------------
                    Distance matrix (angstroms):
                    1          2          3          4          5
     1  Mo   0.000000
     2  S    2.160971   0.000000
     3  H    2.869919   1.741391   0.000000
     4  S    2.164711   3.147458   2.448973   0.000000
     5  H    2.862852   2.445191   0.942999   1.734612   0.000000
     6  S    2.326778   3.692096   4.524198   3.702136   4.526138
     7  H    2.909330   3.671050   4.220589   3.750019   4.245961
     8  S    2.327454   3.691483   4.528751   3.710566   4.519550
     9  H    2.908238   3.651692   4.222699   3.778163   4.239773
                    6          7          8          9
     6  S    0.000000
     7  H    1.350198   0.000000
     8  S    3.975793   4.988175   0.000000
     9  H    4.985218   5.796314   1.350001   0.000000
 Symmetry turned off by external request.
 Stoichiometry    H4MoS4
 Framework group  C1[X(H4MoS4)]
 Deg. of freedom    21
 Full point group                 C1      NOp   1
 Rotational constants (GHZ):           1.2413009           1.1795492           0.9757428
 General basis read from cards:  (5D, 7F)
 ======================================================================================================
                                       Pseudopotential Parameters
 ======================================================================================================
  Center     Atomic      Valence      Angular      Power
  Number     Number     Electrons     Momentum     of R      Exponent        Coefficient   SO-Coeffient
 ======================================================================================================
    1         42           14
                                      F and up 
                                                     0      537.9667807       -0.04694920    0.00000000
                                                     1      147.8982938      -20.20800840    0.00000000
                                                     2       45.7358898     -106.21163020    0.00000000
                                                     2       13.2911467      -41.81073680    0.00000000
                                                     2        4.7059961       -4.20541030    0.00000000
                                      S - F
                                                     0      110.2991760        2.80637170    0.00000000
                                                     1       23.2014645       44.51620120    0.00000000
                                                     2        5.3530131       82.77852270    0.00000000
                                      P - F
                                                     0       63.2901397        4.94208760    0.00000000
                                                     1       23.3315302       25.86049760    0.00000000
                                                     2       24.6759423      132.47087420    0.00000000
                                                     2        4.6493040       57.31497940    0.00000000
                                      D - F
                                                     0      104.4839977        3.00545910    0.00000000
                                                     1       66.2307245       26.36378510    0.00000000
                                                     2       39.1283176      183.38491990    0.00000000
                                                     2       13.1164437       98.44530680    0.00000000
                                                     2        3.6280263       22.49013770    0.00000000
    2         16
                                   No pseudopotential on this center.
    3          1
                                   No pseudopotential on this center.
    4         16
                                   No pseudopotential on this center.
    5          1
                                   No pseudopotential on this center.
    6         16
                                   No pseudopotential on this center.
    7          1
                                   No pseudopotential on this center.
    8         16
                                   No pseudopotential on this center.
    9          1
                                   No pseudopotential on this center.
 ======================================================================================================
   114 basis functions,   285 primitive gaussians,   120 cartesian basis functions
    41 alpha electrons       41 beta electrons
       nuclear repulsion energy       495.7159694523 Hartrees.
 NAtoms=    9 NActive=    9 NUniq=    9 SFac= 1.00D+00 NAtFMM=   60 NAOKFM=F Big=F
 Integral buffers will be    131072 words long.
 Raffenetti 2 integral format.
 Two-electron integral symmetry is turned off.
 One-electron integrals computed using PRISM.
   1 Symmetry operations used in ECPInt.
 ECPInt:  NShTT=     820 NPrTT=    5722 LenC2=     794 LenP2D=    4192.
 LDataN:  DoStor=T MaxTD1= 5 Len=  102
 NBasis=   114 RedAO= T EigKep=  4.67D-03  NBF=   114
 NBsUse=   114 1.00D-06 EigRej= -1.00D+00 NBFU=   114
 Defaulting to unpruned grid for atomic number  42.
 ExpMin= 2.47D-02 ExpMax= 2.19D+04 ExpMxC= 3.30D+03 IAcc=3 IRadAn=         5 AccDes= 0.00D+00
 Harris functional with IExCor=  402 and IRadAn=       5 diagonalized for initial guess.
 HarFok:  IExCor=  402 AccDes= 0.00D+00 IRadAn=         5 IDoV= 1 UseB2=F ITyADJ=14
 ICtDFT=  3500011 ScaDFX=  1.000000  1.000000  1.000000  1.000000
 Defaulting to unpruned grid for atomic number  42.
 FoFCou: FMM=F IPFlag=           0 FMFlag=      100000 FMFlg1=           0
         NFxFlg=           0 DoJE=T BraDBF=F KetDBF=T FulRan=T
         wScrn=  0.000000 ICntrl=       500 IOpCl=  0 I1Cent=   200000004 NGrid=           0
         NMat0=    1 NMatS0=      1 NMatT0=    0 NMatD0=    1 NMtDS0=    0 NMtDT0=    0
 Symmetry not used in FoFCou.
 Keep R1 ints in memory in canonical form, NReq=66955134.
 Requested convergence on RMS density matrix=1.00D-08 within 128 cycles.
 Requested convergence on MAX density matrix=1.00D-06.
 Requested convergence on             energy=1.00D-06.
 No special actions if energy rises.
 Defaulting to unpruned grid for atomic number  42.
 Defaulting to unpruned grid for atomic number  42.
 Defaulting to unpruned grid for atomic number  42.
 Defaulting to unpruned grid for atomic number  42.
 Defaulting to unpruned grid for atomic number  42.
 Defaulting to unpruned grid for atomic number  42.
 Defaulting to unpruned grid for atomic number  42.
 Defaulting to unpruned grid for atomic number  42.
 Defaulting to unpruned grid for atomic number  42.
 Defaulting to unpruned grid for atomic number  42.
 Defaulting to unpruned grid for atomic number  42.
 Defaulting to unpruned grid for atomic number  42.
 Defaulting to unpruned grid for atomic number  42.
 Defaulting to unpruned grid for atomic number  42.
 Defaulting to unpruned grid for atomic number  42.
 Defaulting to unpruned grid for atomic number  42.
 Defaulting to unpruned grid for atomic number  42.
 Defaulting to unpruned grid for atomic number  42.
 Defaulting to unpruned grid for atomic number  42.
 Defaulting to unpruned grid for atomic number  42.
 Defaulting to unpruned grid for atomic number  42.
 Defaulting to unpruned grid for atomic number  42.
 Defaulting to unpruned grid for atomic number  42.
 Defaulting to unpruned grid for atomic number  42.
 Defaulting to unpruned grid for atomic number  42.
 Defaulting to unpruned grid for atomic number  42.
 Defaulting to unpruned grid for atomic number  42.
 Defaulting to unpruned grid for atomic number  42.
 Defaulting to unpruned grid for atomic number  42.
 Defaulting to unpruned grid for atomic number  42.
 Defaulting to unpruned grid for atomic number  42.
 Defaulting to unpruned grid for atomic number  42.
 Defaulting to unpruned grid for atomic number  42.
 Defaulting to unpruned grid for atomic number  42.
 Defaulting to unpruned grid for atomic number  42.
 Defaulting to unpruned grid for atomic number  42.
 Defaulting to unpruned grid for atomic number  42.
 Defaulting to unpruned grid for atomic number  42.
 Defaulting to unpruned grid for atomic number  42.
 Defaulting to unpruned grid for atomic number  42.
 Defaulting to unpruned grid for atomic number  42.
 Defaulting to unpruned grid for atomic number  42.
 Defaulting to unpruned grid for atomic number  42.
 Defaulting to unpruned grid for atomic number  42.
 Defaulting to unpruned grid for atomic number  42.
 Defaulting to unpruned grid for atomic number  42.
 Defaulting to unpruned grid for atomic number  42.
 Defaulting to unpruned grid for atomic number  42.
 EnCoef did   100 forward-backward iterations
 EnCoef did   100 forward-backward iterations
 SCF Done:  E(RB3LYP) =  -1662.75284465     A.U. after   17 cycles
            NFock= 17  Conv=0.44D-08     -V/T= 2.0300
 DoSCS=F DFT=T ScalE2(SS,OS)=  1.000000  1.000000
 Range of M.O.s used for correlation:     1   114
 NBasis=   114 NAE=    41 NBE=    41 NFC=     0 NFV=     0
 NROrb=    114 NOA=    41 NOB=    41 NVA=    73 NVB=    73
   1 Symmetry operations used in ECPInt.
 ECPInt:  NShTT=     820 NPrTT=    5722 LenC2=     794 LenP2D=    4192.
 LDataN:  DoStor=T MaxTD1= 6 Len=  172
 Symmetrizing basis deriv contribution to polar:
 IMax=3 JMax=2 DiffMx= 0.00D+00
 G2DrvN: will do    10 centers at a time, making    1 passes.
 Calling FoFCou, ICntrl=  3107 FMM=F I1Cent=   0 AccDes= 0.00D+00.
 Defaulting to unpruned grid for atomic number  42.
 Defaulting to unpruned grid for atomic number  42.
 Defaulting to unpruned grid for atomic number  42.
 Defaulting to unpruned grid for atomic number  42.
 Defaulting to unpruned grid for atomic number  42.
 Defaulting to unpruned grid for atomic number  42.
 Defaulting to unpruned grid for atomic number  42.
 Defaulting to unpruned grid for atomic number  42.
 Defaulting to unpruned grid for atomic number  42.
 Defaulting to unpruned grid for atomic number  42.
 Defaulting to unpruned grid for atomic number  42.
 Defaulting to unpruned grid for atomic number  42.
 Defaulting to unpruned grid for atomic number  42.
 Defaulting to unpruned grid for atomic number  42.
 Defaulting to unpruned grid for atomic number  42.
 Defaulting to unpruned grid for atomic number  42.
 Defaulting to unpruned grid for atomic number  42.
 Defaulting to unpruned grid for atomic number  42.
 Defaulting to unpruned grid for atomic number  42.
 Defaulting to unpruned grid for atomic number  42.
 Defaulting to unpruned grid for atomic number  42.
 Defaulting to unpruned grid for atomic number  42.
 Defaulting to unpruned grid for atomic number  42.
 Defaulting to unpruned grid for atomic number  42.
 Defaulting to unpruned grid for atomic number  42.
 Defaulting to unpruned grid for atomic number  42.
 Defaulting to unpruned grid for atomic number  42.
 Defaulting to unpruned grid for atomic number  42.
 Defaulting to unpruned grid for atomic number  42.
 Defaulting to unpruned grid for atomic number  42.
 Defaulting to unpruned grid for atomic number  42.
 Defaulting to unpruned grid for atomic number  42.
 Defaulting to unpruned grid for atomic number  42.
 Defaulting to unpruned grid for atomic number  42.
 Defaulting to unpruned grid for atomic number  42.
 Defaulting to unpruned grid for atomic number  42.
 Defaulting to unpruned grid for atomic number  42.
 Defaulting to unpruned grid for atomic number  42.
 Defaulting to unpruned grid for atomic number  42.
 Defaulting to unpruned grid for atomic number  42.
 Defaulting to unpruned grid for atomic number  42.
 Defaulting to unpruned grid for atomic number  42.
 Defaulting to unpruned grid for atomic number  42.
 Defaulting to unpruned grid for atomic number  42.
 Defaulting to unpruned grid for atomic number  42.
 Defaulting to unpruned grid for atomic number  42.
 Defaulting to unpruned grid for atomic number  42.
 Defaulting to unpruned grid for atomic number  42.
 End of G2Drv F.D. properties file   721 does not exist.
 End of G2Drv F.D. properties file   722 does not exist.
 End of G2Drv F.D. properties file   788 does not exist.
          IDoAtm=111111111
          Differentiating once with respect to nuclear coordinates.
 Defaulting to unpruned grid for atomic number  42.
 Keep R1 ints in memory in canonical form, NReq=66795378.
 Defaulting to unpruned grid for atomic number  42.
 Defaulting to unpruned grid for atomic number  42.
 Defaulting to unpruned grid for atomic number  42.
 Defaulting to unpruned grid for atomic number  42.
 Defaulting to unpruned grid for atomic number  42.
 Defaulting to unpruned grid for atomic number  42.
 Defaulting to unpruned grid for atomic number  42.
 Defaulting to unpruned grid for atomic number  42.
 Defaulting to unpruned grid for atomic number  42.
 Defaulting to unpruned grid for atomic number  42.
 Defaulting to unpruned grid for atomic number  42.
 Defaulting to unpruned grid for atomic number  42.
 Defaulting to unpruned grid for atomic number  42.
 Defaulting to unpruned grid for atomic number  42.
 Defaulting to unpruned grid for atomic number  42.
 Defaulting to unpruned grid for atomic number  42.
 Defaulting to unpruned grid for atomic number  42.
 Defaulting to unpruned grid for atomic number  42.
 Defaulting to unpruned grid for atomic number  42.
 Defaulting to unpruned grid for atomic number  42.
 Defaulting to unpruned grid for atomic number  42.
 Defaulting to unpruned grid for atomic number  42.
 Defaulting to unpruned grid for atomic number  42.
 Defaulting to unpruned grid for atomic number  42.
 Defaulting to unpruned grid for atomic number  42.
 Defaulting to unpruned grid for atomic number  42.
 Defaulting to unpruned grid for atomic number  42.
 Defaulting to unpruned grid for atomic number  42.
 Defaulting to unpruned grid for atomic number  42.
 Defaulting to unpruned grid for atomic number  42.
 Defaulting to unpruned grid for atomic number  42.
 Defaulting to unpruned grid for atomic number  42.
 Defaulting to unpruned grid for atomic number  42.
 Defaulting to unpruned grid for atomic number  42.
 Defaulting to unpruned grid for atomic number  42.
 Defaulting to unpruned grid for atomic number  42.
 Defaulting to unpruned grid for atomic number  42.
 Defaulting to unpruned grid for atomic number  42.
 Defaulting to unpruned grid for atomic number  42.
 Defaulting to unpruned grid for atomic number  42.
 Defaulting to unpruned grid for atomic number  42.
 Defaulting to unpruned grid for atomic number  42.
 Defaulting to unpruned grid for atomic number  42.
 Defaulting to unpruned grid for atomic number  42.
 Defaulting to unpruned grid for atomic number  42.
 Defaulting to unpruned grid for atomic number  42.
 Defaulting to unpruned grid for atomic number  42.
 Defaulting to unpruned grid for atomic number  42.
          There are    30 degrees of freedom in the 1st order CPHF.  IDoFFX=6 NUNeed=     0.
     24 vectors produced by pass  0 Test12= 9.98D-15 3.33D-09 XBig12= 1.50D-01 1.47D-01.
 AX will form    24 AO Fock derivatives at one time.
     24 vectors produced by pass  1 Test12= 9.98D-15 3.33D-09 XBig12= 3.17D-02 7.76D-02.
     24 vectors produced by pass  2 Test12= 9.98D-15 3.33D-09 XBig12= 4.14D-03 1.76D-02.
     24 vectors produced by pass  3 Test12= 9.98D-15 3.33D-09 XBig12= 1.15D-04 2.11D-03.
     24 vectors produced by pass  4 Test12= 9.98D-15 3.33D-09 XBig12= 7.47D-07 1.68D-04.
     24 vectors produced by pass  5 Test12= 9.98D-15 3.33D-09 XBig12= 3.24D-09 1.52D-05.
     19 vectors produced by pass  6 Test12= 9.98D-15 3.33D-09 XBig12= 7.02D-12 6.78D-07.
      5 vectors produced by pass  7 Test12= 9.98D-15 3.33D-09 XBig12= 1.81D-14 2.54D-08.
 InvSVY:  IOpt=1 It=  1 EMax= 1.55D-15
 Solved reduced A of dimension   168 with    24 vectors.
 End of Minotr F.D. properties file   721 does not exist.
 End of Minotr F.D. properties file   722 does not exist.
 End of Minotr F.D. properties file   788 does not exist.

 **********************************************************************

            Population analysis using the SCF Density.

 **********************************************************************

 Alpha  occ. eigenvalues --  -88.88620 -88.88302 -88.88295 -88.88292  -7.96499
 Alpha  occ. eigenvalues --   -7.96300  -7.96291  -7.96182  -5.92561  -5.92550
 Alpha  occ. eigenvalues --   -5.92540  -5.92416  -5.92325  -5.92261  -5.92245
 Alpha  occ. eigenvalues --   -5.92236  -5.92095  -5.91995  -5.91907  -5.91897
 Alpha  occ. eigenvalues --   -2.55106  -1.58181  -1.57186  -1.56976  -0.74628
 Alpha  occ. eigenvalues --   -0.73816  -0.72418  -0.69776  -0.48033  -0.44391
 Alpha  occ. eigenvalues --   -0.44010  -0.36392  -0.36134  -0.34606  -0.34473
 Alpha  occ. eigenvalues --   -0.33415  -0.31146  -0.31118  -0.28023  -0.27765
 Alpha  occ. eigenvalues --   -0.26539
 Alpha virt. eigenvalues --   -0.13830  -0.13234  -0.10422  -0.08039  -0.07279
 Alpha virt. eigenvalues --   -0.00262   0.00113   0.02715   0.02847   0.06486
 Alpha virt. eigenvalues --    0.07033   0.13121   0.16110   0.17641   0.19190
 Alpha virt. eigenvalues --    0.28703   0.30509   0.30872   0.31335   0.31831
 Alpha virt. eigenvalues --    0.32751   0.34112   0.34824   0.34867   0.37246
 Alpha virt. eigenvalues --    0.39806   0.41377   0.42217   0.44269   0.46270
 Alpha virt. eigenvalues --    0.48165   0.49222   0.52507   0.56436   0.56698
 Alpha virt. eigenvalues --    0.57863   0.69915   0.71150   0.71489   0.73176
 Alpha virt. eigenvalues --    0.73877   0.74579   0.74591   0.75268   0.78088
 Alpha virt. eigenvalues --    0.79894   0.80882   0.82762   0.84821   0.85059
 Alpha virt. eigenvalues --    0.88913   0.92046   0.92241   0.92944   0.96303
 Alpha virt. eigenvalues --    0.98247   1.04285   1.06564   1.13014   1.13141
 Alpha virt. eigenvalues --    1.73214   1.95032   2.05677   2.05920   2.06390
 Alpha virt. eigenvalues --    2.07581   2.09731   2.38524   2.58900   2.70856
 Alpha virt. eigenvalues --    2.70895   3.47198   6.33443
          Condensed to atoms (all electrons):
               1          2          3          4          5          6
     1  Mo  12.621381   0.358552  -0.052743   0.352689  -0.051488   0.264948
     2  S    0.358552  15.754570   0.116740  -0.070747  -0.094220   0.009140
     3  H   -0.052743   0.116740   0.775537  -0.094864   0.258746   0.000080
     4  S    0.352689  -0.070747  -0.094864  15.768860   0.117224   0.009108
     5  H   -0.051488  -0.094220   0.258746   0.117224   0.772795   0.000059
     6  S    0.264948   0.009140   0.000080   0.009108   0.000059  15.617522
     7  H   -0.021369  -0.001724  -0.000159  -0.001454  -0.000146   0.273319
     8  S    0.264713   0.008505   0.000067   0.009999   0.000070  -0.004835
     9  H   -0.021233  -0.001867  -0.000152  -0.001267  -0.000152  -0.000117
               7          8          9
     1  Mo  -0.021369   0.264713  -0.021233
     2  S   -0.001724   0.008505  -0.001867
     3  H   -0.000159   0.000067  -0.000152
     4  S   -0.001454   0.009999  -0.001267
     5  H   -0.000146   0.000070  -0.000152
     6  S    0.273319  -0.004835  -0.000117
     7  H    0.637142  -0.000115   0.000000
     8  S   -0.000115  15.618069   0.273224
     9  H    0.000000   0.273224   0.637061
 Mulliken charges:
               1
     1  Mo   0.284550
     2  S   -0.078949
     3  H   -0.003253
     4  S   -0.089548
     5  H   -0.002889
     6  S   -0.169222
     7  H    0.114506
     8  S   -0.169697
     9  H    0.114503
 Sum of Mulliken charges =  -0.00000
 Mulliken charges with hydrogens summed into heavy atoms:
               1
     1  Mo   0.284550
     2  S   -0.082202
     4  S   -0.092437
     6  S   -0.054717
     8  S   -0.055194
 APT charges:
               1
     1  Mo   0.343289
     2  S   -0.311663
     3  H   -0.059402
     4  S   -0.152906
     5  H    0.095627
     6  S   -0.036555
     7  H    0.063499
     8  S   -0.054366
     9  H    0.112475
 Sum of APT charges =  -0.00000
 APT charges with hydrogens summed into heavy atoms:
               1
     1  Mo   0.343289
     2  S   -0.371065
     4  S   -0.057278
     6  S    0.026945
     8  S    0.058109
 Electronic spatial extent (au):  <R**2>=           3478.5551
 Charge=              0.0000 electrons
 Dipole moment (field-independent basis, Debye):
    X=             -0.5723    Y=             -0.3010    Z=              0.1833  Tot=              0.6721
 Quadrupole moment (field-independent basis, Debye-Ang):
   XX=            -81.8887   YY=            -73.6563   ZZ=            -81.7592
   XY=             -4.6303   XZ=             -0.9384   YZ=              1.2656
 Traceless Quadrupole moment (field-independent basis, Debye-Ang):
   XX=             -2.7873   YY=              5.4451   ZZ=             -2.6578
   XY=             -4.6303   XZ=             -0.9384   YZ=              1.2656
 Octapole moment (field-independent basis, Debye-Ang**2):
  XXX=           -611.9003  YYY=           -190.1575  ZZZ=            -36.2040  XYY=           -194.4423
  XXY=            -82.4271  XXZ=            -15.1516  XZZ=           -207.4019  YZZ=            -67.1548
  YYZ=             -7.9243  XYZ=              0.9728
 Hexadecapole moment (field-independent basis, Debye-Ang**3):
 XXXX=          -3796.2382 YYYY=          -1060.2513 ZZZZ=           -603.2414 XXXY=           -525.2592
 XXXZ=            -33.0678 YYYX=           -526.6343 YYYZ=              6.3727 ZZZX=            -28.2985
 ZZZY=            -20.2116 XXYY=           -791.0201 XXZZ=           -743.1836 YYZZ=           -289.8266
 XXYZ=             -7.4852 YYXZ=            -10.8705 ZZXY=           -162.5748
 N-N= 4.957159694523D+02 E-N=-4.920681599234D+03  KE= 1.614355066415D+03
  Exact polarizability:       0.000       0.000       0.000       0.000       0.000       0.000
 Approx polarizability:     317.915      41.154     265.870     -26.314     -21.530     305.875
   1 Symmetry operations used in ECPInt.
 ECPInt:  NShTT=     820 NPrTT=    5722 LenC2=     794 LenP2D=    4192.
 LDataN:  DoStor=T MaxTD1= 7 Len=  274
 Calling FoFJK, ICntrl=    100127 FMM=F ISym2X=0 I1Cent= 0 IOpClX= 0 NMat=1 NMatS=1 NMatT=0.
 Defaulting to unpruned grid for atomic number  42.
 Defaulting to unpruned grid for atomic number  42.
 Defaulting to unpruned grid for atomic number  42.
 Defaulting to unpruned grid for atomic number  42.
 Defaulting to unpruned grid for atomic number  42.
 Defaulting to unpruned grid for atomic number  42.
 Defaulting to unpruned grid for atomic number  42.
 Defaulting to unpruned grid for atomic number  42.
 Defaulting to unpruned grid for atomic number  42.
 Defaulting to unpruned grid for atomic number  42.
 Defaulting to unpruned grid for atomic number  42.
 Defaulting to unpruned grid for atomic number  42.
 Defaulting to unpruned grid for atomic number  42.
 Defaulting to unpruned grid for atomic number  42.
 Defaulting to unpruned grid for atomic number  42.
 Defaulting to unpruned grid for atomic number  42.
 Defaulting to unpruned grid for atomic number  42.
 Defaulting to unpruned grid for atomic number  42.
 Defaulting to unpruned grid for atomic number  42.
 Defaulting to unpruned grid for atomic number  42.
 Defaulting to unpruned grid for atomic number  42.
 Defaulting to unpruned grid for atomic number  42.
 Defaulting to unpruned grid for atomic number  42.
 Defaulting to unpruned grid for atomic number  42.
 Defaulting to unpruned grid for atomic number  42.
 Defaulting to unpruned grid for atomic number  42.
 Defaulting to unpruned grid for atomic number  42.
 Defaulting to unpruned grid for atomic number  42.
 Defaulting to unpruned grid for atomic number  42.
 Defaulting to unpruned grid for atomic number  42.
 Defaulting to unpruned grid for atomic number  42.
 Defaulting to unpruned grid for atomic number  42.
 Defaulting to unpruned grid for atomic number  42.
 Defaulting to unpruned grid for atomic number  42.
 Defaulting to unpruned grid for atomic number  42.
 Defaulting to unpruned grid for atomic number  42.
 Defaulting to unpruned grid for atomic number  42.
 Defaulting to unpruned grid for atomic number  42.
 Defaulting to unpruned grid for atomic number  42.
 Defaulting to unpruned grid for atomic number  42.
 Defaulting to unpruned grid for atomic number  42.
 Defaulting to unpruned grid for atomic number  42.
 Defaulting to unpruned grid for atomic number  42.
 Defaulting to unpruned grid for atomic number  42.
 Defaulting to unpruned grid for atomic number  42.
 Defaulting to unpruned grid for atomic number  42.
 Defaulting to unpruned grid for atomic number  42.
 Defaulting to unpruned grid for atomic number  42.
 -------------------------------------------------------------------
 Center     Atomic                   Forces (Hartrees/Bohr)
 Number     Number              X              Y              Z
 -------------------------------------------------------------------
      1       42          -0.000075943    0.000235759   -0.000056572
      2       16           0.000515739    0.000385118   -0.000920971
      3        1           0.001255125   -0.000366865    0.002420777
      4       16           0.000792679   -0.000069063    0.000104263
      5        1          -0.002282091   -0.000097331   -0.001550074
      6       16          -0.000226750   -0.000111778   -0.000228971
      7        1           0.000177933    0.000029491    0.000176107
      8       16          -0.000284943    0.000028514   -0.000096717
      9        1           0.000128251   -0.000033846    0.000152158
 -------------------------------------------------------------------
 Cartesian Forces:  Max     0.002420777 RMS     0.000804461
 FormGI is forming the generalized inverse of G from B-inverse, IUseBI=4.

 GradGradGradGradGradGradGradGradGradGradGradGradGradGradGradGradGradGrad
 Berny optimization.
 Internal  Forces:  Max     0.001981150 RMS     0.000422851
 Search for a saddle point.
 Step number   1 out of a maximum of   46
 All quantities printed in internal units (Hartrees-Bohrs-Radians)
 Swapping is turned off.
 Second derivative matrix not updated -- analytic derivatives used.
 ITU=  0
     Eigenvalues ---   -0.03369  -0.00049   0.00195   0.00615   0.01978
     Eigenvalues ---    0.02059   0.04331   0.04465   0.06253   0.06885
     Eigenvalues ---    0.07695   0.07907   0.09327   0.10403   0.13000
     Eigenvalues ---    0.13455   0.20780   0.21243   0.24779   0.26542
     Eigenvalues ---    0.26573
 Eigenvectors required to have negative eigenvalues:
                          R5        R7        R6        R2        R1
   1                   -0.60745  -0.60472   0.47358   0.09777   0.09585
                          A1        D11       D8        A8        A10
   1                   -0.08512  -0.05566   0.05125   0.04246   0.03532
 RFO step:  Lambda0=1.236919768D-04 Lambda=-4.95049318D-04.
 Linear search not attempted -- option 19 set.
 Iteration  1 RMS(Cart)=  0.09218229 RMS(Int)=  0.05672475
 Iteration  2 RMS(Cart)=  0.06311956 RMS(Int)=  0.00707741
 Iteration  3 RMS(Cart)=  0.00639225 RMS(Int)=  0.00017199
 Iteration  4 RMS(Cart)=  0.00004190 RMS(Int)=  0.00017095
 Iteration  5 RMS(Cart)=  0.00000000 RMS(Int)=  0.00017095
 Variable       Old X    -DE/DX   Delta X   Delta X   Delta X     New X
                                 (Linear)    (Quad)   (Total)
    R1        4.08364  -0.00038   0.00000   0.01086   0.01082   4.09446
    R2        4.09071   0.00011   0.00000   0.00282   0.00277   4.09348
    R3        4.39697  -0.00007   0.00000  -0.00222  -0.00222   4.39476
    R4        4.39825  -0.00014   0.00000  -0.00804  -0.00804   4.39021
    R5        3.29075   0.00098   0.00000  -0.04135  -0.04130   3.24945
    R6        1.78201  -0.00198   0.00000   0.01456   0.01462   1.79663
    R7        3.27794   0.00089   0.00000  -0.02646  -0.02643   3.25152
    R8        2.55151  -0.00007   0.00000  -0.00058  -0.00058   2.55092
    R9        2.55113   0.00002   0.00000   0.00123   0.00123   2.55236
    A1        1.62969  -0.00009   0.00000  -0.00480  -0.00467   1.62502
    A2        1.93136   0.00003   0.00000  -0.02244  -0.02226   1.90910
    A3        1.93044  -0.00014   0.00000   0.03270   0.03267   1.96311
    A4        1.93688   0.00018   0.00000   0.02762   0.02766   1.96453
    A5        1.94308  -0.00005   0.00000  -0.03714  -0.03690   1.90618
    A6        2.04814   0.00004   0.00000   0.00258   0.00262   2.05076
    A7        1.64183  -0.00004   0.00000  -0.00449  -0.00480   1.63704
    A8        2.24773   0.00025   0.00000   0.01589   0.01573   2.26346
    A9        1.63757  -0.00001   0.00000  -0.00008  -0.00043   1.63714
   A10        2.26752  -0.00011   0.00000  -0.00532  -0.00549   2.26203
   A11        1.76738   0.00005   0.00000   0.00257   0.00257   1.76996
   A12        1.76590   0.00013   0.00000   0.00465   0.00465   1.77055
    D1       -0.00008   0.00011   0.00000   0.00592   0.00594   0.00586
    D2       -1.98836  -0.00006   0.00000  -0.01698  -0.01707  -2.00543
    D3        1.99476  -0.00002   0.00000  -0.02914  -0.02920   1.96556
    D4        0.00886  -0.00017   0.00000  -0.01760  -0.01774  -0.00888
    D5        1.99238  -0.00014   0.00000  -0.03791  -0.03799   1.95438
    D6       -1.97510   0.00004   0.00000  -0.04262  -0.04288  -2.01798
    D7        0.83167   0.00024   0.00000  -0.21528  -0.21541   0.61626
    D8       -0.95267   0.00025   0.00000  -0.21199  -0.21179  -1.16445
    D9        3.06928   0.00011   0.00000  -0.18755  -0.18762   2.88166
   D10       -0.80043  -0.00012   0.00000  -0.38924  -0.38878  -1.18921
   D11        0.98638  -0.00031   0.00000  -0.39657  -0.39696   0.58942
   D12       -3.03849  -0.00006   0.00000  -0.39060  -0.39067   2.85403
   D13       -0.02059   0.00002   0.00000   0.02237   0.02243   0.00184
   D14        0.03784  -0.00022   0.00000  -0.05067  -0.05077  -0.01293
   D15       -0.02899   0.00027   0.00000   0.04431   0.04398   0.01500
         Item               Value     Threshold  Converged?
 Maximum Force            0.001981     0.000450     NO 
 RMS     Force            0.000423     0.000300     NO 
 Maximum Displacement     0.421144     0.001800     NO 
 RMS     Displacement     0.139550     0.001200     NO 
 Predicted change in Energy=-1.617776D-04
 GradGradGradGradGradGradGradGradGradGradGradGradGradGradGradGradGradGrad

                          Input orientation:                          
 ---------------------------------------------------------------------
 Center     Atomic      Atomic             Coordinates (Angstroms)
 Number     Number       Type             X           Y           Z
 ---------------------------------------------------------------------
      1         42           0        2.606882    0.881961    0.043667
      2         16           0        0.618436    0.190178   -0.468272
      3          1           0        0.273521   -0.354552    1.125810
      4         16           0        2.416206    0.267139    2.111990
      5          1           0        0.814426   -0.326933    1.907193
      6         16           0        2.705170    3.193235   -0.194640
      7          1           0        1.465095    3.555088    0.197127
      8         16           0        4.274207   -0.373531   -0.976640
      9          1           0        4.139992   -1.560294   -0.345893
 ---------------------------------------------------------------------
                    Distance matrix (angstroms):
                    1          2          3          4          5
     1  Mo   0.000000
     2  S    2.166694   0.000000
     3  H    2.853870   1.719534   0.000000
     4  S    2.166177   3.145735   2.439293   0.000000
     5  H    2.854304   2.438986   0.950738   1.720628   0.000000
     6  S    2.325605   3.667108   4.499255   3.737122   4.514886
     7  H    2.910814   3.533017   4.191371   3.921980   4.291595
     8  S    2.323200   3.733746   4.519529   3.660909   4.504303
     9  H    2.909775   3.934524   4.309214   3.514561   4.202019
                    6          7          8          9
     6  S    0.000000
     7  H    1.349891   0.000000
     8  S    3.974320   4.970200   0.000000
     9  H    4.967658   5.798024   1.350652   0.000000
 Symmetry turned off by external request.
 Stoichiometry    H4MoS4
 Framework group  C1[X(H4MoS4)]
 Deg. of freedom    21
 Full point group                 C1      NOp   1
 Rotational constants (GHZ):           1.2430588           1.1805263           0.9741464
 Basis read from rwf:  (5D, 7F)
 Pseudo-potential data read from rwf file.
   114 basis functions,   285 primitive gaussians,   120 cartesian basis functions
    41 alpha electrons       41 beta electrons
       nuclear repulsion energy       495.8418906195 Hartrees.
 NAtoms=    9 NActive=    9 NUniq=    9 SFac= 1.00D+00 NAtFMM=   60 NAOKFM=F Big=F
 Integral buffers will be    131072 words long.
 Raffenetti 2 integral format.
 Two-electron integral symmetry is turned off.
 One-electron integrals computed using PRISM.
   1 Symmetry operations used in ECPInt.
 ECPInt:  NShTT=     820 NPrTT=    5722 LenC2=     792 LenP2D=    4188.
 LDataN:  DoStor=T MaxTD1= 5 Len=  102
 NBasis=   114 RedAO= T EigKep=  4.66D-03  NBF=   114
 NBsUse=   114 1.00D-06 EigRej= -1.00D+00 NBFU=   114
 Defaulting to unpruned grid for atomic number  42.
 Initial guess from the checkpoint file:  "24_18_12_Mo_SH_4_ts.chk"
 B after Tr=    -0.105643    0.159416    0.069739
         Rot=    0.999353   -0.024771   -0.019252    0.017580 Ang=  -4.12 deg.
 ExpMin= 2.47D-02 ExpMax= 2.19D+04 ExpMxC= 3.30D+03 IAcc=3 IRadAn=         5 AccDes= 0.00D+00
 Harris functional with IExCor=  402 and IRadAn=       5 diagonalized for initial guess.
 HarFok:  IExCor=  402 AccDes= 0.00D+00 IRadAn=         5 IDoV= 1 UseB2=F ITyADJ=14
 ICtDFT=  3500011 ScaDFX=  1.000000  1.000000  1.000000  1.000000
 Defaulting to unpruned grid for atomic number  42.
 FoFCou: FMM=F IPFlag=           0 FMFlag=      100000 FMFlg1=           0
         NFxFlg=           0 DoJE=T BraDBF=F KetDBF=T FulRan=T
         wScrn=  0.000000 ICntrl=       500 IOpCl=  0 I1Cent=   200000004 NGrid=           0
         NMat0=    1 NMatS0=      1 NMatT0=    0 NMatD0=    1 NMtDS0=    0 NMtDT0=    0
 Symmetry not used in FoFCou.
 Keep R1 ints in memory in canonical form, NReq=66955134.
 Requested convergence on RMS density matrix=1.00D-08 within 128 cycles.
 Requested convergence on MAX density matrix=1.00D-06.
 Requested convergence on             energy=1.00D-06.
 No special actions if energy rises.
 Defaulting to unpruned grid for atomic number  42.
 Defaulting to unpruned grid for atomic number  42.
 Defaulting to unpruned grid for atomic number  42.
 Defaulting to unpruned grid for atomic number  42.
 Defaulting to unpruned grid for atomic number  42.
 Defaulting to unpruned grid for atomic number  42.
 Defaulting to unpruned grid for atomic number  42.
 Defaulting to unpruned grid for atomic number  42.
 Defaulting to unpruned grid for atomic number  42.
 Defaulting to unpruned grid for atomic number  42.
 Defaulting to unpruned grid for atomic number  42.
 Defaulting to unpruned grid for atomic number  42.
 Defaulting to unpruned grid for atomic number  42.
 Defaulting to unpruned grid for atomic number  42.
 Defaulting to unpruned grid for atomic number  42.
 Defaulting to unpruned grid for atomic number  42.
 Defaulting to unpruned grid for atomic number  42.
 Defaulting to unpruned grid for atomic number  42.
 Defaulting to unpruned grid for atomic number  42.
 Defaulting to unpruned grid for atomic number  42.
 Defaulting to unpruned grid for atomic number  42.
 Defaulting to unpruned grid for atomic number  42.
 Defaulting to unpruned grid for atomic number  42.
 Defaulting to unpruned grid for atomic number  42.
 Defaulting to unpruned grid for atomic number  42.
 Defaulting to unpruned grid for atomic number  42.
 Defaulting to unpruned grid for atomic number  42.
 Defaulting to unpruned grid for atomic number  42.
 Defaulting to unpruned grid for atomic number  42.
 Defaulting to unpruned grid for atomic number  42.
 Defaulting to unpruned grid for atomic number  42.
 Defaulting to unpruned grid for atomic number  42.
 Defaulting to unpruned grid for atomic number  42.
 Defaulting to unpruned grid for atomic number  42.
 Defaulting to unpruned grid for atomic number  42.
 Defaulting to unpruned grid for atomic number  42.
 Defaulting to unpruned grid for atomic number  42.
 Defaulting to unpruned grid for atomic number  42.
 Defaulting to unpruned grid for atomic number  42.
 Defaulting to unpruned grid for atomic number  42.
 Defaulting to unpruned grid for atomic number  42.
 Defaulting to unpruned grid for atomic number  42.
 Defaulting to unpruned grid for atomic number  42.
 Defaulting to unpruned grid for atomic number  42.
 Defaulting to unpruned grid for atomic number  42.
 Defaulting to unpruned grid for atomic number  42.
 Defaulting to unpruned grid for atomic number  42.
 Defaulting to unpruned grid for atomic number  42.
 SCF Done:  E(RB3LYP) =  -1662.75280409     A.U. after   15 cycles
            NFock= 15  Conv=0.58D-08     -V/T= 2.0300
   1 Symmetry operations used in ECPInt.
 ECPInt:  NShTT=     820 NPrTT=    5722 LenC2=     792 LenP2D=    4188.
 LDataN:  DoStor=T MaxTD1= 6 Len=  172
 Calling FoFJK, ICntrl=      2127 FMM=F ISym2X=0 I1Cent= 0 IOpClX= 0 NMat=1 NMatS=1 NMatT=0.
 Defaulting to unpruned grid for atomic number  42.
 Defaulting to unpruned grid for atomic number  42.
 Defaulting to unpruned grid for atomic number  42.
 Defaulting to unpruned grid for atomic number  42.
 Defaulting to unpruned grid for atomic number  42.
 Defaulting to unpruned grid for atomic number  42.
 Defaulting to unpruned grid for atomic number  42.
 Defaulting to unpruned grid for atomic number  42.
 Defaulting to unpruned grid for atomic number  42.
 Defaulting to unpruned grid for atomic number  42.
 Defaulting to unpruned grid for atomic number  42.
 Defaulting to unpruned grid for atomic number  42.
 Defaulting to unpruned grid for atomic number  42.
 Defaulting to unpruned grid for atomic number  42.
 Defaulting to unpruned grid for atomic number  42.
 Defaulting to unpruned grid for atomic number  42.
 Defaulting to unpruned grid for atomic number  42.
 Defaulting to unpruned grid for atomic number  42.
 Defaulting to unpruned grid for atomic number  42.
 Defaulting to unpruned grid for atomic number  42.
 Defaulting to unpruned grid for atomic number  42.
 Defaulting to unpruned grid for atomic number  42.
 Defaulting to unpruned grid for atomic number  42.
 Defaulting to unpruned grid for atomic number  42.
 Defaulting to unpruned grid for atomic number  42.
 Defaulting to unpruned grid for atomic number  42.
 Defaulting to unpruned grid for atomic number  42.
 Defaulting to unpruned grid for atomic number  42.
 Defaulting to unpruned grid for atomic number  42.
 Defaulting to unpruned grid for atomic number  42.
 Defaulting to unpruned grid for atomic number  42.
 Defaulting to unpruned grid for atomic number  42.
 Defaulting to unpruned grid for atomic number  42.
 Defaulting to unpruned grid for atomic number  42.
 Defaulting to unpruned grid for atomic number  42.
 Defaulting to unpruned grid for atomic number  42.
 Defaulting to unpruned grid for atomic number  42.
 Defaulting to unpruned grid for atomic number  42.
 Defaulting to unpruned grid for atomic number  42.
 Defaulting to unpruned grid for atomic number  42.
 Defaulting to unpruned grid for atomic number  42.
 Defaulting to unpruned grid for atomic number  42.
 Defaulting to unpruned grid for atomic number  42.
 Defaulting to unpruned grid for atomic number  42.
 Defaulting to unpruned grid for atomic number  42.
 Defaulting to unpruned grid for atomic number  42.
 Defaulting to unpruned grid for atomic number  42.
 Defaulting to unpruned grid for atomic number  42.
 -------------------------------------------------------------------
 Center     Atomic                   Forces (Hartrees/Bohr)
 Number     Number              X              Y              Z
 -------------------------------------------------------------------
      1       42          -0.001495245   -0.000676827    0.000955540
      2       16           0.001176093    0.000637859    0.000445439
      3        1          -0.000156032   -0.000600099    0.001075136
      4       16          -0.000084665    0.000843388   -0.001304661
      5        1          -0.001048448   -0.000546627   -0.000146898
      6       16           0.000455052    0.000813612   -0.000302291
      7        1           0.000105664   -0.000266191    0.000038127
      8       16           0.001222064   -0.000735445   -0.000469821
      9        1          -0.000174482    0.000530330   -0.000290570
 -------------------------------------------------------------------
 Cartesian Forces:  Max     0.001495245 RMS     0.000737138

 GradGradGradGradGradGradGradGradGradGradGradGradGradGradGradGradGradGrad
 Berny optimization.
 FormGI is forming the generalized inverse of G from B-inverse, IUseBI=4.
 Internal  Forces:  Max     0.001238345 RMS     0.000615763
 Search for a saddle point.
 Step number   2 out of a maximum of   46
 All quantities printed in internal units (Hartrees-Bohrs-Radians)
 Swapping is turned off.
 Update second derivatives using D2CorX and points    1    2
 ITU=  0  0
     Eigenvalues ---   -0.03339   0.00012   0.00202   0.00614   0.01982
     Eigenvalues ---    0.02058   0.04330   0.04465   0.06254   0.06884
     Eigenvalues ---    0.07696   0.07907   0.09337   0.10414   0.13019
     Eigenvalues ---    0.13456   0.20781   0.21270   0.24789   0.26542
     Eigenvalues ---    0.26575
 Eigenvectors required to have negative eigenvalues:
                          R5        R7        R6        R2        R1
   1                   -0.60651  -0.60430   0.47405   0.09734   0.09448
                          A1        D8        D10       A8        A10
   1                   -0.08624   0.06645   0.05336   0.04182   0.03611
 RFO step:  Lambda0=5.266701436D-05 Lambda=-2.35535859D-04.
 Linear search not attempted -- option 19 set.
 Iteration  1 RMS(Cart)=  0.09150222 RMS(Int)=  0.02696899
 Iteration  2 RMS(Cart)=  0.02662834 RMS(Int)=  0.00095221
 Iteration  3 RMS(Cart)=  0.00099508 RMS(Int)=  0.00008889
 Iteration  4 RMS(Cart)=  0.00000103 RMS(Int)=  0.00008889
 Iteration  5 RMS(Cart)=  0.00000000 RMS(Int)=  0.00008889
 Variable       Old X    -DE/DX   Delta X   Delta X   Delta X     New X
                                 (Linear)    (Quad)   (Total)
    R1        4.09446  -0.00074   0.00000  -0.00038  -0.00042   4.09404
    R2        4.09348  -0.00082   0.00000   0.00018   0.00014   4.09362
    R3        4.39476   0.00059   0.00000  -0.00066  -0.00066   4.39410
    R4        4.39021   0.00120   0.00000   0.00442   0.00442   4.39463
    R5        3.24945   0.00073   0.00000  -0.00721  -0.00717   3.24228
    R6        1.79663  -0.00077   0.00000   0.00672   0.00678   1.80341
    R7        3.25152   0.00068   0.00000  -0.00809  -0.00805   3.24347
    R8        2.55092  -0.00016   0.00000   0.00048   0.00048   2.55140
    R9        2.55236  -0.00058   0.00000  -0.00116  -0.00116   2.55120
    A1        1.62502  -0.00091   0.00000  -0.00256  -0.00243   1.62259
    A2        1.90910   0.00058   0.00000   0.02603   0.02608   1.93518
    A3        1.96311   0.00047   0.00000  -0.02424  -0.02413   1.93898
    A4        1.96453   0.00019   0.00000  -0.02616  -0.02605   1.93848
    A5        1.90618   0.00075   0.00000   0.02912   0.02919   1.93537
    A6        2.05076  -0.00100   0.00000  -0.00303  -0.00296   2.04781
    A7        1.63704   0.00120   0.00000   0.00211   0.00198   1.63902
    A8        2.26346  -0.00076   0.00000  -0.00075  -0.00073   2.26273
    A9        1.63714   0.00124   0.00000   0.00229   0.00215   1.63929
   A10        2.26203  -0.00077   0.00000  -0.00090  -0.00088   2.26115
   A11        1.76996  -0.00061   0.00000  -0.00150  -0.00150   1.76846
   A12        1.77055  -0.00044   0.00000  -0.00161  -0.00161   1.76894
    D1        0.00586  -0.00025   0.00000  -0.00664  -0.00663  -0.00077
    D2       -2.00543  -0.00020   0.00000   0.01690   0.01688  -1.98855
    D3        1.96556   0.00026   0.00000   0.01883   0.01890   1.98446
    D4       -0.00888   0.00023   0.00000   0.00938   0.00939   0.00051
    D5        1.95438   0.00049   0.00000   0.03096   0.03105   1.98543
    D6       -2.01798  -0.00007   0.00000   0.03016   0.03012  -1.98785
    D7        0.61626  -0.00031   0.00000   0.25567   0.25548   0.87174
    D8       -1.16445   0.00039   0.00000   0.25739   0.25760  -0.90686
    D9        2.88166   0.00004   0.00000   0.24340   0.24338   3.12504
   D10       -1.18921   0.00042   0.00000   0.27183   0.27204  -0.91716
   D11        0.58942  -0.00007   0.00000   0.27254   0.27234   0.86175
   D12        2.85403   0.00004   0.00000   0.26049   0.26048   3.11451
   D13        0.00184   0.00025   0.00000  -0.00057  -0.00056   0.00128
   D14       -0.01293  -0.00004   0.00000   0.01185   0.01184  -0.00109
   D15        0.01500  -0.00018   0.00000  -0.01486  -0.01486   0.00014
         Item               Value     Threshold  Converged?
 Maximum Force            0.001238     0.000450     NO 
 RMS     Force            0.000616     0.000300     NO 
 Maximum Displacement     0.279563     0.001800     NO 
 RMS     Displacement     0.114662     0.001200     NO 
 Predicted change in Energy=-1.398292D-04
 GradGradGradGradGradGradGradGradGradGradGradGradGradGradGradGradGradGrad

                          Input orientation:                          
 ---------------------------------------------------------------------
 Center     Atomic      Atomic             Coordinates (Angstroms)
 Number     Number       Type             X           Y           Z
 ---------------------------------------------------------------------
      1         42           0        2.613767    0.887447    0.042360
      2         16           0        0.684362    0.062761   -0.496978
      3          1           0        0.299122   -0.394885    1.111101
      4         16           0        2.357717    0.409515    2.139658
      5          1           0        0.806694   -0.289467    1.912347
      6         16           0        2.654213    3.188225   -0.291705
      7          1           0        1.526019    3.568477    0.345065
      8         16           0        4.345070   -0.356896   -0.886258
      9          1           0        4.026969   -1.602883   -0.475248
 ---------------------------------------------------------------------
                    Distance matrix (angstroms):
                    1          2          3          4          5
     1  Mo   0.000000
     2  S    2.166470   0.000000
     3  H    2.853798   1.715742   0.000000
     4  S    2.166250   3.142006   2.437787   0.000000
     5  H    2.854381   2.438007   0.954326   1.716368   0.000000
     6  S    2.325257   3.700132   4.511430   3.704142   4.512818
     7  H    2.909080   3.702360   4.219043   3.727106   4.225818
     8  S    2.325539   3.705190   4.512271   3.700422   4.511856
     9  H    2.909777   3.734684   4.227601   3.697822   4.218512
                    6          7          8          9
     6  S    0.000000
     7  H    1.350144   0.000000
     8  S    3.972452   4.987159   0.000000
     9  H    4.987271   5.802640   1.350038   0.000000
 Symmetry turned off by external request.
 Stoichiometry    H4MoS4
 Framework group  C1[X(H4MoS4)]
 Deg. of freedom    21
 Full point group                 C1      NOp   1
 Rotational constants (GHZ):           1.2394056           1.1821474           0.9742801
 Basis read from rwf:  (5D, 7F)
 Pseudo-potential data read from rwf file.
   114 basis functions,   285 primitive gaussians,   120 cartesian basis functions
    41 alpha electrons       41 beta electrons
       nuclear repulsion energy       495.7594754626 Hartrees.
 NAtoms=    9 NActive=    9 NUniq=    9 SFac= 1.00D+00 NAtFMM=   60 NAOKFM=F Big=F
 Integral buffers will be    131072 words long.
 Raffenetti 2 integral format.
 Two-electron integral symmetry is turned off.
 One-electron integrals computed using PRISM.
   1 Symmetry operations used in ECPInt.
 ECPInt:  NShTT=     820 NPrTT=    5722 LenC2=     794 LenP2D=    4194.
 LDataN:  DoStor=T MaxTD1= 5 Len=  102
 NBasis=   114 RedAO= T EigKep=  4.62D-03  NBF=   114
 NBsUse=   114 1.00D-06 EigRej= -1.00D+00 NBFU=   114
 Defaulting to unpruned grid for atomic number  42.
 Initial guess from the checkpoint file:  "24_18_12_Mo_SH_4_ts.chk"
 B after Tr=     0.070826   -0.150687   -0.058748
         Rot=    0.999518    0.022783    0.013833   -0.015940 Ang=   3.56 deg.
 ExpMin= 2.47D-02 ExpMax= 2.19D+04 ExpMxC= 3.30D+03 IAcc=3 IRadAn=         5 AccDes= 0.00D+00
 Harris functional with IExCor=  402 and IRadAn=       5 diagonalized for initial guess.
 HarFok:  IExCor=  402 AccDes= 0.00D+00 IRadAn=         5 IDoV= 1 UseB2=F ITyADJ=14
 ICtDFT=  3500011 ScaDFX=  1.000000  1.000000  1.000000  1.000000
 Defaulting to unpruned grid for atomic number  42.
 FoFCou: FMM=F IPFlag=           0 FMFlag=      100000 FMFlg1=           0
         NFxFlg=           0 DoJE=T BraDBF=F KetDBF=T FulRan=T
         wScrn=  0.000000 ICntrl=       500 IOpCl=  0 I1Cent=   200000004 NGrid=           0
         NMat0=    1 NMatS0=      1 NMatT0=    0 NMatD0=    1 NMtDS0=    0 NMtDT0=    0
 Symmetry not used in FoFCou.
 Keep R1 ints in memory in canonical form, NReq=66955134.
 Requested convergence on RMS density matrix=1.00D-08 within 128 cycles.
 Requested convergence on MAX density matrix=1.00D-06.
 Requested convergence on             energy=1.00D-06.
 No special actions if energy rises.
 Defaulting to unpruned grid for atomic number  42.
 Defaulting to unpruned grid for atomic number  42.
 Defaulting to unpruned grid for atomic number  42.
 Defaulting to unpruned grid for atomic number  42.
 Defaulting to unpruned grid for atomic number  42.
 Defaulting to unpruned grid for atomic number  42.
 Defaulting to unpruned grid for atomic number  42.
 Defaulting to unpruned grid for atomic number  42.
 Defaulting to unpruned grid for atomic number  42.
 Defaulting to unpruned grid for atomic number  42.
 Defaulting to unpruned grid for atomic number  42.
 Defaulting to unpruned grid for atomic number  42.
 Defaulting to unpruned grid for atomic number  42.
 Defaulting to unpruned grid for atomic number  42.
 Defaulting to unpruned grid for atomic number  42.
 Defaulting to unpruned grid for atomic number  42.
 Defaulting to unpruned grid for atomic number  42.
 Defaulting to unpruned grid for atomic number  42.
 Defaulting to unpruned grid for atomic number  42.
 Defaulting to unpruned grid for atomic number  42.
 Defaulting to unpruned grid for atomic number  42.
 Defaulting to unpruned grid for atomic number  42.
 Defaulting to unpruned grid for atomic number  42.
 Defaulting to unpruned grid for atomic number  42.
 Defaulting to unpruned grid for atomic number  42.
 Defaulting to unpruned grid for atomic number  42.
 Defaulting to unpruned grid for atomic number  42.
 Defaulting to unpruned grid for atomic number  42.
 Defaulting to unpruned grid for atomic number  42.
 Defaulting to unpruned grid for atomic number  42.
 Defaulting to unpruned grid for atomic number  42.
 Defaulting to unpruned grid for atomic number  42.
 Defaulting to unpruned grid for atomic number  42.
 Defaulting to unpruned grid for atomic number  42.
 Defaulting to unpruned grid for atomic number  42.
 Defaulting to unpruned grid for atomic number  42.
 Defaulting to unpruned grid for atomic number  42.
 Defaulting to unpruned grid for atomic number  42.
 Defaulting to unpruned grid for atomic number  42.
 Defaulting to unpruned grid for atomic number  42.
 Defaulting to unpruned grid for atomic number  42.
 Defaulting to unpruned grid for atomic number  42.
 Defaulting to unpruned grid for atomic number  42.
 Defaulting to unpruned grid for atomic number  42.
 Defaulting to unpruned grid for atomic number  42.
 Defaulting to unpruned grid for atomic number  42.
 Defaulting to unpruned grid for atomic number  42.
 Defaulting to unpruned grid for atomic number  42.
 SCF Done:  E(RB3LYP) =  -1662.75284704     A.U. after   15 cycles
            NFock= 15  Conv=0.48D-08     -V/T= 2.0300
   1 Symmetry operations used in ECPInt.
 ECPInt:  NShTT=     820 NPrTT=    5722 LenC2=     794 LenP2D=    4194.
 LDataN:  DoStor=T MaxTD1= 6 Len=  172
 Calling FoFJK, ICntrl=      2127 FMM=F ISym2X=0 I1Cent= 0 IOpClX= 0 NMat=1 NMatS=1 NMatT=0.
 Defaulting to unpruned grid for atomic number  42.
 Defaulting to unpruned grid for atomic number  42.
 Defaulting to unpruned grid for atomic number  42.
 Defaulting to unpruned grid for atomic number  42.
 Defaulting to unpruned grid for atomic number  42.
 Defaulting to unpruned grid for atomic number  42.
 Defaulting to unpruned grid for atomic number  42.
 Defaulting to unpruned grid for atomic number  42.
 Defaulting to unpruned grid for atomic number  42.
 Defaulting to unpruned grid for atomic number  42.
 Defaulting to unpruned grid for atomic number  42.
 Defaulting to unpruned grid for atomic number  42.
 Defaulting to unpruned grid for atomic number  42.
 Defaulting to unpruned grid for atomic number  42.
 Defaulting to unpruned grid for atomic number  42.
 Defaulting to unpruned grid for atomic number  42.
 Defaulting to unpruned grid for atomic number  42.
 Defaulting to unpruned grid for atomic number  42.
 Defaulting to unpruned grid for atomic number  42.
 Defaulting to unpruned grid for atomic number  42.
 Defaulting to unpruned grid for atomic number  42.
 Defaulting to unpruned grid for atomic number  42.
 Defaulting to unpruned grid for atomic number  42.
 Defaulting to unpruned grid for atomic number  42.
 Defaulting to unpruned grid for atomic number  42.
 Defaulting to unpruned grid for atomic number  42.
 Defaulting to unpruned grid for atomic number  42.
 Defaulting to unpruned grid for atomic number  42.
 Defaulting to unpruned grid for atomic number  42.
 Defaulting to unpruned grid for atomic number  42.
 Defaulting to unpruned grid for atomic number  42.
 Defaulting to unpruned grid for atomic number  42.
 Defaulting to unpruned grid for atomic number  42.
 Defaulting to unpruned grid for atomic number  42.
 Defaulting to unpruned grid for atomic number  42.
 Defaulting to unpruned grid for atomic number  42.
 Defaulting to unpruned grid for atomic number  42.
 Defaulting to unpruned grid for atomic number  42.
 Defaulting to unpruned grid for atomic number  42.
 Defaulting to unpruned grid for atomic number  42.
 Defaulting to unpruned grid for atomic number  42.
 Defaulting to unpruned grid for atomic number  42.
 Defaulting to unpruned grid for atomic number  42.
 Defaulting to unpruned grid for atomic number  42.
 Defaulting to unpruned grid for atomic number  42.
 Defaulting to unpruned grid for atomic number  42.
 Defaulting to unpruned grid for atomic number  42.
 Defaulting to unpruned grid for atomic number  42.
 -------------------------------------------------------------------
 Center     Atomic                   Forces (Hartrees/Bohr)
 Number     Number              X              Y              Z
 -------------------------------------------------------------------
      1       42           0.000213671    0.000098180   -0.000183585
      2       16          -0.000227427   -0.000077856   -0.000083878
      3        1          -0.000036149    0.000021726   -0.000191799
      4       16           0.000053255   -0.000093703    0.000211609
      5        1           0.000179895    0.000097381    0.000086842
      6       16          -0.000054779   -0.000100003    0.000044822
      7        1          -0.000023070    0.000037462   -0.000005163
      8       16          -0.000089150    0.000088672    0.000130680
      9        1          -0.000016247   -0.000071859   -0.000009529
 -------------------------------------------------------------------
 Cartesian Forces:  Max     0.000227427 RMS     0.000114430

 GradGradGradGradGradGradGradGradGradGradGradGradGradGradGradGradGradGrad
 Berny optimization.
 FormGI is forming the generalized inverse of G from B-inverse, IUseBI=4.
 Internal  Forces:  Max     0.000196740 RMS     0.000092437
 Search for a saddle point.
 Step number   3 out of a maximum of   46
 All quantities printed in internal units (Hartrees-Bohrs-Radians)
 Swapping is turned off.
 Update second derivatives using D2CorX and points    1    2    3
 ITU=  0  0  0
     Eigenvalues ---   -0.03380   0.00036   0.00247   0.00615   0.01982
     Eigenvalues ---    0.02059   0.04332   0.04467   0.06254   0.06885
     Eigenvalues ---    0.07696   0.07912   0.09340   0.10413   0.13026
     Eigenvalues ---    0.13456   0.20781   0.21289   0.24802   0.26542
     Eigenvalues ---    0.26575
 Eigenvectors required to have negative eigenvalues:
                          R5        R7        R6        R2        R1
   1                   -0.60636  -0.60337   0.47384   0.09758   0.09556
                          A1        D8        D10       A8        A10
   1                   -0.08548   0.07502   0.05161   0.04251   0.03607
 RFO step:  Lambda0=1.158191252D-06 Lambda=-2.16358251D-06.
 Linear search not attempted -- option 19 set.
 Iteration  1 RMS(Cart)=  0.00293721 RMS(Int)=  0.00000951
 Iteration  2 RMS(Cart)=  0.00000847 RMS(Int)=  0.00000025
 Iteration  3 RMS(Cart)=  0.00000000 RMS(Int)=  0.00000025
 Variable       Old X    -DE/DX   Delta X   Delta X   Delta X     New X
                                 (Linear)    (Quad)   (Total)
    R1        4.09404   0.00017   0.00000  -0.00000  -0.00000   4.09403
    R2        4.09362   0.00013   0.00000   0.00034   0.00034   4.09396
    R3        4.39410  -0.00007   0.00000  -0.00030  -0.00030   4.39380
    R4        4.39463  -0.00014   0.00000  -0.00081  -0.00081   4.39382
    R5        3.24228  -0.00007   0.00000   0.00408   0.00408   3.24637
    R6        1.80341   0.00020   0.00000  -0.00220  -0.00220   1.80122
    R7        3.24347  -0.00007   0.00000   0.00287   0.00287   3.24634
    R8        2.55140   0.00003   0.00000   0.00006   0.00006   2.55146
    R9        2.55120   0.00007   0.00000   0.00022   0.00022   2.55142
    A1        1.62259   0.00014   0.00000   0.00100   0.00100   1.62360
    A2        1.93518  -0.00010   0.00000  -0.00132  -0.00132   1.93387
    A3        1.93898  -0.00002   0.00000   0.00003   0.00003   1.93901
    A4        1.93848  -0.00003   0.00000   0.00029   0.00029   1.93877
    A5        1.93537  -0.00015   0.00000  -0.00158  -0.00158   1.93378
    A6        2.04781   0.00015   0.00000   0.00141   0.00141   2.04922
    A7        1.63902  -0.00017   0.00000  -0.00053  -0.00053   1.63849
    A8        2.26273   0.00008   0.00000  -0.00068  -0.00068   2.26205
    A9        1.63929  -0.00016   0.00000  -0.00081  -0.00081   1.63848
   A10        2.26115   0.00011   0.00000   0.00101   0.00101   2.26216
   A11        1.76846   0.00008   0.00000   0.00038   0.00038   1.76884
   A12        1.76894   0.00004   0.00000   0.00006   0.00006   1.76901
    D1       -0.00077   0.00002   0.00000   0.00055   0.00055  -0.00022
    D2       -1.98855   0.00001   0.00000   0.00009   0.00009  -1.98846
    D3        1.98446  -0.00009   0.00000  -0.00074  -0.00074   1.98372
    D4        0.00051  -0.00002   0.00000  -0.00071  -0.00071  -0.00020
    D5        1.98543  -0.00007   0.00000  -0.00164  -0.00164   1.98379
    D6       -1.98785  -0.00003   0.00000  -0.00083  -0.00083  -1.98868
    D7        0.87174   0.00002   0.00000  -0.00637  -0.00637   0.86537
    D8       -0.90686  -0.00008   0.00000  -0.00705  -0.00705  -0.91391
    D9        3.12504   0.00003   0.00000  -0.00633  -0.00633   3.11871
   D10       -0.91716  -0.00002   0.00000   0.00273   0.00273  -0.91443
   D11        0.86175   0.00006   0.00000   0.00317   0.00317   0.86492
   D12        3.11451   0.00001   0.00000   0.00332   0.00332   3.11783
   D13        0.00128  -0.00002   0.00000  -0.00010  -0.00010   0.00118
   D14       -0.00109   0.00001   0.00000  -0.00071  -0.00071  -0.00180
   D15        0.00014   0.00001   0.00000   0.00103   0.00103   0.00116
         Item               Value     Threshold  Converged?
 Maximum Force            0.000197     0.000450     YES
 RMS     Force            0.000092     0.000300     YES
 Maximum Displacement     0.008491     0.001800     NO 
 RMS     Displacement     0.002936     0.001200     NO 
 Predicted change in Energy=-5.026752D-07
 GradGradGradGradGradGradGradGradGradGradGradGradGradGradGradGradGradGrad

                          Input orientation:                          
 ---------------------------------------------------------------------
 Center     Atomic      Atomic             Coordinates (Angstroms)
 Number     Number       Type             X           Y           Z
 ---------------------------------------------------------------------
      1         42           0        2.615229    0.887914    0.043371
      2         16           0        0.685430    0.065286   -0.497691
      3          1           0        0.299455   -0.394060    1.112034
      4         16           0        2.360338    0.407659    2.140465
      5          1           0        0.807018   -0.289587    1.912024
      6         16           0        2.654616    3.188802   -0.288966
      7          1           0        1.521833    3.567565    0.340571
      8         16           0        4.345740   -0.357399   -0.884352
      9          1           0        4.024275   -1.603888   -0.477115
 ---------------------------------------------------------------------
                    Distance matrix (angstroms):
                    1          2          3          4          5
     1  Mo   0.000000
     2  S    2.166469   0.000000
     3  H    2.854524   1.717903   0.000000
     4  S    2.166430   3.143629   2.438783   0.000000
     5  H    2.854471   2.438739   0.953163   1.717888   0.000000
     6  S    2.325099   3.698326   4.510707   3.704523   4.511892
     7  H    2.909360   3.697055   4.217088   3.731986   4.225879
     8  S    2.325111   3.704867   4.512131   3.698196   4.510751
     9  H    2.909535   3.732887   4.226507   3.696854   4.217359
                    6          7          8          9
     6  S    0.000000
     7  H    1.350176   0.000000
     8  S    3.973654   4.988009   0.000000
     9  H    4.988110   5.802995   1.350154   0.000000
 Symmetry turned off by external request.
 Stoichiometry    H4MoS4
 Framework group  C1[X(H4MoS4)]
 Deg. of freedom    21
 Full point group                 C1      NOp   1
 Rotational constants (GHZ):           1.2400967           1.1812729           0.9747074
 Basis read from rwf:  (5D, 7F)
 Pseudo-potential data read from rwf file.
   114 basis functions,   285 primitive gaussians,   120 cartesian basis functions
    41 alpha electrons       41 beta electrons
       nuclear repulsion energy       495.7634905350 Hartrees.
 NAtoms=    9 NActive=    9 NUniq=    9 SFac= 1.00D+00 NAtFMM=   60 NAOKFM=F Big=F
 Integral buffers will be    131072 words long.
 Raffenetti 2 integral format.
 Two-electron integral symmetry is turned off.
 One-electron integrals computed using PRISM.
   1 Symmetry operations used in ECPInt.
 ECPInt:  NShTT=     820 NPrTT=    5722 LenC2=     794 LenP2D=    4194.
 LDataN:  DoStor=T MaxTD1= 5 Len=  102
 NBasis=   114 RedAO= T EigKep=  4.63D-03  NBF=   114
 NBsUse=   114 1.00D-06 EigRej= -1.00D+00 NBFU=   114
 Defaulting to unpruned grid for atomic number  42.
 Initial guess from the checkpoint file:  "24_18_12_Mo_SH_4_ts.chk"
 B after Tr=     0.001877    0.001896    0.000257
         Rot=    1.000000   -0.000324    0.000069    0.000130 Ang=  -0.04 deg.
 Keep R1 ints in memory in canonical form, NReq=66955134.
 Requested convergence on RMS density matrix=1.00D-08 within 128 cycles.
 Requested convergence on MAX density matrix=1.00D-06.
 Requested convergence on             energy=1.00D-06.
 No special actions if energy rises.
 Defaulting to unpruned grid for atomic number  42.
 Defaulting to unpruned grid for atomic number  42.
 Defaulting to unpruned grid for atomic number  42.
 Defaulting to unpruned grid for atomic number  42.
 Defaulting to unpruned grid for atomic number  42.
 Defaulting to unpruned grid for atomic number  42.
 Defaulting to unpruned grid for atomic number  42.
 Defaulting to unpruned grid for atomic number  42.
 Defaulting to unpruned grid for atomic number  42.
 Defaulting to unpruned grid for atomic number  42.
 Defaulting to unpruned grid for atomic number  42.
 Defaulting to unpruned grid for atomic number  42.
 Defaulting to unpruned grid for atomic number  42.
 Defaulting to unpruned grid for atomic number  42.
 Defaulting to unpruned grid for atomic number  42.
 Defaulting to unpruned grid for atomic number  42.
 Defaulting to unpruned grid for atomic number  42.
 Defaulting to unpruned grid for atomic number  42.
 Defaulting to unpruned grid for atomic number  42.
 Defaulting to unpruned grid for atomic number  42.
 Defaulting to unpruned grid for atomic number  42.
 Defaulting to unpruned grid for atomic number  42.
 Defaulting to unpruned grid for atomic number  42.
 Defaulting to unpruned grid for atomic number  42.
 Defaulting to unpruned grid for atomic number  42.
 Defaulting to unpruned grid for atomic number  42.
 Defaulting to unpruned grid for atomic number  42.
 Defaulting to unpruned grid for atomic number  42.
 Defaulting to unpruned grid for atomic number  42.
 Defaulting to unpruned grid for atomic number  42.
 Defaulting to unpruned grid for atomic number  42.
 Defaulting to unpruned grid for atomic number  42.
 Defaulting to unpruned grid for atomic number  42.
 Defaulting to unpruned grid for atomic number  42.
 Defaulting to unpruned grid for atomic number  42.
 Defaulting to unpruned grid for atomic number  42.
 Defaulting to unpruned grid for atomic number  42.
 Defaulting to unpruned grid for atomic number  42.
 Defaulting to unpruned grid for atomic number  42.
 Defaulting to unpruned grid for atomic number  42.
 Defaulting to unpruned grid for atomic number  42.
 Defaulting to unpruned grid for atomic number  42.
 Defaulting to unpruned grid for atomic number  42.
 Defaulting to unpruned grid for atomic number  42.
 Defaulting to unpruned grid for atomic number  42.
 Defaulting to unpruned grid for atomic number  42.
 Defaulting to unpruned grid for atomic number  42.
 Defaulting to unpruned grid for atomic number  42.
 SCF Done:  E(RB3LYP) =  -1662.75284758     A.U. after   10 cycles
            NFock= 10  Conv=0.80D-08     -V/T= 2.0300
   1 Symmetry operations used in ECPInt.
 ECPInt:  NShTT=     820 NPrTT=    5722 LenC2=     794 LenP2D=    4194.
 LDataN:  DoStor=T MaxTD1= 6 Len=  172
 Calling FoFJK, ICntrl=      2127 FMM=F ISym2X=0 I1Cent= 0 IOpClX= 0 NMat=1 NMatS=1 NMatT=0.
 Defaulting to unpruned grid for atomic number  42.
 Defaulting to unpruned grid for atomic number  42.
 Defaulting to unpruned grid for atomic number  42.
 Defaulting to unpruned grid for atomic number  42.
 Defaulting to unpruned grid for atomic number  42.
 Defaulting to unpruned grid for atomic number  42.
 Defaulting to unpruned grid for atomic number  42.
 Defaulting to unpruned grid for atomic number  42.
 Defaulting to unpruned grid for atomic number  42.
 Defaulting to unpruned grid for atomic number  42.
 Defaulting to unpruned grid for atomic number  42.
 Defaulting to unpruned grid for atomic number  42.
 Defaulting to unpruned grid for atomic number  42.
 Defaulting to unpruned grid for atomic number  42.
 Defaulting to unpruned grid for atomic number  42.
 Defaulting to unpruned grid for atomic number  42.
 Defaulting to unpruned grid for atomic number  42.
 Defaulting to unpruned grid for atomic number  42.
 Defaulting to unpruned grid for atomic number  42.
 Defaulting to unpruned grid for atomic number  42.
 Defaulting to unpruned grid for atomic number  42.
 Defaulting to unpruned grid for atomic number  42.
 Defaulting to unpruned grid for atomic number  42.
 Defaulting to unpruned grid for atomic number  42.
 Defaulting to unpruned grid for atomic number  42.
 Defaulting to unpruned grid for atomic number  42.
 Defaulting to unpruned grid for atomic number  42.
 Defaulting to unpruned grid for atomic number  42.
 Defaulting to unpruned grid for atomic number  42.
 Defaulting to unpruned grid for atomic number  42.
 Defaulting to unpruned grid for atomic number  42.
 Defaulting to unpruned grid for atomic number  42.
 Defaulting to unpruned grid for atomic number  42.
 Defaulting to unpruned grid for atomic number  42.
 Defaulting to unpruned grid for atomic number  42.
 Defaulting to unpruned grid for atomic number  42.
 Defaulting to unpruned grid for atomic number  42.
 Defaulting to unpruned grid for atomic number  42.
 Defaulting to unpruned grid for atomic number  42.
 Defaulting to unpruned grid for atomic number  42.
 Defaulting to unpruned grid for atomic number  42.
 Defaulting to unpruned grid for atomic number  42.
 Defaulting to unpruned grid for atomic number  42.
 Defaulting to unpruned grid for atomic number  42.
 Defaulting to unpruned grid for atomic number  42.
 Defaulting to unpruned grid for atomic number  42.
 Defaulting to unpruned grid for atomic number  42.
 Defaulting to unpruned grid for atomic number  42.
 -------------------------------------------------------------------
 Center     Atomic                   Forces (Hartrees/Bohr)
 Number     Number              X              Y              Z
 -------------------------------------------------------------------
[...]
 Vib (V=0)    6  0.152674D+01          0.183764          0.423132
 Vib (V=0)    7  0.127048D+01          0.103967          0.239392
 Vib (V=0)    8  0.118639D+01          0.074226          0.170912
 Vib (V=0)    9  0.117185D+01          0.068872          0.158583
 Vib (V=0)   10  0.111948D+01          0.049015          0.112860
 Vib (V=0)   11  0.110518D+01          0.043435          0.100012
 Vib (V=0)   12  0.108678D+01          0.036142          0.083220
 Vib (V=0)   13  0.106885D+01          0.028916          0.066581
 Vib (V=0)   14  0.105737D+01          0.024227          0.055784
 Electronic      0.100000D+01          0.000000          0.000000
 Translational   0.136946D+09          8.136550         18.735099
 Rotational      0.726518D+06          5.861246         13.496018
 -------------------------------------------------------------------
 Center     Atomic                   Forces (Hartrees/Bohr)
 Number     Number              X              Y              Z
 -------------------------------------------------------------------
      1       42           0.000001690   -0.000000219   -0.000001661
      2       16          -0.000001566   -0.000004272    0.000001898
      3        1           0.000000960    0.000003537   -0.000000340
      4       16           0.000002264   -0.000002045    0.000001197
      5        1           0.000002961    0.000000823    0.000001426
      6       16          -0.000001445   -0.000000183    0.000001125
      7        1           0.000000090    0.000000636   -0.000001032
      8       16          -0.000002716    0.000003249    0.000000525
      9        1          -0.000002239   -0.000001525   -0.000003138
 -------------------------------------------------------------------
 Cartesian Forces:  Max     0.000004272 RMS     0.000001981
 FormGI is forming the generalized inverse of G from B-inverse, IUseBI=4.

 GradGradGradGradGradGradGradGradGradGradGradGradGradGradGradGradGradGrad
 Berny optimization.
 Internal  Forces:  Max     0.000003622 RMS     0.000001450
 Search for a saddle point.
 Step number   1 out of a maximum of    2
 All quantities printed in internal units (Hartrees-Bohrs-Radians)
 Swapping is turned off.
 Second derivative matrix not updated -- analytic derivatives used.
 ITU=  0
     Eigenvalues ---   -0.03559   0.00022   0.00223   0.00623   0.02012
     Eigenvalues ---    0.02203   0.04360   0.04374   0.06267   0.07136
     Eigenvalues ---    0.07690   0.07822   0.09373   0.10050   0.13070
     Eigenvalues ---    0.13536   0.20516   0.21009   0.24842   0.26553
     Eigenvalues ---    0.26581
 Eigenvectors required to have negative eigenvalues:
                          R5        R7        R6        R1        R2
   1                   -0.59669  -0.59645   0.49542   0.10184   0.10167
                          A1        D10       D8        A8        A10
   1                   -0.08175   0.05871   0.05823   0.03648   0.03633
 Angle between quadratic step and forces=  72.99 degrees.
 Linear search not attempted -- option 19 set.
 Iteration  1 RMS(Cart)=  0.00077350 RMS(Int)=  0.00000082
 Iteration  2 RMS(Cart)=  0.00000077 RMS(Int)=  0.00000000
 Variable       Old X    -DE/DX   Delta X   Delta X   Delta X     New X
                                 (Linear)    (Quad)   (Total)
    R1        4.09398   0.00000   0.00000  -0.00003  -0.00003   4.09395
    R2        4.09370   0.00000   0.00000   0.00004   0.00004   4.09374
    R3        4.39478   0.00000   0.00000  -0.00001  -0.00001   4.39477
    R4        4.39486  -0.00000   0.00000  -0.00007  -0.00007   4.39479
    R5        3.24198  -0.00000   0.00000   0.00017   0.00017   3.24215
    R6        1.80510   0.00000   0.00000  -0.00015  -0.00015   1.80495
    R7        3.24232  -0.00000   0.00000   0.00013   0.00013   3.24244
    R8        2.55120  -0.00000   0.00000   0.00000   0.00000   2.55120
    R9        2.55121   0.00000   0.00000   0.00001   0.00001   2.55123
    A1        1.62234   0.00000   0.00000   0.00004   0.00004   1.62238
    A2        1.92354   0.00000   0.00000   0.00010   0.00010   1.92365
    A3        1.95143  -0.00000   0.00000  -0.00024  -0.00024   1.95119
    A4        1.95095   0.00000   0.00000  -0.00012  -0.00012   1.95083
    A5        1.92325  -0.00000   0.00000   0.00017   0.00017   1.92342
    A6        2.04716   0.00000   0.00000   0.00004   0.00004   2.04719
    A7        1.63955  -0.00000   0.00000  -0.00003  -0.00003   1.63952
    A8        2.26175   0.00000   0.00000   0.00001   0.00001   2.26176
    A9        1.63959  -0.00000   0.00000  -0.00004  -0.00004   1.63955
   A10        2.26153   0.00000   0.00000   0.00003   0.00003   2.26155
   A11        1.76848   0.00000   0.00000   0.00003   0.00003   1.76851
   A12        1.76863   0.00000   0.00000   0.00003   0.00003   1.76867
    D1       -0.00114   0.00000   0.00000   0.00011   0.00011  -0.00103
    D2       -1.99980   0.00000   0.00000   0.00020   0.00020  -1.99960
    D3        1.97350   0.00000   0.00000   0.00026   0.00026   1.97376
    D4       -0.00095  -0.00000   0.00000  -0.00007  -0.00007  -0.00102
    D5        1.97390  -0.00000   0.00000   0.00004   0.00004   1.97393
    D6       -2.00007  -0.00000   0.00000   0.00014   0.00014  -1.99994
    D7        0.75286  -0.00000   0.00000   0.00104   0.00104   0.75390
    D8       -1.02566  -0.00000   0.00000   0.00100   0.00100  -1.02466
    D9        3.01224  -0.00000   0.00000   0.00083   0.00083   3.01307
   D10       -1.02965   0.00000   0.00000   0.00217   0.00217  -1.02748
   D11        0.74895   0.00000   0.00000   0.00219   0.00219   0.75114
   D12        3.00735   0.00000   0.00000   0.00222   0.00222   3.00957
   D13        0.00588  -0.00000   0.00000  -0.00019  -0.00019   0.00569
   D14       -0.00891   0.00000   0.00000   0.00018   0.00018  -0.00873
   D15        0.00571   0.00000   0.00000  -0.00004  -0.00004   0.00568
         Item               Value     Threshold  Converged?
 Maximum Force            0.000004     0.000450     YES
 RMS     Force            0.000001     0.000300     YES
 Maximum Displacement     0.002386     0.001800     NO 
 RMS     Displacement     0.000773     0.001200     YES
 Predicted change in Energy=-5.342905D-09
 Optimization completed on the basis of negligible forces.
    -- Stationary point found.
                           ----------------------------
                           !   Optimized Parameters   !
                           ! (Angstroms and Degrees)  !
 --------------------------                            --------------------------
 ! Name  Definition              Value          Derivative Info.                !
 --------------------------------------------------------------------------------
 ! R1    R(1,2)                  2.1664         -DE/DX =    0.0                 !
 ! R2    R(1,4)                  2.1663         -DE/DX =    0.0                 !
 ! R3    R(1,6)                  2.3256         -DE/DX =    0.0                 !
 ! R4    R(1,8)                  2.3257         -DE/DX =    0.0                 !
 ! R5    R(2,3)                  1.7156         -DE/DX =    0.0                 !
 ! R6    R(3,5)                  0.9552         -DE/DX =    0.0                 !
 ! R7    R(4,5)                  1.7158         -DE/DX =    0.0                 !
 ! R8    R(6,7)                  1.35           -DE/DX =    0.0                 !
 ! R9    R(8,9)                  1.35           -DE/DX =    0.0                 !
 ! A1    A(2,1,4)               92.9533         -DE/DX =    0.0                 !
 ! A2    A(2,1,6)              110.211          -DE/DX =    0.0                 !
 ! A3    A(2,1,8)              111.8089         -DE/DX =    0.0                 !
 ! A4    A(4,1,6)              111.7812         -DE/DX =    0.0                 !
 ! A5    A(4,1,8)              110.1942         -DE/DX =    0.0                 !
 ! A6    A(6,1,8)              117.2934         -DE/DX =    0.0                 !
 ! A7    A(1,2,3)               93.9393         -DE/DX =    0.0                 !
 ! A8    A(2,3,5)              129.5886         -DE/DX =    0.0                 !
 ! A9    A(1,4,5)               93.9417         -DE/DX =    0.0                 !
 ! A10   A(3,5,4)              129.5759         -DE/DX =    0.0                 !
 ! A11   A(1,6,7)              101.3263         -DE/DX =    0.0                 !
 ! A12   A(1,8,9)              101.3352         -DE/DX =    0.0                 !
 ! D1    D(4,1,2,3)             -0.0653         -DE/DX =    0.0                 !
 ! D2    D(6,1,2,3)           -114.5801         -DE/DX =    0.0                 !
 ! D3    D(8,1,2,3)            113.0731         -DE/DX =    0.0                 !
 ! D4    D(2,1,4,5)             -0.0546         -DE/DX =    0.0                 !
 ! D5    D(6,1,4,5)            113.096          -DE/DX =    0.0                 !
 ! D6    D(8,1,4,5)           -114.5958         -DE/DX =    0.0                 !
 ! D7    D(2,1,6,7)             43.1356         -DE/DX =    0.0                 !
 ! D8    D(4,1,6,7)            -58.766          -DE/DX =    0.0                 !
 ! D9    D(8,1,6,7)            172.5886         -DE/DX =    0.0                 !
 ! D10   D(2,1,8,9)            -58.9944         -DE/DX =    0.0                 !
 ! D11   D(4,1,8,9)             42.9118         -DE/DX =    0.0                 !
 ! D12   D(6,1,8,9)            172.3085         -DE/DX =    0.0                 !
 ! D13   D(1,2,3,5)              0.3371         -DE/DX =    0.0                 !
 ! D14   D(2,3,5,4)             -0.5103         -DE/DX =    0.0                 !
 ! D15   D(1,4,5,3)              0.3274         -DE/DX =    0.0                 !
 --------------------------------------------------------------------------------
 GradGradGradGradGradGradGradGradGradGradGradGradGradGradGradGradGradGrad


 ----------------------------------------------------------------------

 Electric dipole moment (input orientation):
 (Debye = 10**-18 statcoulomb cm , SI units = C m)
                  (au)            (Debye)         (10**-30 SI)
   Tot        0.267463D+00      0.679824D+00      0.226765D+01
   x         -0.194920D+00     -0.495438D+00     -0.165260D+01
   y         -0.116661D+00     -0.296523D+00     -0.989096D+00
   z          0.141184D+00      0.358854D+00      0.119701D+01

 Dipole polarizability, Alpha (input orientation).
 (esu units = cm**3 , SI units = C**2 m**2 J**-1)
 Alpha(0;0):
               (au)            (10**-24 esu)      (10**-40 SI)
   iso        0.124210D+03      0.184061D+02      0.204795D+02
   aniso      0.259845D+02      0.385050D+01      0.428426D+01
   xx         0.128352D+03      0.190198D+02      0.211624D+02
   yx         0.139039D+01      0.206034D+00      0.229244D+00
   yy         0.128200D+03      0.189973D+02      0.211374D+02
   zx        -0.117865D+02     -0.174657D+01     -0.194333D+01
   zy        -0.588321D+01     -0.871802D+00     -0.970011D+00
   zz         0.116079D+03      0.172011D+02      0.191388D+02

 ----------------------------------------------------------------------

 Dipole orientation:
    42          2.93330695          0.47589646         -4.28429508
    16          0.09380968         -0.45445974         -1.48566326
     1          2.04178921          0.17909460          1.02718187
    16          5.73570706          1.39306143         -1.44461506
     1          3.75509134          0.74726069          1.03988508
    16          1.70682474          4.02316254         -6.57050760
     1          0.82045612          5.53326804         -4.71509609
    16          4.19171529         -3.05972912         -6.57132822
     1          5.06342959         -4.57481917         -4.71301954

 Electric dipole moment (dipole orientation):
 (Debye = 10**-18 statcoulomb cm , SI units = C m)
                  (au)            (Debye)         (10**-30 SI)
   Tot        0.267463D+00      0.679824D+00      0.226765D+01
   x          0.000000D+00      0.000000D+00      0.000000D+00
   y          0.000000D+00      0.000000D+00      0.000000D+00
   z          0.267463D+00      0.679824D+00      0.226765D+01

 Dipole polarizability, Alpha (dipole orientation).
 (esu units = cm**3 , SI units = C**2 m**2 J**-1)
 Alpha(0;0):
               (au)            (10**-24 esu)      (10**-40 SI)
   iso        0.124210D+03      0.184061D+02      0.204795D+02
   aniso      0.259845D+02      0.385050D+01      0.428426D+01
   xx         0.112026D+03      0.166005D+02      0.184706D+02
   yx        -0.780598D+01     -0.115673D+01     -0.128703D+01
   yy         0.123040D+03      0.182327D+02      0.202866D+02
   zx        -0.202703D+00     -0.300374D-01     -0.334211D-01
   zy        -0.874016D-01     -0.129516D-01     -0.144106D-01
   zz         0.137565D+03      0.203850D+02      0.226813D+02

 ----------------------------------------------------------------------
 Unable to Open any file for archive entry.
 1\1\GINC-NODE17-IB\Freq\RB3LYP\Gen\H4Mo1S4\CHESAGAR\17-Oct-2022\0\\#N 
 Geom=AllCheck Guess=TCheck SCRF=Check GenChk RB3LYP/ChkBas Freq\\Title
  Card Required\\0,1\Mo,2.6125001073,0.8864084679,0.0443281444\S,0.6553
 659905,0.1220410984,-0.4837134165\H,0.2890294908,-0.3789098897,1.11567
 99432\S,2.3838639934,0.3473431196,2.1299862675\H,0.8130551151,-0.30724
 74643,1.9111046642\S,2.6802242582,3.1925219787,-0.2485185443\H,1.49243
 00605,3.5614587123,0.2764860298\S,4.3181888415,-0.3622544594,-0.925285
 4932\H,4.0692761428,-1.5890685635,-0.4197265951\\Version=ES64L-G16RevC
 .01\HF=-1662.7528502\RMSD=3.121e-09\RMSF=1.981e-06\ZeroPoint=0.0337125
 \Thermal=0.0427457\ETot=-1662.7101045\HTot=-1662.7091603\GTot=-1662.75
 5406\Dipole=-0.1949202,-0.1166613,0.1411841\DipoleDeriv=1.0566794,-0.0
 860001,-0.1041979,-0.0694146,1.1570915,-0.0321944,-0.0899036,-0.055453
 4,0.9045923,-0.5372053,-0.1591253,-0.2775062,-0.1500782,-0.0215969,-0.
 0923185,-0.4520381,-0.1708277,-0.1093846,-0.0292219,-0.0313883,0.07718
 78,-0.0679473,-0.0280648,0.031147,0.2407083,0.1166603,-0.0040539,0.079
 8684,0.067801,-0.2108087,0.0443195,0.0103676,0.0712647,-0.0493523,0.17
 00336,-0.757274,-0.1093764,-0.0924711,0.2121653,-0.0668571,-0.0354674,
 0.0769517,0.040113,0.0067435,0.0826514,0.0321727,-0.0355456,-0.0621766
 ,-0.0003871,-1.0186202,0.1324364,-0.0897241,0.1323045,-0.1025181,0.033
 9086,-0.0183151,0.061322,-0.0823941,0.1084273,0.0442503,0.0843066,0.00
 97076,0.1169092,-0.6009269,0.4399745,0.2179721,0.4115939,-0.2643766,-0
 .2624371,0.2514127,-0.2715488,-0.2237059,0.0741013,-0.0849299,0.086042
 3,-0.018835,0.0922394,0.0309,0.0644774,0.0623804,0.0927836\Polar=128.3
 518324,1.3903885,128.2003907,-11.7864645,-5.8832135,116.0787181\Quadru
 pole=-1.7679899,3.7734801,-2.0054902,-3.7307071,-0.3137843,0.4310057\P
 G=C01 [X(H4Mo1S4)]\NImag=1\\0.32531159,0.03261755,0.28097660,-0.032937
 20,-0.02728209,0.29931336,-0.16129975,-0.04960345,-0.05586804,0.172449
 23,-0.05335463,-0.04544170,-0.02300130,0.05275547,0.04500357,-0.032847
 71,-0.01196861,-0.03760164,0.06407669,0.01474713,0.08968425,-0.0135017
 1,-0.00748907,-0.00067876,-0.00976159,-0.00041713,0.00872055,0.0620541
 7,-0.01530932,-0.00480630,0.00484192,0.00690105,-0.00905170,-0.0006082
 3,0.01340633,0.02868095,0.03860646,0.02180283,-0.01914300,-0.02779841,
 -0.01677852,0.00970385,0.01576661,0.00963530,0.01081366,-0.02424552,-0
 .00334464,0.02216723,-0.01793111,-0.01067642,-0.00145144,-0.02430264,0
 .00124255,-0.06087702,0.05519502,0.00044399,-0.03450544,0.04345407,-0.
 00995618,0.00150858,0.00583441,-0.01144101,0.00170292,-0.02855578,0.00
 998716,0.03570189,-0.00082149,0.03240456,-0.18571613,-0.00717864,0.002
 92932,-0.02342929,0.00135986,-0.00037727,0.00679879,0.01697008,-0.0326
 8732,0.21641746,-0.02944537,-0.02131845,0.03205742,0.02156869,0.017960
 06,-0.04251388,-0.01497915,-0.00658687,0.03659141,0.01175867,0.0148863
 2,-0.01899110,0.00848916,-0.01281983,-0.00589257,0.01581101,0.00535466
 ,0.00536613,-0.00997925,0.00601322,-0.01729743,0.01513002,0.00727794,-
 0.00735777,-0.00828320,-0.00627897,0.02426152,-0.00665390,-0.00212573,
 -0.00210127,0.01979623,0.01811255,-0.04273008,-0.02545188,-0.01290288,
 -0.01037718,0.01725186,0.00831345,-0.01355792,-0.00587004,-0.01198988,
 0.06884478,-0.02408446,0.00230095,0.00358007,0.00378025,-0.00547690,0.
 00392980,0.00037140,-0.00091031,-0.00043158,-0.00135924,0.00186511,-0.
 00120607,0.00097906,-0.00172960,0.00013258,0.22204166,-0.00549571,-0.1
 1941861,0.01324256,-0.01089033,-0.00335969,-0.00219422,0.00103857,-0.0
 0004385,-0.00356817,-0.00281422,-0.00081940,0.01296041,0.00386967,0.00
 032208,0.00058544,-0.05283177,0.14537526,0.00548954,0.01084944,-0.0205
 6970,-0.00002284,-0.00479404,0.00045630,0.00001777,0.00138502,-0.00056
 045,0.00116587,0.00825153,0.00316296,0.00040968,0.00032505,0.00020069,
 -0.09303796,0.00871236,0.05796803,-0.00022397,0.00125919,-0.00009423,-
 0.00003301,-0.00013875,-0.00095573,0.00000565,0.00007229,-0.00011575,0
 .00019552,-0.00139573,0.00147755,0.00024423,0.00045876,0.00008679,-0.2
 0573233,0.06277521,0.08953601,0.20550694,0.01151294,-0.00769286,-0.005
 43658,-0.00064501,0.00006685,-0.00084556,-0.00025830,0.00042498,0.0008
 3815,0.00062768,-0.00024925,0.00073947,-0.00092356,0.00047207,-0.00015
 009,0.05447634,-0.02415530,-0.02296857,-0.06310277,0.03175927,-0.00216
 538,-0.00045542,0.00102933,0.00274338,0.00237841,0.00034073,-0.0001975
 3,-0.00048946,0.00107360,-0.00068047,-0.00165697,-0.00021906,-0.000583
 20,0.00004055,-0.00003028,0.09037992,-0.02654139,-0.04284885,-0.090115
 36,0.02648374,0.04081466,-0.07355679,0.03508100,0.03470770,-0.00890861
 ,-0.00028294,0.00256161,-0.00012188,0.00141714,-0.00172215,0.00135091,
 -0.00427035,0.00523914,0.00073443,0.00199498,0.00085874,0.00540803,0.0
 0601439,-0.00449583,-0.00012029,-0.00226118,0.00055506,0.09152555,0.04
 131916,-0.05436328,-0.02251659,0.00651721,0.00616622,0.00533018,-0.000
 79090,-0.00018427,0.00232641,-0.00164044,0.00371588,-0.00903230,-0.002
 46394,-0.00052982,-0.00013903,0.00161247,0.00126759,-0.00113519,0.0000
 1536,-0.00038395,0.00006917,0.00343725,0.25944005,0.03143569,-0.017967
 04,-0.03613935,0.00199877,0.00707156,0.00374222,0.00081215,-0.00216539
 ,0.00182641,0.00688693,-0.00253041,-0.00418843,-0.00170363,-0.00156598
 ,-0.00046397,-0.00382440,-0.00386192,0.00271069,0.00003603,0.00148540,
 -0.00058277,-0.05772989,-0.06711433,0.07474728,0.00104598,0.01049693,-
 0.00293419,0.00013589,-0.00036876,-0.00151988,0.00023574,-0.00023286,-
 0.00001957,-0.00066160,-0.00011931,0.00315066,0.00065026,-0.00027117,-
 0.00015038,-0.00140437,-0.00166582,0.00093777,0.00015726,0.00057387,0.
 00006358,-0.01631135,-0.04800618,0.02208837,0.01615218,0.00108587,-0.0
 0885585,0.00088700,-0.00043343,-0.00025827,-0.00031585,-0.00006172,0.0
 0057469,-0.00083025,-0.00065960,0.00030259,0.00134633,0.00085575,0.000
 65580,0.00029619,0.00069370,0.00083190,-0.00062560,0.00005643,-0.00024
 182,0.00017137,-0.04113029,-0.21512842,0.08664811,0.03959329,0.2221193
 9,-0.00010601,-0.00525794,0.00092839,0.00225287,-0.00066512,-0.0001663
 5,-0.00034876,0.00068100,-0.00013569,-0.00143302,-0.00042298,0.0007316
 1,0.00060333,0.00051170,0.00021523,0.00047764,0.00066494,-0.00051966,0
 .00014469,-0.00014595,0.00042263,0.02002564,0.09221167,-0.04165209,-0.
 02161637,-0.08757731,0.04017592\\-0.00000169,0.00000022,0.00000166,0.0
 0000157,0.00000427,-0.00000190,-0.00000096,-0.00000354,0.00000034,-0.0
 0000226,0.00000204,-0.00000120,-0.00000296,-0.00000082,-0.00000143,0.0
 0000144,0.00000018,-0.00000112,-0.00000009,-0.00000064,0.00000103,0.00
 000272,-0.00000325,-0.00000053,0.00000224,0.00000153,0.00000314\\\@
 The archive entry for this job was punched.


 ERROR IS THE FORCE THAT WELDS MEN TOGETHER....
 TRUTH IS COMMUNICATED TO MEN ONLY BY DEEDS OF TRUTH.
           TOLSTOI,MY RELIGION
 Job cpu time:       0 days  0 hours  6 minutes 48.4 seconds.
 Elapsed time:       0 days  0 hours  0 minutes  9.8 seconds.
 File lengths (MBytes):  RWF=     97 Int=      0 D2E=      0 Chk=      3 Scr=      2
 Normal termination of Gaussian 16 at Mon Oct 17 12:32:07 2022.
