 Entering Gaussian System, Link 0=/apps/GAU16/avx2/g16/g16
 Initial command:
 /apps/GAU16/avx2//g16/l1.exe "/localscratch/chegho/Gau-56687.inp" -scrdir="/localscratch/chegho/"
 Entering Link 1 = /apps/GAU16/avx2//g16/l1.exe PID=     56689.
  
 Copyright (c) 1988-2019, Gaussian, Inc.  All Rights Reserved.
  
 This is part of the Gaussian(R) 16 program.  It is based on
 the Gaussian(R) 09 system (copyright 2009, Gaussian, Inc.),
 the Gaussian(R) 03 system (copyright 2003, Gaussian, Inc.),
 the Gaussian(R) 98 system (copyright 1998, Gaussian, Inc.),
 the Gaussian(R) 94 system (copyright 1995, Gaussian, Inc.),
 the Gaussian 92(TM) system (copyright 1992, Gaussian, Inc.),
 the Gaussian 90(TM) system (copyright 1990, Gaussian, Inc.),
 the Gaussian 88(TM) system (copyright 1988, Gaussian, Inc.),
 the Gaussian 86(TM) system (copyright 1986, Carnegie Mellon
 University), and the Gaussian 82(TM) system (copyright 1983,
 Carnegie Mellon University). Gaussian is a federally registered
 trademark of Gaussian, Inc.
  
 This software contains proprietary and confidential information,
 including trade secrets, belonging to Gaussian, Inc.
  
 This software is provided under written license and may be
 used, copied, transmitted, or stored only in accord with that
 written license.
  
 The following legend is applicable only to US Government
 contracts under FAR:
  
                    RESTRICTED RIGHTS LEGEND
  
 Use, reproduction and disclosure by the US Government is
 subject to restrictions as set forth in subparagraphs (a)
 and (c) of the Commercial Computer Software - Restricted
 Rights clause in FAR 52.227-19.
  
 Gaussian, Inc.
 340 Quinnipiac St., Bldg. 40, Wallingford CT 06492
  
  
 ---------------------------------------------------------------
 Warning -- This program may not be used in any manner that
 competes with the business of Gaussian, Inc. or will provide
 assistance to any competitor of Gaussian, Inc.  The licensee
 of this program is prohibited from giving any competitor of
 Gaussian, Inc. access to this program.  By using this program,
 the user acknowledges that Gaussian, Inc. is engaged in the
 business of creating and licensing software in the field of
 computational chemistry and represents and warrants to the
 licensee that it is not a competitor of Gaussian, Inc. and that
 it will not use this program in any manner prohibited above.
 ---------------------------------------------------------------
  

 Cite this work as:
 Gaussian 16, Revision C.01,
 M. J. Frisch, G. W. Trucks, H. B. Schlegel, G. E. Scuseria, 
 M. A. Robb, J. R. Cheeseman, G. Scalmani, V. Barone, 
 G. A. Petersson, H. Nakatsuji, X. Li, M. Caricato, A. V. Marenich, 
 J. Bloino, B. G. Janesko, R. Gomperts, B. Mennucci, H. P. Hratchian, 
 J. V. Ortiz, A. F. Izmaylov, J. L. Sonnenberg, D. Williams-Young, 
 F. Ding, F. Lipparini, F. Egidi, J. Goings, B. Peng, A. Petrone, 
 T. Henderson, D. Ranasinghe, V. G. Zakrzewski, J. Gao, N. Rega, 
 G. Zheng, W. Liang, M. Hada, M. Ehara, K. Toyota, R. Fukuda, 
 J. Hasegawa, M. Ishida, T. Nakajima, Y. Honda, O. Kitao, H. Nakai, 
 T. Vreven, K. Throssell, J. A. Montgomery, Jr., J. E. Peralta, 
 F. Ogliaro, M. J. Bearpark, J. J. Heyd, E. N. Brothers, K. N. Kudin, 
 V. N. Staroverov, T. A. Keith, R. Kobayashi, J. Normand, 
 K. Raghavachari, A. P. Rendell, J. C. Burant, S. S. Iyengar, 
 J. Tomasi, M. Cossi, J. M. Millam, M. Klene, C. Adamo, R. Cammi, 
 J. W. Ochterski, R. L. Martin, K. Morokuma, O. Farkas, 
 J. B. Foresman, and D. J. Fox, Gaussian, Inc., Wallingford CT, 2019.
 
 ******************************************
 Gaussian 16:  ES64L-G16RevC.01  3-Jul-2019
                24-Oct-2022 
 ******************************************
 %nprocshared=48
 Will use up to   48 processors via shared memory.
 %chk=MoSH2S2_MoCO_S-end_H2S_2_ts.chk
 %mem=100GB
 -----------------------------------------------------------
 # opt=(calcfc,ts,noeigen) freq b3lyp/gen nosymm pseudo=read
 -----------------------------------------------------------
 1/5=1,10=4,11=1,18=20,26=3,38=1/1,3;
 2/9=110,12=2,15=1,17=6,18=5,40=1/2;
 3/5=7,11=2,16=1,17=8,25=1,30=1,71=2,74=-5,140=1/1,2,3;
 4//1;
 5/5=2,38=5/2;
 8/6=4,10=90,11=11/1;
 11/6=1,8=1,9=11,15=111,16=1,31=1/1,2,10;
 10/6=1,13=1,31=1/2;
 6/7=2,8=2,9=2,10=2,28=1/1;
 7/10=1,25=1,30=1/1,2,3,16;
 1/5=1,10=4,11=1,18=20,26=3/3(2);
 2/9=110,15=1/2;
 99//99;
 2/9=110,15=1/2;
 3/5=7,6=1,11=2,16=1,17=8,25=1,30=1,71=1,74=-5,82=7/1,2,3;
 4/5=5,16=3,69=1/1;
 5/5=2,38=5/2;
 7/30=1/1,2,3,16;
 1/5=1,11=1,18=20,26=3/3(-5);
 2/9=110,15=1/2;
 6/7=2,8=2,9=2,10=2,19=2,28=1/1;
 99/9=1/99;
 -------------------
 Title Card Required
 -------------------
 Symbolic Z-matrix:
 Charge =  0 Multiplicity = 1
 42                    0.13352   2.36883   11.45227 
 16                    1.90452   3.77972   10.93476 
 16                   -1.7353    3.50932   11.11124 
 16                    0.12897   0.52403   10.20381 
 16                   -0.00845   1.76223   13.69492 
 1                     0.99482   0.85151   13.69484 
 1                     2.80396   2.818     10.62053 
 42                   -1.85517   1.69715   9.51891 
 6                    -1.0017    2.68594   8.10026 
 8                    -0.43148   3.2919    7.28605 
 16                   -4.06555   2.56108   8.87082 
 1                    -4.19336   1.26613   7.77452 
 1                    -5.        1.88135   9.58618 
 16                   -2.33542  -0.10519   7.92815 
 1                    -3.11639  -1.02362   8.56234 
 1                    -3.79397   0.6719    7.55838 
 
 Add virtual bond connecting atoms H12        and S11        Dist= 3.22D+00.
 Add virtual bond connecting atoms H16        and S14        Dist= 3.20D+00.

 GradGradGradGradGradGradGradGradGradGradGradGradGradGradGradGradGradGrad
 Berny optimization.
 Initialization pass.
                           ----------------------------
                           !    Initial Parameters    !
                           ! (Angstroms and Degrees)  !
 --------------------------                            --------------------------
 ! Name  Definition              Value          Derivative Info.                !
 --------------------------------------------------------------------------------
 ! R1    R(1,2)                  2.3227         calculate D2E/DX2 analytically  !
 ! R2    R(1,3)                  2.2157         calculate D2E/DX2 analytically  !
 ! R3    R(1,4)                  2.2275         calculate D2E/DX2 analytically  !
 ! R4    R(1,5)                  2.3276         calculate D2E/DX2 analytically  !
 ! R5    R(1,8)                  2.8538         calculate D2E/DX2 analytically  !
 ! R6    R(2,7)                  1.3538         calculate D2E/DX2 analytically  !
 ! R7    R(3,8)                  2.4153         calculate D2E/DX2 analytically  !
 ! R8    R(4,8)                  2.4046         calculate D2E/DX2 analytically  !
 ! R9    R(5,6)                  1.355          calculate D2E/DX2 analytically  !
 ! R10   R(8,9)                  1.9284         calculate D2E/DX2 analytically  !
 ! R11   R(8,11)                 2.4601         calculate D2E/DX2 analytically  !
 ! R12   R(8,14)                 2.4515         calculate D2E/DX2 analytically  !
 ! R13   R(9,10)                 1.1642         calculate D2E/DX2 analytically  !
 ! R14   R(11,12)                1.7015         calculate D2E/DX2 analytically  !
 ! R15   R(11,13)                1.359          calculate D2E/DX2 analytically  !
 ! R16   R(12,16)                0.7479         calculate D2E/DX2 analytically  !
 ! R17   R(14,15)                1.3622         calculate D2E/DX2 analytically  !
 ! R18   R(14,16)                1.6935         calculate D2E/DX2 analytically  !
 ! A1    A(2,1,3)              107.2261         calculate D2E/DX2 analytically  !
 ! A2    A(2,1,4)              112.3181         calculate D2E/DX2 analytically  !
 ! A3    A(2,1,5)              114.8025         calculate D2E/DX2 analytically  !
 ! A4    A(2,1,8)              121.5586         calculate D2E/DX2 analytically  !
 ! A5    A(3,1,4)              109.7729         calculate D2E/DX2 analytically  !
 ! A6    A(3,1,5)              103.3557         calculate D2E/DX2 analytically  !
 ! A7    A(4,1,5)              108.9086         calculate D2E/DX2 analytically  !
 ! A8    A(5,1,8)              123.2927         calculate D2E/DX2 analytically  !
 ! A9    A(1,2,7)               97.2835         calculate D2E/DX2 analytically  !
 ! A10   A(1,5,6)               97.4663         calculate D2E/DX2 analytically  !
 ! A11   A(1,8,9)               93.9731         calculate D2E/DX2 analytically  !
 ! A12   A(1,8,11)             136.2154         calculate D2E/DX2 analytically  !
 ! A13   A(1,8,14)             138.5198         calculate D2E/DX2 analytically  !
 ! A14   A(3,8,4)               97.8921         calculate D2E/DX2 analytically  !
 ! A15   A(3,8,9)               94.4922         calculate D2E/DX2 analytically  !
 ! A16   A(3,8,11)              87.4087         calculate D2E/DX2 analytically  !
 ! A17   A(4,8,9)               95.4223         calculate D2E/DX2 analytically  !
 ! A18   A(4,8,14)              89.3004         calculate D2E/DX2 analytically  !
 ! A19   A(9,8,11)              91.3632         calculate D2E/DX2 analytically  !
 ! A20   A(9,8,14)              89.2156         calculate D2E/DX2 analytically  !
 ! A21   A(11,8,14)             84.9068         calculate D2E/DX2 analytically  !
 ! A22   A(8,11,12)             88.2786         calculate D2E/DX2 analytically  !
 ! A23   A(8,11,13)            107.6666         calculate D2E/DX2 analytically  !
 ! A24   A(12,11,13)            84.6552         calculate D2E/DX2 analytically  !
 ! A25   A(11,12,16)           138.659          calculate D2E/DX2 analytically  !
 ! A26   A(8,14,15)            107.8127         calculate D2E/DX2 analytically  !
 ! A27   A(8,14,16)             88.4553         calculate D2E/DX2 analytically  !
 ! A28   A(15,14,16)            85.2542         calculate D2E/DX2 analytically  !
 ! A29   A(12,16,14)           139.5895         calculate D2E/DX2 analytically  !
 ! A30   L(3,8,14,4,-1)        187.1925         calculate D2E/DX2 analytically  !
 ! A31   L(4,8,11,3,-1)        185.3008         calculate D2E/DX2 analytically  !
 ! A32   L(8,9,10,2,-1)        176.6115         calculate D2E/DX2 analytically  !
 ! A33   L(3,8,14,4,-2)        175.542          calculate D2E/DX2 analytically  !
 ! A34   L(4,8,11,3,-2)        187.2835         calculate D2E/DX2 analytically  !
 ! A35   L(8,9,10,2,-2)        179.4019         calculate D2E/DX2 analytically  !
 ! D1    D(3,1,2,7)           -154.1692         calculate D2E/DX2 analytically  !
 ! D2    D(4,1,2,7)            -33.4963         calculate D2E/DX2 analytically  !
 ! D3    D(5,1,2,7)             91.6449         calculate D2E/DX2 analytically  !
 ! D4    D(8,1,2,7)            -94.8994         calculate D2E/DX2 analytically  !
 ! D5    D(2,1,5,6)            -76.4547         calculate D2E/DX2 analytically  !
 ! D6    D(3,1,5,6)            167.1209         calculate D2E/DX2 analytically  !
 ! D7    D(4,1,5,6)             50.4507         calculate D2E/DX2 analytically  !
 ! D8    D(8,1,5,6)            110.2173         calculate D2E/DX2 analytically  !
 ! D9    D(2,1,8,9)              2.714          calculate D2E/DX2 analytically  !
 ! D10   D(2,1,8,11)           -93.4245         calculate D2E/DX2 analytically  !
 ! D11   D(2,1,8,14)            96.03           calculate D2E/DX2 analytically  !
 ! D12   D(5,1,8,9)            175.6041         calculate D2E/DX2 analytically  !
 ! D13   D(5,1,8,11)            79.4656         calculate D2E/DX2 analytically  !
 ! D14   D(5,1,8,14)           -91.08           calculate D2E/DX2 analytically  !
 ! D15   D(1,8,11,12)         -175.6765         calculate D2E/DX2 analytically  !
 ! D16   D(1,8,11,13)          -91.8406         calculate D2E/DX2 analytically  !
 ! D17   D(3,8,11,12)         -178.4207         calculate D2E/DX2 analytically  !
 ! D18   D(3,8,11,13)          -94.5848         calculate D2E/DX2 analytically  !
 ! D19   D(9,8,11,12)           87.1431         calculate D2E/DX2 analytically  !
 ! D20   D(9,8,11,13)          170.979          calculate D2E/DX2 analytically  !
 ! D21   D(14,8,11,12)          -1.9476         calculate D2E/DX2 analytically  !
 ! D22   D(14,8,11,13)          81.8883         calculate D2E/DX2 analytically  !
 ! D23   D(1,8,14,15)           91.2377         calculate D2E/DX2 analytically  !
 ! D24   D(1,8,14,16)          175.752          calculate D2E/DX2 analytically  !
 ! D25   D(4,8,14,15)           90.9186         calculate D2E/DX2 analytically  !
 ! D26   D(4,8,14,16)          175.433          calculate D2E/DX2 analytically  !
 ! D27   D(9,8,14,15)         -173.6486         calculate D2E/DX2 analytically  !
 ! D28   D(9,8,14,16)          -89.1343         calculate D2E/DX2 analytically  !
 ! D29   D(11,8,14,15)         -82.2099         calculate D2E/DX2 analytically  !
 ! D30   D(11,8,14,16)           2.3045         calculate D2E/DX2 analytically  !
 ! D31   D(8,11,12,16)           0.9635         calculate D2E/DX2 analytically  !
 ! D32   D(13,11,12,16)       -106.9603         calculate D2E/DX2 analytically  !
 ! D33   D(11,12,16,14)          2.4285         calculate D2E/DX2 analytically  !
 ! D34   D(8,14,16,12)          -3.8626         calculate D2E/DX2 analytically  !
 ! D35   D(15,14,16,12)        104.1549         calculate D2E/DX2 analytically  !
 --------------------------------------------------------------------------------
 Trust Radius=3.00D-01 FncErr=1.00D-07 GrdErr=1.00D-06 EigMax=2.50D+02 EigMin=1.00D-04
 Number of steps in this run=     98 maximum allowed number of steps=    100.
 Search for a saddle point of order  1.
 GradGradGradGradGradGradGradGradGradGradGradGradGradGradGradGradGradGrad

                          Input orientation:                          
 ---------------------------------------------------------------------
 Center     Atomic      Atomic             Coordinates (Angstroms)
 Number     Number       Type             X           Y           Z
 ---------------------------------------------------------------------
      1         42           0        0.133520    2.368830   11.452269
      2         16           0        1.904516    3.779719   10.934758
      3         16           0       -1.735303    3.509320   11.111242
      4         16           0        0.128965    0.524033   10.203805
      5         16           0       -0.008447    1.762232   13.694923
      6          1           0        0.994823    0.851505   13.694836
      7          1           0        2.803956    2.817995   10.620527
      8         42           0       -1.855173    1.697154    9.518910
      9          6           0       -1.001695    2.685941    8.100262
     10          8           0       -0.431482    3.291900    7.286052
     11         16           0       -4.065550    2.561078    8.870824
     12          1           0       -4.193355    1.266125    7.774516
     13          1           0       -4.999995    1.881349    9.586176
     14         16           0       -2.335424   -0.105192    7.928145
     15          1           0       -3.116389   -1.023622    8.562335
     16          1           0       -3.793969    0.671903    7.558377
 ---------------------------------------------------------------------
                    Distance matrix (angstroms):
                    1          2          3          4          5
     1  Mo   0.000000
     2  S    2.322682   0.000000
     3  S    2.215743   3.654113   0.000000
     4  S    2.227546   3.779731   3.634677   0.000000
     5  S    2.327577   3.917677   3.565074   3.706740   0.000000
     6  H    2.841342   4.125531   4.603534   3.611682   1.354981
     7  H    2.832803   1.353753   4.617749   3.548450   4.298390
     8  Mo   2.853756   4.525148   2.415333   2.404599   4.566587
     9  C    3.553199   4.204376   3.206577   3.221356   5.756736
    10  O    4.304492   4.359806   4.047135   4.060600   6.602459
    11  S    4.932850   6.433242   3.368781   4.849778   6.353753
    12  H    5.784779   7.313639   4.712503   5.013442   7.267104
    13  H    5.483878   7.286615   3.954027   5.341348   6.466185
    14  S    4.963458   6.489171   4.853550   3.412882   6.492906
    15  H    5.515647   7.342340   5.380696   3.952465   6.615417
    16  H    5.785078   7.316502   4.991181   4.733874   7.292201
                    6          7          8          9         10
     6  H    0.000000
     7  H    4.073257   0.000000
     8  Mo   5.126008   4.917045   0.000000
     9  C    6.216952   4.566416   1.928390   0.000000
    10  O    7.004455   4.670264   3.091240   1.164159   0.000000
    11  S    7.197299   7.093489   2.460111   3.161734   4.031384
    12  H    7.882848   7.711708   2.948863   3.508373   4.300471
    13  H    7.340266   7.927726   3.150930   4.340704   5.305802
    14  S    6.727595   6.496705   2.451454   3.098206   3.946836
    15  H    6.838182   7.351507   3.147749   4.294916   5.240358
    16  H    7.785943   7.583870   2.941727   3.485223   4.271401
                   11         12         13         14         15
    11  S    0.000000
    12  H    1.701508   0.000000
    13  H    1.359024   2.076362   0.000000
    14  S    3.315264   2.314308   3.714209   0.000000
    15  H    3.721041   2.650180   3.610413   1.362210   0.000000
    16  H    2.316302   0.747880   2.651269   1.693505   2.083711
                   16
    16  H    0.000000
 Symmetry turned off by external request.
 Stoichiometry    CH6Mo2OS6
 Framework group  C1[X(CH6Mo2OS6)]
 Deg. of freedom    42
 Full point group                 C1      NOp   1
 Rotational constants (GHZ):           0.5993744           0.2452174           0.2392743
 General basis read from cards:  (5D, 7F)
 ======================================================================================================
                                       Pseudopotential Parameters
 ======================================================================================================
  Center     Atomic      Valence      Angular      Power
  Number     Number     Electrons     Momentum     of R      Exponent        Coefficient   SO-Coeffient
 ======================================================================================================
    1         42           14
                                      F and up 
                                                     0      537.9667807       -0.04694920    0.00000000
                                                     1      147.8982938      -20.20800840    0.00000000
                                                     2       45.7358898     -106.21163020    0.00000000
                                                     2       13.2911467      -41.81073680    0.00000000
                                                     2        4.7059961       -4.20541030    0.00000000
                                      S - F
                                                     0      110.2991760        2.80637170    0.00000000
                                                     1       23.2014645       44.51620120    0.00000000
                                                     2        5.3530131       82.77852270    0.00000000
                                      P - F
                                                     0       63.2901397        4.94208760    0.00000000
                                                     1       23.3315302       25.86049760    0.00000000
                                                     2       24.6759423      132.47087420    0.00000000
                                                     2        4.6493040       57.31497940    0.00000000
                                      D - F
                                                     0      104.4839977        3.00545910    0.00000000
                                                     1       66.2307245       26.36378510    0.00000000
                                                     2       39.1283176      183.38491990    0.00000000
                                                     2       13.1164437       98.44530680    0.00000000
                                                     2        3.6280263       22.49013770    0.00000000
    2         16
                                   No pseudopotential on this center.
    3         16
                                   No pseudopotential on this center.
    4         16
                                   No pseudopotential on this center.
    5         16
                                   No pseudopotential on this center.
    6          1
                                   No pseudopotential on this center.
    7          1
                                   No pseudopotential on this center.
    8         42           14
                                      F and up 
                                                     0      537.9667807       -0.04694920    0.00000000
                                                     1      147.8982938      -20.20800840    0.00000000
                                                     2       45.7358898     -106.21163020    0.00000000
                                                     2       13.2911467      -41.81073680    0.00000000
                                                     2        4.7059961       -4.20541030    0.00000000
                                      S - F
                                                     0      110.2991760        2.80637170    0.00000000
                                                     1       23.2014645       44.51620120    0.00000000
                                                     2        5.3530131       82.77852270    0.00000000
                                      P - F
                                                     0       63.2901397        4.94208760    0.00000000
                                                     1       23.3315302       25.86049760    0.00000000
                                                     2       24.6759423      132.47087420    0.00000000
                                                     2        4.6493040       57.31497940    0.00000000
                                      D - F
                                                     0      104.4839977        3.00545910    0.00000000
                                                     1       66.2307245       26.36378510    0.00000000
                                                     2       39.1283176      183.38491990    0.00000000
                                                     2       13.1164437       98.44530680    0.00000000
                                                     2        3.6280263       22.49013770    0.00000000
    9          6
                                   No pseudopotential on this center.
   10          8
                                   No pseudopotential on this center.
   11         16
                                   No pseudopotential on this center.
   12          1
                                   No pseudopotential on this center.
   13          1
                                   No pseudopotential on this center.
   14         16
                                   No pseudopotential on this center.
   15          1
                                   No pseudopotential on this center.
   16          1
                                   No pseudopotential on this center.
 ======================================================================================================
   210 basis functions,   508 primitive gaussians,   222 cartesian basis functions
    72 alpha electrons       72 beta electrons
       nuclear repulsion energy      1411.8251670697 Hartrees.
 NAtoms=   16 NActive=   16 NUniq=   16 SFac= 1.00D+00 NAtFMM=   60 NAOKFM=F Big=F
 Integral buffers will be    131072 words long.
 Raffenetti 2 integral format.
 Two-electron integral symmetry is turned off.
 One-electron integrals computed using PRISM.
   1 Symmetry operations used in ECPInt.
 ECPInt:  NShTT=    2628 NPrTT=   18044 LenC2=    2396 LenP2D=   11243.
 LDataN:  DoStor=T MaxTD1= 5 Len=  102
 NBasis=   210 RedAO= T EigKep=  1.86D-03  NBF=   210
 NBsUse=   210 1.00D-06 EigRej= -1.00D+00 NBFU=   210
 Defaulting to unpruned grid for atomic number  42.
 Defaulting to unpruned grid for atomic number  42.
 ExpMin= 2.47D-02 ExpMax= 2.19D+04 ExpMxC= 3.30D+03 IAcc=3 IRadAn=         5 AccDes= 0.00D+00
 Harris functional with IExCor=  402 and IRadAn=       5 diagonalized for initial guess.
 HarFok:  IExCor=  402 AccDes= 0.00D+00 IRadAn=         5 IDoV= 1 UseB2=F ITyADJ=14
 ICtDFT=  3500011 ScaDFX=  1.000000  1.000000  1.000000  1.000000
 Defaulting to unpruned grid for atomic number  42.
 FoFCou: FMM=F IPFlag=           0 FMFlag=      100000 FMFlg1=           0
         NFxFlg=           0 DoJE=T BraDBF=F KetDBF=T FulRan=T
         wScrn=  0.000000 ICntrl=       500 IOpCl=  0 I1Cent=   200000004 NGrid=           0
         NMat0=    1 NMatS0=      1 NMatT0=    0 NMatD0=    1 NMtDS0=    0 NMtDT0=    0
 Symmetry not used in FoFCou.
 Requested convergence on RMS density matrix=1.00D-08 within 128 cycles.
 Requested convergence on MAX density matrix=1.00D-06.
 Requested convergence on             energy=1.00D-06.
 No special actions if energy rises.
 Defaulting to unpruned grid for atomic number  42.
 Defaulting to unpruned grid for atomic number  42.
 Defaulting to unpruned grid for atomic number  42.
 Defaulting to unpruned grid for atomic number  42.
 Defaulting to unpruned grid for atomic number  42.
 Defaulting to unpruned grid for atomic number  42.
 Defaulting to unpruned grid for atomic number  42.
 Defaulting to unpruned grid for atomic number  42.
 Defaulting to unpruned grid for atomic number  42.
 Defaulting to unpruned grid for atomic number  42.
 Defaulting to unpruned grid for atomic number  42.
 Defaulting to unpruned grid for atomic number  42.
 Defaulting to unpruned grid for atomic number  42.
 Defaulting to unpruned grid for atomic number  42.
 Defaulting to unpruned grid for atomic number  42.
 Defaulting to unpruned grid for atomic number  42.
 Defaulting to unpruned grid for atomic number  42.
 Defaulting to unpruned grid for atomic number  42.
 Defaulting to unpruned grid for atomic number  42.
 Defaulting to unpruned grid for atomic number  42.
 Defaulting to unpruned grid for atomic number  42.
 Defaulting to unpruned grid for atomic number  42.
 Defaulting to unpruned grid for atomic number  42.
 Defaulting to unpruned grid for atomic number  42.
 Defaulting to unpruned grid for atomic number  42.
 Defaulting to unpruned grid for atomic number  42.
 Defaulting to unpruned grid for atomic number  42.
 Defaulting to unpruned grid for atomic number  42.
 Defaulting to unpruned grid for atomic number  42.
 Defaulting to unpruned grid for atomic number  42.
 Defaulting to unpruned grid for atomic number  42.
 Defaulting to unpruned grid for atomic number  42.
 Defaulting to unpruned grid for atomic number  42.
 Defaulting to unpruned grid for atomic number  42.
 Defaulting to unpruned grid for atomic number  42.
 Defaulting to unpruned grid for atomic number  42.
 Defaulting to unpruned grid for atomic number  42.
 Defaulting to unpruned grid for atomic number  42.
 Defaulting to unpruned grid for atomic number  42.
 Defaulting to unpruned grid for atomic number  42.
 Defaulting to unpruned grid for atomic number  42.
 Defaulting to unpruned grid for atomic number  42.
 Defaulting to unpruned grid for atomic number  42.
 Defaulting to unpruned grid for atomic number  42.
 Defaulting to unpruned grid for atomic number  42.
 Defaulting to unpruned grid for atomic number  42.
 Defaulting to unpruned grid for atomic number  42.
 Defaulting to unpruned grid for atomic number  42.
 EnCoef did     9 forward-backward iterations
 EnCoef did   100 forward-backward iterations
 EnCoef did   100 forward-backward iterations
 EnCoef did   100 forward-backward iterations
 EnCoef did     4 forward-backward iterations
 Restarting incremental Fock formation.
 SCF Done:  E(RB3LYP) =  -2641.25481799     A.U. after   25 cycles
            NFock= 25  Conv=0.38D-08     -V/T= 2.0377
 DoSCS=F DFT=T ScalE2(SS,OS)=  1.000000  1.000000
 Range of M.O.s used for correlation:     1   210
 NBasis=   210 NAE=    72 NBE=    72 NFC=     0 NFV=     0
 NROrb=    210 NOA=    72 NOB=    72 NVA=   138 NVB=   138

 **** Warning!!: The smallest alpha delta epsilon is  0.63841719D-01

   1 Symmetry operations used in ECPInt.
 ECPInt:  NShTT=    2628 NPrTT=   18044 LenC2=    2396 LenP2D=   11243.
 LDataN:  DoStor=T MaxTD1= 6 Len=  172
 Symmetrizing basis deriv contribution to polar:
 IMax=3 JMax=2 DiffMx= 0.00D+00
 G2DrvN: will do    17 centers at a time, making    1 passes.
 Calling FoFCou, ICntrl=  3107 FMM=F I1Cent=   0 AccDes= 0.00D+00.
 Defaulting to unpruned grid for atomic number  42.
 Defaulting to unpruned grid for atomic number  42.
 Defaulting to unpruned grid for atomic number  42.
 Defaulting to unpruned grid for atomic number  42.
 Defaulting to unpruned grid for atomic number  42.
 Defaulting to unpruned grid for atomic number  42.
 Defaulting to unpruned grid for atomic number  42.
 Defaulting to unpruned grid for atomic number  42.
 Defaulting to unpruned grid for atomic number  42.
 Defaulting to unpruned grid for atomic number  42.
 Defaulting to unpruned grid for atomic number  42.
 Defaulting to unpruned grid for atomic number  42.
 Defaulting to unpruned grid for atomic number  42.
 Defaulting to unpruned grid for atomic number  42.
 Defaulting to unpruned grid for atomic number  42.
 Defaulting to unpruned grid for atomic number  42.
 Defaulting to unpruned grid for atomic number  42.
 Defaulting to unpruned grid for atomic number  42.
 Defaulting to unpruned grid for atomic number  42.
 Defaulting to unpruned grid for atomic number  42.
 Defaulting to unpruned grid for atomic number  42.
 Defaulting to unpruned grid for atomic number  42.
 Defaulting to unpruned grid for atomic number  42.
 Defaulting to unpruned grid for atomic number  42.
 Defaulting to unpruned grid for atomic number  42.
 Defaulting to unpruned grid for atomic number  42.
 Defaulting to unpruned grid for atomic number  42.
 Defaulting to unpruned grid for atomic number  42.
 Defaulting to unpruned grid for atomic number  42.
 Defaulting to unpruned grid for atomic number  42.
 Defaulting to unpruned grid for atomic number  42.
 Defaulting to unpruned grid for atomic number  42.
 Defaulting to unpruned grid for atomic number  42.
 Defaulting to unpruned grid for atomic number  42.
 Defaulting to unpruned grid for atomic number  42.
 Defaulting to unpruned grid for atomic number  42.
 Defaulting to unpruned grid for atomic number  42.
 Defaulting to unpruned grid for atomic number  42.
 Defaulting to unpruned grid for atomic number  42.
 Defaulting to unpruned grid for atomic number  42.
 Defaulting to unpruned grid for atomic number  42.
 Defaulting to unpruned grid for atomic number  42.
 Defaulting to unpruned grid for atomic number  42.
 Defaulting to unpruned grid for atomic number  42.
 Defaulting to unpruned grid for atomic number  42.
 Defaulting to unpruned grid for atomic number  42.
 Defaulting to unpruned grid for atomic number  42.
 Defaulting to unpruned grid for atomic number  42.
 End of G2Drv F.D. properties file   721 does not exist.
 End of G2Drv F.D. properties file   722 does not exist.
 End of G2Drv F.D. properties file   788 does not exist.
          IDoAtm=1111111111111111
          Differentiating once with respect to nuclear coordinates.
 Defaulting to unpruned grid for atomic number  42.
 Defaulting to unpruned grid for atomic number  42.
 Keep R1 ints in memory in canonical form, NReq=295735072.
 Defaulting to unpruned grid for atomic number  42.
 Defaulting to unpruned grid for atomic number  42.
 Defaulting to unpruned grid for atomic number  42.
 Defaulting to unpruned grid for atomic number  42.
 Defaulting to unpruned grid for atomic number  42.
 Defaulting to unpruned grid for atomic number  42.
 Defaulting to unpruned grid for atomic number  42.
 Defaulting to unpruned grid for atomic number  42.
 Defaulting to unpruned grid for atomic number  42.
 Defaulting to unpruned grid for atomic number  42.
 Defaulting to unpruned grid for atomic number  42.
 Defaulting to unpruned grid for atomic number  42.
 Defaulting to unpruned grid for atomic number  42.
 Defaulting to unpruned grid for atomic number  42.
 Defaulting to unpruned grid for atomic number  42.
 Defaulting to unpruned grid for atomic number  42.
 Defaulting to unpruned grid for atomic number  42.
 Defaulting to unpruned grid for atomic number  42.
 Defaulting to unpruned grid for atomic number  42.
 Defaulting to unpruned grid for atomic number  42.
 Defaulting to unpruned grid for atomic number  42.
 Defaulting to unpruned grid for atomic number  42.
 Defaulting to unpruned grid for atomic number  42.
 Defaulting to unpruned grid for atomic number  42.
 Defaulting to unpruned grid for atomic number  42.
 Defaulting to unpruned grid for atomic number  42.
 Defaulting to unpruned grid for atomic number  42.
 Defaulting to unpruned grid for atomic number  42.
 Defaulting to unpruned grid for atomic number  42.
 Defaulting to unpruned grid for atomic number  42.
 Defaulting to unpruned grid for atomic number  42.
 Defaulting to unpruned grid for atomic number  42.
 Defaulting to unpruned grid for atomic number  42.
 Defaulting to unpruned grid for atomic number  42.
 Defaulting to unpruned grid for atomic number  42.
 Defaulting to unpruned grid for atomic number  42.
 Defaulting to unpruned grid for atomic number  42.
 Defaulting to unpruned grid for atomic number  42.
 Defaulting to unpruned grid for atomic number  42.
 Defaulting to unpruned grid for atomic number  42.
 Defaulting to unpruned grid for atomic number  42.
 Defaulting to unpruned grid for atomic number  42.
 Defaulting to unpruned grid for atomic number  42.
 Defaulting to unpruned grid for atomic number  42.
 Defaulting to unpruned grid for atomic number  42.
 Defaulting to unpruned grid for atomic number  42.
 Defaulting to unpruned grid for atomic number  42.
 Defaulting to unpruned grid for atomic number  42.
          There are    51 degrees of freedom in the 1st order CPHF.  IDoFFX=6 NUNeed=     0.
     45 vectors produced by pass  0 Test12= 1.95D-14 1.96D-09 XBig12= 1.98D-01 1.45D-01.
 AX will form    45 AO Fock derivatives at one time.
     45 vectors produced by pass  1 Test12= 1.95D-14 1.96D-09 XBig12= 1.90D-01 1.70D-01.
     45 vectors produced by pass  2 Test12= 1.95D-14 1.96D-09 XBig12= 1.07D-02 2.67D-02.
     45 vectors produced by pass  3 Test12= 1.95D-14 1.96D-09 XBig12= 3.65D-04 2.55D-03.
     45 vectors produced by pass  4 Test12= 1.95D-14 1.96D-09 XBig12= 2.59D-06 2.42D-04.
     45 vectors produced by pass  5 Test12= 1.95D-14 1.96D-09 XBig12= 1.03D-08 1.43D-05.
     41 vectors produced by pass  6 Test12= 1.95D-14 1.96D-09 XBig12= 3.08D-11 7.67D-07.
     16 vectors produced by pass  7 Test12= 1.95D-14 1.96D-09 XBig12= 6.43D-14 2.92D-08.
 InvSVY:  IOpt=1 It=  1 EMax= 3.61D-16
 Solved reduced A of dimension   327 with    51 vectors.
 End of Minotr F.D. properties file   721 does not exist.
 End of Minotr F.D. properties file   722 does not exist.
 End of Minotr F.D. properties file   788 does not exist.

 **********************************************************************

            Population analysis using the SCF Density.

 **********************************************************************

 Alpha  occ. eigenvalues --  -88.90666 -88.90603 -88.88453 -88.87934 -88.87716
 Alpha  occ. eigenvalues --  -88.87681 -19.20809 -10.28845  -7.98189  -7.98130
 Alpha  occ. eigenvalues --   -7.96201  -7.95725  -7.95592  -7.95548  -5.94396
 Alpha  occ. eigenvalues --   -5.94333  -5.94296  -5.94239  -5.93763  -5.93703
 Alpha  occ. eigenvalues --   -5.92215  -5.92166  -5.92069  -5.91849  -5.91816
 Alpha  occ. eigenvalues --   -5.91721  -5.91702  -5.91594  -5.91483  -5.91443
 Alpha  occ. eigenvalues --   -5.91263  -5.91208  -2.54188  -2.48750  -1.57282
 Alpha  occ. eigenvalues --   -1.56422  -1.55906  -1.51683  -1.51417  -1.50593
 Alpha  occ. eigenvalues --   -1.10766  -0.77630  -0.74752  -0.73666  -0.73020
 Alpha  occ. eigenvalues --   -0.70721  -0.70155  -0.55041  -0.53515  -0.45271
 Alpha  occ. eigenvalues --   -0.44441  -0.43865  -0.43138  -0.42934  -0.42637
 Alpha  occ. eigenvalues --   -0.42456  -0.37771  -0.36397  -0.36297  -0.35511
 Alpha  occ. eigenvalues --   -0.33954  -0.33153  -0.32792  -0.32589  -0.32068
 Alpha  occ. eigenvalues --   -0.30783  -0.30007  -0.28686  -0.26644  -0.24460
 Alpha  occ. eigenvalues --   -0.22168  -0.21203
 Alpha virt. eigenvalues --   -0.14819  -0.13235  -0.11131  -0.10429  -0.09532
 Alpha virt. eigenvalues --   -0.05671  -0.05317  -0.02703  -0.01823  -0.00994
 Alpha virt. eigenvalues --    0.00136   0.01112   0.01296   0.02320   0.03646
 Alpha virt. eigenvalues --    0.04332   0.05105   0.05555   0.07093   0.07525
 Alpha virt. eigenvalues --    0.07864   0.12305   0.16190   0.18378   0.18976
 Alpha virt. eigenvalues --    0.20167   0.21733   0.24210   0.24520   0.27422
 Alpha virt. eigenvalues --    0.28893   0.29282   0.30053   0.30641   0.31313
 Alpha virt. eigenvalues --    0.33602   0.33691   0.34107   0.34861   0.35492
 Alpha virt. eigenvalues --    0.36324   0.37760   0.38266   0.38855   0.39597
 Alpha virt. eigenvalues --    0.39910   0.40992   0.41341   0.42755   0.43399
 Alpha virt. eigenvalues --    0.44054   0.44863   0.50231   0.50608   0.52677
 Alpha virt. eigenvalues --    0.55225   0.56066   0.58916   0.60192   0.61725
 Alpha virt. eigenvalues --    0.62595   0.64060   0.67508   0.67718   0.68192
 Alpha virt. eigenvalues --    0.68731   0.69502   0.70412   0.71059   0.71883
 Alpha virt. eigenvalues --    0.73291   0.74646   0.74812   0.75690   0.75855
 Alpha virt. eigenvalues --    0.77192   0.77988   0.78734   0.79189   0.81173
 Alpha virt. eigenvalues --    0.81650   0.83659   0.84914   0.85684   0.89173
 Alpha virt. eigenvalues --    0.89969   0.90461   0.91827   0.92399   0.94481
 Alpha virt. eigenvalues --    0.95674   0.96449   0.97431   0.98929   1.00664
 Alpha virt. eigenvalues --    1.01756   1.02601   1.03282   1.07077   1.09779
 Alpha virt. eigenvalues --    1.10503   1.11665   1.12515   1.14599   1.15737
 Alpha virt. eigenvalues --    1.16402   1.25254   1.53401   1.57653   1.59338
 Alpha virt. eigenvalues --    1.59683   1.68856   1.71777   1.86774   1.96323
 Alpha virt. eigenvalues --    1.98950   2.05061   2.06414   2.06513   2.06627
 Alpha virt. eigenvalues --    2.06854   2.08255   2.09355   2.10213   2.41012
 Alpha virt. eigenvalues --    2.45242   2.54907   2.58817   2.59281   2.69932
 Alpha virt. eigenvalues --    2.70848   2.71052   2.71325   2.79196   2.99093
 Alpha virt. eigenvalues --    4.06717   6.56565  10.61553
          Condensed to atoms (all electrons):
               1          2          3          4          5          6
     1  Mo  12.909080   0.275845   0.309084   0.301390   0.277594  -0.023752
     2  S    0.275845  15.575684   0.008264  -0.000098   0.013922  -0.000423
     3  S    0.309084   0.008264  15.572054  -0.025974   0.000603  -0.000008
     4  S    0.301390  -0.000098  -0.025974  15.606783  -0.002386  -0.000612
     5  S    0.277594   0.013922   0.000603  -0.002386  15.597892   0.250151
     6  H   -0.023752  -0.000423  -0.000008  -0.000612   0.250151   0.683807
     7  H   -0.026047   0.256952  -0.000216  -0.001743   0.000071  -0.000215
     8  Mo  -0.160482  -0.003662   0.164717   0.178000  -0.010239   0.001744
     9  C   -0.023327   0.000409  -0.008798  -0.008747  -0.000058   0.000000
    10  O    0.006684  -0.000562  -0.000006   0.000080   0.000000   0.000000
    11  S   -0.013532   0.000008  -0.003718  -0.008041  -0.000028  -0.000000
    12  H   -0.000025  -0.000000   0.000364   0.000330  -0.000000   0.000000
    13  H   -0.000546  -0.000000  -0.001176   0.000127   0.000002   0.000000
    14  S   -0.015111   0.000001  -0.007913   0.000915  -0.000018   0.000001
    15  H   -0.000026  -0.000000   0.000112  -0.001376   0.000001  -0.000000
    16  H   -0.000217  -0.000000   0.000329   0.000383  -0.000000  -0.000000
               7          8          9         10         11         12
     1  Mo  -0.026047  -0.160482  -0.023327   0.006684  -0.013532  -0.000025
     2  S    0.256952  -0.003662   0.000409  -0.000562   0.000008  -0.000000
     3  S   -0.000216   0.164717  -0.008798  -0.000006  -0.003718   0.000364
     4  S   -0.001743   0.178000  -0.008747   0.000080  -0.008041   0.000330
     5  S    0.000071  -0.010239  -0.000058   0.000000  -0.000028  -0.000000
     6  H   -0.000215   0.001744   0.000000   0.000000  -0.000000   0.000000
     7  H    0.674081   0.001336  -0.000007  -0.000014  -0.000000   0.000000
     8  Mo   0.001336  13.642875   0.255272  -0.019522   0.233393  -0.056660
     9  C   -0.000007   0.255272   4.910847   0.596279  -0.001993  -0.000596
    10  O   -0.000014  -0.019522   0.596279   7.678285   0.000202   0.000039
    11  S   -0.000000   0.233393  -0.001993   0.000202  15.584652   0.153149
    12  H    0.000000  -0.056660  -0.000596   0.000039   0.153149   0.786604
    13  H   -0.000000  -0.024917   0.000259  -0.000003   0.239914  -0.018668
    14  S    0.000001   0.223560  -0.004119   0.000465  -0.088751  -0.122377
    15  H    0.000000  -0.024658   0.000357  -0.000004   0.001858  -0.000946
    16  H    0.000000  -0.057596  -0.000535   0.000039  -0.120676   0.244171
              13         14         15         16
     1  Mo  -0.000546  -0.015111  -0.000026  -0.000217
     2  S   -0.000000   0.000001  -0.000000  -0.000000
     3  S   -0.001176  -0.007913   0.000112   0.000329
     4  S    0.000127   0.000915  -0.001376   0.000383
     5  S    0.000002  -0.000018   0.000001  -0.000000
     6  H    0.000000   0.000001  -0.000000  -0.000000
     7  H   -0.000000   0.000001   0.000000   0.000000
     8  Mo  -0.024917   0.223560  -0.024658  -0.057596
     9  C    0.000259  -0.004119   0.000357  -0.000535
    10  O   -0.000003   0.000465  -0.000004   0.000039
    11  S    0.239914  -0.088751   0.001858  -0.120676
    12  H   -0.018668  -0.122377  -0.000946   0.244171
    13  H    0.717115   0.002260   0.000390  -0.001992
    14  S    0.002260  15.595226   0.237349   0.154604
    15  H    0.000390   0.237349   0.718386  -0.018393
    16  H   -0.001992   0.154604  -0.018393   0.783688
 Mulliken charges:
               1
     1  Mo   0.183388
     2  S   -0.126340
     3  S   -0.007719
     4  S   -0.039031
     5  S   -0.127506
     6  H    0.089306
     7  H    0.095801
     8  Mo  -0.343161
     9  C    0.284759
    10  O   -0.261963
    11  S    0.023563
    12  H    0.014615
    13  H    0.087237
    14  S    0.023907
    15  H    0.086949
    16  H    0.016196
 Sum of Mulliken charges =  -0.00000
 Mulliken charges with hydrogens summed into heavy atoms:
               1
     1  Mo   0.183388
     2  S   -0.030539
     3  S   -0.007719
     4  S   -0.039031
     5  S   -0.038201
     8  Mo  -0.343161
     9  C    0.284759
    10  O   -0.261963
    11  S    0.125414
    14  S    0.127052
 APT charges:
               1
     1  Mo  -0.663426
     2  S    0.031105
     3  S   -0.249312
     4  S   -0.930418
     5  S    0.590334
     6  H   -0.009092
     7  H   -0.236393
     8  Mo   2.037497
     9  C    1.724920
    10  O   -2.158986
    11  S   -1.327448
    12  H    0.322750
    13  H    1.004827
    14  S   -1.212236
    15  H    0.992489
    16  H    0.083389
 Sum of APT charges =  -0.00000
 APT charges with hydrogens summed into heavy atoms:
               1
     1  Mo  -0.663426
     2  S   -0.205288
     3  S   -0.249312
     4  S   -0.930418
     5  S    0.581242
     8  Mo   2.037497
     9  C    1.724920
    10  O   -2.158986
    11  S    0.000129
    14  S   -0.136358
 Electronic spatial extent (au):  <R**2>=          60169.0681
 Charge=             -0.0000 electrons
 Dipole moment (field-independent basis, Debye):
    X=             -1.8799    Y=             -3.4105    Z=              0.7208  Tot=              3.9605
 Quadrupole moment (field-independent basis, Debye-Ang):
   XX=           -118.7348   YY=           -153.7598   ZZ=           -132.1963
   XY=              2.5725   XZ=            -14.4970   YZ=            -33.3143
 Traceless Quadrupole moment (field-independent basis, Debye-Ang):
   XX=             16.1622   YY=            -18.8629   ZZ=              2.7007
   XY=              2.5725   XZ=            -14.4970   YZ=            -33.3143
 Octapole moment (field-independent basis, Debye-Ang**2):
  XXX=            344.6855  YYY=           -923.1306  ZZZ=          -4280.1646  XYY=            137.8207
  XXY=           -286.3682  XXZ=          -1223.5804  XZZ=             42.9916  YZZ=           -641.7007
  YYZ=          -1565.1930  XYZ=             19.5990
 Hexadecapole moment (field-independent basis, Debye-Ang**3):
 XXXX=          -2887.4769 YYYY=          -5098.2242 ZZZZ=         -91798.8258 XXXY=            642.5112
 XXXZ=           2911.7382 YYYX=            625.2564 YYYZ=          -9612.6550 ZZZX=           3234.9274
 ZZZY=         -13119.9912 XXYY=          -1412.3102 XXZZ=         -13579.0267 YYZZ=         -17288.1453
 XXYZ=          -2981.2642 YYXZ=           1155.6051 ZZXY=            336.1715
 N-N= 1.411825167070D+03 E-N=-9.052423809126D+03  KE= 2.545242481411D+03
  Exact polarizability:       0.000       0.000       0.000       0.000       0.000       0.000
 Approx polarizability:     689.190      27.676     527.083     197.878      91.568     678.842
   1 Symmetry operations used in ECPInt.
 ECPInt:  NShTT=    2628 NPrTT=   18044 LenC2=    2396 LenP2D=   11243.
 LDataN:  DoStor=T MaxTD1= 7 Len=  274
 Calling FoFJK, ICntrl=    100127 FMM=F ISym2X=0 I1Cent= 0 IOpClX= 0 NMat=1 NMatS=1 NMatT=0.
 Defaulting to unpruned grid for atomic number  42.
 Defaulting to unpruned grid for atomic number  42.
 Defaulting to unpruned grid for atomic number  42.
 Defaulting to unpruned grid for atomic number  42.
 Defaulting to unpruned grid for atomic number  42.
 Defaulting to unpruned grid for atomic number  42.
 Defaulting to unpruned grid for atomic number  42.
 Defaulting to unpruned grid for atomic number  42.
 Defaulting to unpruned grid for atomic number  42.
 Defaulting to unpruned grid for atomic number  42.
 Defaulting to unpruned grid for atomic number  42.
 Defaulting to unpruned grid for atomic number  42.
 Defaulting to unpruned grid for atomic number  42.
 Defaulting to unpruned grid for atomic number  42.
 Defaulting to unpruned grid for atomic number  42.
 Defaulting to unpruned grid for atomic number  42.
 Defaulting to unpruned grid for atomic number  42.
 Defaulting to unpruned grid for atomic number  42.
 Defaulting to unpruned grid for atomic number  42.
 Defaulting to unpruned grid for atomic number  42.
 Defaulting to unpruned grid for atomic number  42.
 Defaulting to unpruned grid for atomic number  42.
 Defaulting to unpruned grid for atomic number  42.
 Defaulting to unpruned grid for atomic number  42.
 Defaulting to unpruned grid for atomic number  42.
 Defaulting to unpruned grid for atomic number  42.
 Defaulting to unpruned grid for atomic number  42.
 Defaulting to unpruned grid for atomic number  42.
 Defaulting to unpruned grid for atomic number  42.
 Defaulting to unpruned grid for atomic number  42.
 Defaulting to unpruned grid for atomic number  42.
 Defaulting to unpruned grid for atomic number  42.
 Defaulting to unpruned grid for atomic number  42.
 Defaulting to unpruned grid for atomic number  42.
 Defaulting to unpruned grid for atomic number  42.
 Defaulting to unpruned grid for atomic number  42.
 Defaulting to unpruned grid for atomic number  42.
 Defaulting to unpruned grid for atomic number  42.
 Defaulting to unpruned grid for atomic number  42.
 Defaulting to unpruned grid for atomic number  42.
 Defaulting to unpruned grid for atomic number  42.
 Defaulting to unpruned grid for atomic number  42.
 Defaulting to unpruned grid for atomic number  42.
 Defaulting to unpruned grid for atomic number  42.
 Defaulting to unpruned grid for atomic number  42.
 Defaulting to unpruned grid for atomic number  42.
 Defaulting to unpruned grid for atomic number  42.
 Defaulting to unpruned grid for atomic number  42.
 -------------------------------------------------------------------
 Center     Atomic                   Forces (Hartrees/Bohr)
 Number     Number              X              Y              Z
 -------------------------------------------------------------------
      1       42           0.003115581    0.002638754    0.002634840
      2       16           0.000030386   -0.000222194    0.000040294
      3       16           0.002205811   -0.001541515    0.002536432
      4       16           0.000807035   -0.000409199    0.002803462
      5       16           0.000070359    0.000744559   -0.000015997
      6        1          -0.000160709   -0.000287326   -0.000187797
      7        1           0.000051213   -0.000034149   -0.000364492
      8       42          -0.004566905    0.000436379   -0.006709559
      9        6           0.001953440    0.001760455    0.000587741
     10        8          -0.000805953   -0.000543164    0.000022788
     11       16           0.000371233    0.003313033    0.006597831
     12        1          -0.044717059    0.059193903    0.015375293
     13        1           0.001216044   -0.000336703    0.000047492
     14       16           0.004756412   -0.005256530    0.004426172
     15        1           0.001245225    0.001388315   -0.000249610
     16        1           0.034427887   -0.060844616   -0.027544889
 -------------------------------------------------------------------
 Cartesian Forces:  Max     0.060844616 RMS     0.015570241
 FormGI is forming the generalized inverse of G from B-inverse, IUseBI=4.

 GradGradGradGradGradGradGradGradGradGradGradGradGradGradGradGradGradGrad
 Berny optimization.
 Internal  Forces:  Max     0.074433412 RMS     0.008460577
 Search for a saddle point.
 Step number   1 out of a maximum of   98
 All quantities printed in internal units (Hartrees-Bohrs-Radians)
 Swapping is turned off.
 Second derivative matrix not updated -- analytic derivatives used.
 ITU=  0
     Eigenvalues ---   -0.02229  -0.00243   0.00087   0.00213   0.00378
     Eigenvalues ---    0.00482   0.01105   0.01500   0.01980   0.01994
     Eigenvalues ---    0.02664   0.03146   0.03713   0.04323   0.04561
     Eigenvalues ---    0.05127   0.05328   0.05606   0.06202   0.06944
     Eigenvalues ---    0.07142   0.07280   0.08523   0.08771   0.09010
     Eigenvalues ---    0.09478   0.09662   0.11279   0.12210   0.12556
     Eigenvalues ---    0.13956   0.15355   0.16375   0.16461   0.17061
     Eigenvalues ---    0.21127   0.24202   0.24671   0.25680   0.25882
     Eigenvalues ---    0.33759   1.05762
 Eigenvectors required to have negative eigenvalues:
                          R14       R18       R5        R16       R11
   1                    0.58995   0.57768   0.25969  -0.18247  -0.15766
                          R12       A25       A29       A21       A30
   1                   -0.15308  -0.12776  -0.12089   0.11345  -0.11124
 RFO step:  Lambda0=6.582175835D-07 Lambda=-2.02515352D-02.
 Linear search not attempted -- option 19 set.
 Maximum step size (   0.300) exceeded in Quadratic search.
    -- Step size scaled by   0.732
 Iteration  1 RMS(Cart)=  0.11071239 RMS(Int)=  0.00619495
 Iteration  2 RMS(Cart)=  0.00530431 RMS(Int)=  0.00133027
 Iteration  3 RMS(Cart)=  0.00001678 RMS(Int)=  0.00133020
 Iteration  4 RMS(Cart)=  0.00000002 RMS(Int)=  0.00133020
 Variable       Old X    -DE/DX   Delta X   Delta X   Delta X     New X
                                 (Linear)    (Quad)   (Total)
    R1        4.38923  -0.00002   0.00000   0.00281   0.00281   4.39204
    R2        4.18715  -0.00222   0.00000  -0.02086  -0.02071   4.16644
    R3        4.20945  -0.00087   0.00000   0.01093   0.01075   4.22020
    R4        4.39848  -0.00031   0.00000  -0.00649  -0.00649   4.39200
    R5        5.39282   0.00534   0.00000   0.04596   0.04591   5.43873
    R6        2.55822   0.00014   0.00000  -0.00072  -0.00072   2.55750
    R7        4.56432   0.00167   0.00000   0.02430   0.02431   4.58863
    R8        4.54403   0.00218   0.00000   0.00410   0.00418   4.54821
    R9        2.56054   0.00007   0.00000   0.00125   0.00125   2.56179
   R10        3.64413   0.00068   0.00000  -0.00171  -0.00171   3.64242
   R11        4.64894   0.00408   0.00000  -0.01883  -0.01984   4.62910
   R12        4.63258   0.00503   0.00000   0.01737   0.01635   4.64893
   R13        2.19994  -0.00069   0.00000   0.00081   0.00081   2.20075
   R14        3.21538   0.00438   0.00000  -0.03393  -0.03281   3.18257
   R15        2.56818  -0.00064   0.00000  -0.00210  -0.00210   2.56608
   R16        1.41329   0.07443   0.00000   0.17420   0.17571   1.58900
   R17        2.57420  -0.00177   0.00000  -0.00375  -0.00375   2.57045
   R18        3.20026   0.00505   0.00000  -0.03640  -0.03531   3.16495
    A1        1.87145   0.00091   0.00000   0.00720   0.00705   1.87849
    A2        1.96032   0.00085   0.00000  -0.00878  -0.00880   1.95152
    A3        2.00368   0.00021   0.00000  -0.00054  -0.00067   2.00301
    A4        2.12160  -0.00185   0.00000  -0.01417  -0.01417   2.10743
    A5        1.91590  -0.00094   0.00000  -0.00819  -0.00826   1.90764
    A6        1.80390  -0.00057   0.00000   0.01626   0.01639   1.82029
    A7        1.90081  -0.00062   0.00000  -0.00416  -0.00412   1.89669
    A8        2.15186   0.00164   0.00000   0.01755   0.01734   2.16921
    A9        1.69792   0.00021   0.00000  -0.00027  -0.00027   1.69764
   A10        1.70111  -0.00027   0.00000  -0.00042  -0.00042   1.70069
   A11        1.64014  -0.00172   0.00000  -0.00186  -0.00182   1.63832
   A12        2.37741  -0.00353   0.00000  -0.00509  -0.00679   2.37062
   A13        2.41763  -0.00407   0.00000   0.01099   0.01033   2.42796
   A14        1.70854  -0.00257   0.00000  -0.01649  -0.01645   1.69209
   A15        1.64920   0.00034   0.00000  -0.06710  -0.06687   1.58233
   A16        1.52557  -0.00232   0.00000   0.01252   0.01825   1.54382
   A17        1.66543   0.00086   0.00000   0.07532   0.07544   1.74087
   A18        1.55859  -0.00304   0.00000   0.01530   0.02032   1.57890
   A19        1.59459   0.00144   0.00000   0.05884   0.05894   1.65353
   A20        1.55711   0.00152   0.00000  -0.03258  -0.03188   1.52523
   A21        1.48190   0.00760   0.00000  -0.00833  -0.00625   1.47566
   A22        1.54075   0.00816   0.00000   0.04576   0.04396   1.58471
   A23        1.87914  -0.00041   0.00000  -0.03390  -0.03427   1.84487
   A24        1.47751  -0.00176   0.00000  -0.00156   0.00033   1.47784
   A25        2.42006  -0.01159   0.00000  -0.04443  -0.04348   2.37658
   A26        1.88169   0.00009   0.00000   0.01323   0.01215   1.89383
   A27        1.54384   0.00767   0.00000   0.03355   0.03124   1.57508
   A28        1.48797  -0.00112   0.00000   0.04502   0.04510   1.53307
   A29        2.43630  -0.01195   0.00000  -0.02702  -0.02611   2.41019
   A30        3.26712  -0.00562   0.00000  -0.00119   0.00387   3.27099
   A31        3.23411  -0.00489   0.00000  -0.00397   0.00180   3.23591
   A32        3.08245   0.00150   0.00000   0.00532   0.00532   3.08777
   A33        3.06379  -0.00142   0.00000   0.09107   0.08993   3.15371
   A34        3.26871   0.00193   0.00000   0.12788   0.12812   3.39683
   A35        3.13115  -0.00002   0.00000  -0.00346  -0.00346   3.12770
    D1       -2.69076   0.00019   0.00000   0.08724   0.08743  -2.60333
    D2       -0.58462   0.00015   0.00000   0.07656   0.07655  -0.50807
    D3        1.59951   0.00019   0.00000   0.06288   0.06294   1.66245
    D4       -1.65631   0.00031   0.00000   0.09088   0.09064  -1.56567
    D5       -1.33439  -0.00024   0.00000   0.05898   0.05905  -1.27533
    D6        2.91681  -0.00109   0.00000   0.04025   0.04030   2.95711
    D7        0.88053   0.00054   0.00000   0.04327   0.04334   0.92387
    D8        1.92365  -0.00011   0.00000   0.03281   0.03262   1.95627
    D9        0.04737  -0.00043   0.00000  -0.10745  -0.10779  -0.06042
   D10       -1.63056  -0.00007   0.00000  -0.19026  -0.19026  -1.82082
   D11        1.67604  -0.00063   0.00000  -0.15748  -0.15731   1.51873
   D12        3.06487  -0.00042   0.00000  -0.07849  -0.07882   2.98605
   D13        1.38694  -0.00006   0.00000  -0.16130  -0.16128   1.22565
   D14       -1.58965  -0.00062   0.00000  -0.12852  -0.12833  -1.71798
   D15       -3.06613  -0.00131   0.00000   0.00974   0.00918  -3.05696
   D16       -1.60292  -0.00050   0.00000   0.02511   0.02411  -1.57881
   D17       -3.11403   0.00045   0.00000  -0.11829  -0.11713   3.05202
   D18       -1.65082   0.00126   0.00000  -0.10293  -0.10220  -1.75301
   D19        1.52093   0.00021   0.00000  -0.04880  -0.04904   1.47189
   D20        2.98415   0.00103   0.00000  -0.03344  -0.03411   2.95004
   D21       -0.03399  -0.00137   0.00000  -0.01060  -0.01106  -0.04505
   D22        1.42922  -0.00056   0.00000   0.00476   0.00388   1.43310
   D23        1.59240   0.00044   0.00000  -0.07190  -0.07217   1.52022
   D24        3.06745   0.00175   0.00000  -0.01440  -0.01478   3.05267
   D25        1.58683  -0.00168   0.00000  -0.18627  -0.18594   1.40089
   D26        3.06188  -0.00037   0.00000  -0.12876  -0.12855   2.93333
   D27       -3.03074  -0.00079   0.00000  -0.11073  -0.11088   3.14156
   D28       -1.55569   0.00052   0.00000  -0.05322  -0.05349  -1.60918
   D29       -1.43483   0.00040   0.00000  -0.04860  -0.04843  -1.48326
   D30        0.04022   0.00171   0.00000   0.00891   0.00896   0.04918
   D31        0.01682   0.00107   0.00000   0.01985   0.01960   0.03641
   D32       -1.86681   0.00225   0.00000   0.05880   0.05845  -1.80836
   D33        0.04238  -0.00022   0.00000  -0.01757  -0.01707   0.02532
   D34       -0.06742  -0.00095   0.00000   0.00071   0.00072  -0.06670
   D35        1.81785  -0.00154   0.00000   0.00828   0.00936   1.82720
         Item               Value     Threshold  Converged?
 Maximum Force            0.074433     0.000450     NO 
 RMS     Force            0.008461     0.000300     NO 
 Maximum Displacement     0.363822     0.001800     NO 
 RMS     Displacement     0.112337     0.001200     NO 
 Predicted change in Energy=-1.060638D-02
 GradGradGradGradGradGradGradGradGradGradGradGradGradGradGradGradGradGrad

                          Input orientation:                          
 ---------------------------------------------------------------------
 Center     Atomic      Atomic             Coordinates (Angstroms)
 Number     Number       Type             X           Y           Z
 ---------------------------------------------------------------------
      1         42           0        0.130865    2.384958   11.472840
      2         16           0        1.990961    3.653794   10.896767
      3         16           0       -1.661759    3.593700   11.040971
      4         16           0        0.033864    0.479860   10.311584
      5         16           0       -0.044649    1.886565   13.736122
      6          1           0        0.951072    0.968279   13.791437
      7          1           0        2.797290    2.625469   10.544636
      8         42           0       -1.864206    1.722091    9.507268
      9          6           0       -1.016449    2.745575    8.111206
     10          8           0       -0.450453    3.365131    7.303701
     11         16           0       -4.128632    2.489505    8.974300
     12          1           0       -4.276935    1.303026    7.788292
     13          1           0       -4.964188    1.696430    9.693188
     14         16           0       -2.305464   -0.008775    7.815666
     15          1           0       -2.961337   -1.039600    8.413533
     16          1           0       -3.800982    0.674262    7.496446
 ---------------------------------------------------------------------
                    Distance matrix (angstroms):
                    1          2          3          4          5
     1  Mo   0.000000
     2  S    2.324169   0.000000
     3  S    2.204783   3.656059   0.000000
     4  S    2.233232   3.774457   3.619827   0.000000
     5  S    2.324144   3.915194   3.576757   3.703031   0.000000
     6  H    2.838241   4.083195   4.613543   3.631693   1.355643
     7  H    2.833589   1.353372   4.589873   3.506347   4.336839
     8  Mo   2.878051   4.530397   2.428199   2.406810   4.606631
     9  C    3.570289   4.198658   3.117574   3.328407   5.772519
    10  O    4.322082   4.353613   3.935314   4.196036   6.612630
    11  S    4.939327   6.519268   3.402328   4.811796   6.302174
    12  H    5.845954   7.380735   4.760910   5.062371   7.323213
    13  H    5.440661   7.324887   4.040073   5.181021   6.370504
    14  S    5.004057   6.431708   4.877989   3.455550   6.614786
    15  H    5.536124   7.260830   5.482682   3.857795   6.737912
    16  H    5.847872   7.347544   5.065871   4.761180   7.383310
                    6          7          8          9         10
     6  H    0.000000
     7  H    4.086137   0.000000
     8  Mo   5.181518   4.860223   0.000000
     9  C    6.268568   4.525551   1.927486   0.000000
    10  O    7.056904   4.647429   3.090952   1.164588   0.000000
    11  S    7.163960   7.103015   2.449613   3.239781   4.133597
    12  H    7.967551   7.706552   2.991948   3.579943   4.373680
    13  H    7.232990   7.863117   3.105658   4.380412   5.372896
    14  S    6.875282   6.358035   2.460107   3.055381   3.884124
    15  H    6.946968   7.150951   3.166526   4.266326   5.190175
    16  H    7.892741   7.525680   2.982021   3.524471   4.301625
                   11         12         13         14         15
    11  S    0.000000
    12  H    1.684145   0.000000
    13  H    1.357911   2.062938   0.000000
    14  S    3.302693   2.368179   3.674456   0.000000
    15  H    3.759205   2.758554   3.624195   1.360225   0.000000
    16  H    2.363581   0.840862   2.687666   1.674818   2.117398
                   16
    16  H    0.000000
 Symmetry turned off by external request.
 Stoichiometry    CH6Mo2OS6
 Framework group  C1[X(CH6Mo2OS6)]
 Deg. of freedom    42
 Full point group                 C1      NOp   1
 Rotational constants (GHZ):           0.6007257           0.2443505           0.2361673
 Basis read from rwf:  (5D, 7F)
 Pseudo-potential data read from rwf file.
   210 basis functions,   508 primitive gaussians,   222 cartesian basis functions
    72 alpha electrons       72 beta electrons
       nuclear repulsion energy      1409.2884704317 Hartrees.
 NAtoms=   16 NActive=   16 NUniq=   16 SFac= 1.00D+00 NAtFMM=   60 NAOKFM=F Big=F
 Integral buffers will be    131072 words long.
 Raffenetti 2 integral format.
 Two-electron integral symmetry is turned off.
 One-electron integrals computed using PRISM.
   1 Symmetry operations used in ECPInt.
 ECPInt:  NShTT=    2628 NPrTT=   18044 LenC2=    2395 LenP2D=   11220.
 LDataN:  DoStor=T MaxTD1= 5 Len=  102
 NBasis=   210 RedAO= T EigKep=  1.92D-03  NBF=   210
 NBsUse=   210 1.00D-06 EigRej= -1.00D+00 NBFU=   210
 Defaulting to unpruned grid for atomic number  42.
 Defaulting to unpruned grid for atomic number  42.
 Initial guess from the checkpoint file:  "MoSH2S2_MoCO_S-end_H2S_2_ts.chk"
 B after Tr=    -0.035842   -0.172885    0.049421
         Rot=    0.999959    0.004592    0.000853    0.007721 Ang=   1.03 deg.
 ExpMin= 2.47D-02 ExpMax= 2.19D+04 ExpMxC= 3.30D+03 IAcc=3 IRadAn=         5 AccDes= 0.00D+00
 Harris functional with IExCor=  402 and IRadAn=       5 diagonalized for initial guess.
 HarFok:  IExCor=  402 AccDes= 0.00D+00 IRadAn=         5 IDoV= 1 UseB2=F ITyADJ=14
 ICtDFT=  3500011 ScaDFX=  1.000000  1.000000  1.000000  1.000000
 Defaulting to unpruned grid for atomic number  42.
 FoFCou: FMM=F IPFlag=           0 FMFlag=      100000 FMFlg1=           0
         NFxFlg=           0 DoJE=T BraDBF=F KetDBF=T FulRan=T
         wScrn=  0.000000 ICntrl=       500 IOpCl=  0 I1Cent=   200000004 NGrid=           0
         NMat0=    1 NMatS0=      1 NMatT0=    0 NMatD0=    1 NMtDS0=    0 NMtDT0=    0
 Symmetry not used in FoFCou.
 Requested convergence on RMS density matrix=1.00D-08 within 128 cycles.
 Requested convergence on MAX density matrix=1.00D-06.
 Requested convergence on             energy=1.00D-06.
 No special actions if energy rises.
 Defaulting to unpruned grid for atomic number  42.
 Defaulting to unpruned grid for atomic number  42.
 Defaulting to unpruned grid for atomic number  42.
 Defaulting to unpruned grid for atomic number  42.
 Defaulting to unpruned grid for atomic number  42.
 Defaulting to unpruned grid for atomic number  42.
 Defaulting to unpruned grid for atomic number  42.
 Defaulting to unpruned grid for atomic number  42.
 Defaulting to unpruned grid for atomic number  42.
 Defaulting to unpruned grid for atomic number  42.
 Defaulting to unpruned grid for atomic number  42.
 Defaulting to unpruned grid for atomic number  42.
 Defaulting to unpruned grid for atomic number  42.
 Defaulting to unpruned grid for atomic number  42.
 Defaulting to unpruned grid for atomic number  42.
 Defaulting to unpruned grid for atomic number  42.
 Defaulting to unpruned grid for atomic number  42.
 Defaulting to unpruned grid for atomic number  42.
 Defaulting to unpruned grid for atomic number  42.
 Defaulting to unpruned grid for atomic number  42.
 Defaulting to unpruned grid for atomic number  42.
 Defaulting to unpruned grid for atomic number  42.
 Defaulting to unpruned grid for atomic number  42.
 Defaulting to unpruned grid for atomic number  42.
 Defaulting to unpruned grid for atomic number  42.
 Defaulting to unpruned grid for atomic number  42.
 Defaulting to unpruned grid for atomic number  42.
 Defaulting to unpruned grid for atomic number  42.
 Defaulting to unpruned grid for atomic number  42.
 Defaulting to unpruned grid for atomic number  42.
 Defaulting to unpruned grid for atomic number  42.
 Defaulting to unpruned grid for atomic number  42.
 Defaulting to unpruned grid for atomic number  42.
 Defaulting to unpruned grid for atomic number  42.
 Defaulting to unpruned grid for atomic number  42.
 Defaulting to unpruned grid for atomic number  42.
 Defaulting to unpruned grid for atomic number  42.
 Defaulting to unpruned grid for atomic number  42.
 Defaulting to unpruned grid for atomic number  42.
 Defaulting to unpruned grid for atomic number  42.
 Defaulting to unpruned grid for atomic number  42.
 Defaulting to unpruned grid for atomic number  42.
 Defaulting to unpruned grid for atomic number  42.
 Defaulting to unpruned grid for atomic number  42.
 Defaulting to unpruned grid for atomic number  42.
 Defaulting to unpruned grid for atomic number  42.
 Defaulting to unpruned grid for atomic number  42.
 Defaulting to unpruned grid for atomic number  42.
 EnCoef did     5 forward-backward iterations
 EnCoef did     2 forward-backward iterations
 EnCoef did     2 forward-backward iterations
 SCF Done:  E(RB3LYP) =  -2641.26602583     A.U. after   18 cycles
            NFock= 18  Conv=0.98D-08     -V/T= 2.0378
   1 Symmetry operations used in ECPInt.
 ECPInt:  NShTT=    2628 NPrTT=   18044 LenC2=    2395 LenP2D=   11220.
 LDataN:  DoStor=T MaxTD1= 6 Len=  172
 Calling FoFJK, ICntrl=      2127 FMM=F ISym2X=0 I1Cent= 0 IOpClX= 0 NMat=1 NMatS=1 NMatT=0.
 Defaulting to unpruned grid for atomic number  42.
 Defaulting to unpruned grid for atomic number  42.
 Defaulting to unpruned grid for atomic number  42.
 Defaulting to unpruned grid for atomic number  42.
 Defaulting to unpruned grid for atomic number  42.
 Defaulting to unpruned grid for atomic number  42.
 Defaulting to unpruned grid for atomic number  42.
 Defaulting to unpruned grid for atomic number  42.
 Defaulting to unpruned grid for atomic number  42.
 Defaulting to unpruned grid for atomic number  42.
 Defaulting to unpruned grid for atomic number  42.
 Defaulting to unpruned grid for atomic number  42.
 Defaulting to unpruned grid for atomic number  42.
 Defaulting to unpruned grid for atomic number  42.
 Defaulting to unpruned grid for atomic number  42.
 Defaulting to unpruned grid for atomic number  42.
 Defaulting to unpruned grid for atomic number  42.
 Defaulting to unpruned grid for atomic number  42.
 Defaulting to unpruned grid for atomic number  42.
 Defaulting to unpruned grid for atomic number  42.
 Defaulting to unpruned grid for atomic number  42.
 Defaulting to unpruned grid for atomic number  42.
 Defaulting to unpruned grid for atomic number  42.
 Defaulting to unpruned grid for atomic number  42.
 Defaulting to unpruned grid for atomic number  42.
 Defaulting to unpruned grid for atomic number  42.
 Defaulting to unpruned grid for atomic number  42.
 Defaulting to unpruned grid for atomic number  42.
 Defaulting to unpruned grid for atomic number  42.
 Defaulting to unpruned grid for atomic number  42.
 Defaulting to unpruned grid for atomic number  42.
 Defaulting to unpruned grid for atomic number  42.
 Defaulting to unpruned grid for atomic number  42.
 Defaulting to unpruned grid for atomic number  42.
 Defaulting to unpruned grid for atomic number  42.
 Defaulting to unpruned grid for atomic number  42.
 Defaulting to unpruned grid for atomic number  42.
 Defaulting to unpruned grid for atomic number  42.
 Defaulting to unpruned grid for atomic number  42.
 Defaulting to unpruned grid for atomic number  42.
 Defaulting to unpruned grid for atomic number  42.
 Defaulting to unpruned grid for atomic number  42.
 Defaulting to unpruned grid for atomic number  42.
 Defaulting to unpruned grid for atomic number  42.
 Defaulting to unpruned grid for atomic number  42.
 Defaulting to unpruned grid for atomic number  42.
 Defaulting to unpruned grid for atomic number  42.
 Defaulting to unpruned grid for atomic number  42.
 -------------------------------------------------------------------
 Center     Atomic                   Forces (Hartrees/Bohr)
 Number     Number              X              Y              Z
 -------------------------------------------------------------------
      1       42           0.001421929   -0.000008433    0.001159251
      2       16           0.000383292   -0.000374936    0.000144623
      3       16          -0.000164704   -0.000546040    0.001075260
      4       16           0.000849745   -0.000301535    0.001050820
      5       16          -0.000264262    0.000621413    0.000363061
      6        1          -0.000090414   -0.000044607   -0.000151624
      7        1          -0.000188904   -0.000011753   -0.000437129
      8       42          -0.001004161    0.001200803   -0.002396377
      9        6           0.000750476    0.000939929   -0.000916921
     10        8          -0.000381701   -0.000297099    0.000350436
     11       16           0.000006134   -0.000509588    0.002001830
     12        1          -0.022605149    0.029206449    0.010050490
     13        1           0.000827384   -0.000093817    0.000491491
     14       16           0.000343060   -0.001153472    0.002083643
     15        1           0.000927612    0.000487344    0.000167947
     16        1           0.019189663   -0.029114659   -0.015036801
 -------------------------------------------------------------------
 Cartesian Forces:  Max     0.029206449 RMS     0.007823455

 GradGradGradGradGradGradGradGradGradGradGradGradGradGradGradGradGradGrad
 Berny optimization.
 FormGI is forming the generalized inverse of G from B-inverse, IUseBI=4.
 Internal  Forces:  Max     0.036463311 RMS     0.004106621
 Search for a saddle point.
 Step number   2 out of a maximum of   98
 All quantities printed in internal units (Hartrees-Bohrs-Radians)
 Swapping is turned off.
 Update second derivatives using D2CorX and points    1    2
 ITU=  0  0
     Eigenvalues ---   -0.02292   0.00081   0.00197   0.00365   0.00438
     Eigenvalues ---    0.00494   0.01094   0.01499   0.01980   0.01993
     Eigenvalues ---    0.02676   0.03141   0.03715   0.04321   0.04549
     Eigenvalues ---    0.05105   0.05333   0.05607   0.06201   0.06941
     Eigenvalues ---    0.07138   0.07280   0.08519   0.08771   0.09008
     Eigenvalues ---    0.09476   0.09645   0.11278   0.12212   0.12557
     Eigenvalues ---    0.13956   0.15325   0.16201   0.16444   0.17055
     Eigenvalues ---    0.21126   0.24201   0.24671   0.25680   0.25882
     Eigenvalues ---    0.32371   1.05762
 Eigenvectors required to have negative eigenvalues:
                          R14       R18       R5        R16       R12
   1                    0.59237   0.58234   0.25482  -0.19309  -0.15472
                          R11       A25       A29       A31       A21
   1                   -0.15344  -0.11746  -0.11529  -0.10898   0.10860
 RFO step:  Lambda0=3.663179568D-04 Lambda=-6.62123209D-03.
 Linear search not attempted -- option 19 set.
 Iteration  1 RMS(Cart)=  0.06243651 RMS(Int)=  0.00188122
 Iteration  2 RMS(Cart)=  0.00223428 RMS(Int)=  0.00062554
 Iteration  3 RMS(Cart)=  0.00000325 RMS(Int)=  0.00062554
 Iteration  4 RMS(Cart)=  0.00000000 RMS(Int)=  0.00062554
 Variable       Old X    -DE/DX   Delta X   Delta X   Delta X     New X
                                 (Linear)    (Quad)   (Total)
    R1        4.39204   0.00002   0.00000  -0.00160  -0.00160   4.39044
    R2        4.16644  -0.00007   0.00000  -0.01399  -0.01395   4.15249
    R3        4.22020  -0.00039   0.00000  -0.01236  -0.01259   4.20761
    R4        4.39200   0.00011   0.00000  -0.00359  -0.00359   4.38840
    R5        5.43873   0.00173   0.00000   0.08880   0.08868   5.52741
    R6        2.55750   0.00001   0.00000  -0.00080  -0.00080   2.55670
    R7        4.58863   0.00047   0.00000   0.02966   0.02985   4.61848
    R8        4.54821   0.00128   0.00000   0.03331   0.03343   4.58164
    R9        2.56179  -0.00004   0.00000   0.00007   0.00007   2.56186
   R10        3.64242   0.00091   0.00000   0.00208   0.00208   3.64450
   R11        4.62910   0.00160   0.00000  -0.05247  -0.05304   4.57605
   R12        4.64893   0.00176   0.00000  -0.03839  -0.03891   4.61002
   R13        2.20075  -0.00059   0.00000  -0.00048  -0.00048   2.20027
   R14        3.18257   0.00071   0.00000   0.07352   0.07407   3.25664
   R15        2.56608  -0.00019   0.00000  -0.00129  -0.00129   2.56479
   R16        1.58900   0.03646   0.00000   0.11476   0.11557   1.70457
   R17        2.57045  -0.00074   0.00000  -0.00322  -0.00322   2.56724
   R18        3.16495   0.00095   0.00000   0.07110   0.07168   3.23662
    A1        1.87849   0.00067   0.00000   0.01562   0.01567   1.89416
    A2        1.95152  -0.00024   0.00000  -0.01615  -0.01609   1.93543
    A3        2.00301   0.00028   0.00000  -0.00399  -0.00401   1.99899
    A4        2.10743  -0.00093   0.00000  -0.01562  -0.01560   2.09183
    A5        1.90764  -0.00026   0.00000  -0.01300  -0.01326   1.89438
    A6        1.82029  -0.00062   0.00000   0.00483   0.00504   1.82533
    A7        1.89669   0.00013   0.00000   0.01333   0.01327   1.90996
    A8        2.16921   0.00064   0.00000   0.02067   0.02060   2.18980
    A9        1.69764  -0.00013   0.00000  -0.00187  -0.00187   1.69577
   A10        1.70069  -0.00033   0.00000  -0.00119  -0.00119   1.69950
   A11        1.63832  -0.00022   0.00000   0.00914   0.00905   1.64737
   A12        2.37062  -0.00136   0.00000  -0.00922  -0.00950   2.36112
   A13        2.42796  -0.00189   0.00000  -0.00836  -0.00774   2.42022
   A14        1.69209  -0.00076   0.00000  -0.03307  -0.03289   1.65920
   A15        1.58233   0.00067   0.00000  -0.01362  -0.01344   1.56888
   A16        1.54382  -0.00120   0.00000   0.01677   0.01806   1.56188
   A17        1.74087   0.00036   0.00000   0.03683   0.03671   1.77757
   A18        1.57890  -0.00145   0.00000   0.00999   0.01067   1.58957
   A19        1.65353   0.00047   0.00000   0.03259   0.03286   1.68639
   A20        1.52523   0.00031   0.00000   0.00304   0.00358   1.52881
   A21        1.47566   0.00320   0.00000   0.01117   0.00957   1.48523
   A22        1.58471   0.00411   0.00000   0.05219   0.05157   1.63628
   A23        1.84487  -0.00062   0.00000  -0.04383  -0.04467   1.80020
   A24        1.47784  -0.00050   0.00000   0.00859   0.01109   1.48893
   A25        2.37658  -0.00555   0.00000  -0.06098  -0.06002   2.31656
   A26        1.89383  -0.00024   0.00000  -0.02028  -0.02165   1.87219
   A27        1.57508   0.00392   0.00000   0.04673   0.04611   1.62119
   A28        1.53307  -0.00027   0.00000   0.02322   0.02430   1.55737
   A29        2.41019  -0.00575   0.00000  -0.05148  -0.05055   2.35964
   A30        3.27099  -0.00221   0.00000  -0.02308  -0.02222   3.24877
   A31        3.23591  -0.00196   0.00000  -0.01630  -0.01482   3.22108
   A32        3.08777   0.00023   0.00000   0.00491   0.00491   3.09268
   A33        3.15371  -0.00066   0.00000   0.01023   0.01022   3.16393
   A34        3.39683   0.00086   0.00000   0.06743   0.06780   3.46463
   A35        3.12770   0.00010   0.00000   0.00115   0.00115   3.12885
    D1       -2.60333   0.00023   0.00000   0.06917   0.06949  -2.53384
    D2       -0.50807   0.00020   0.00000   0.05358   0.05353  -0.45454
    D3        1.66245   0.00041   0.00000   0.05508   0.05507   1.71751
    D4       -1.56567   0.00036   0.00000   0.06920   0.06894  -1.49673
    D5       -1.27533   0.00003   0.00000   0.02693   0.02701  -1.24832
    D6        2.95711  -0.00053   0.00000   0.00680   0.00667   2.96378
    D7        0.92387   0.00002   0.00000   0.01325   0.01329   0.93717
    D8        1.95627   0.00016   0.00000   0.01436   0.01438   1.97065
    D9       -0.06042  -0.00038   0.00000  -0.05632  -0.05656  -0.11698
   D10       -1.82082  -0.00047   0.00000  -0.11113  -0.11126  -1.93208
   D11        1.51873  -0.00029   0.00000  -0.04175  -0.04142   1.47731
   D12        2.98605  -0.00045   0.00000  -0.04231  -0.04261   2.94344
   D13        1.22565  -0.00055   0.00000  -0.09713  -0.09731   1.12834
   D14       -1.71798  -0.00037   0.00000  -0.02774  -0.02748  -1.74546
   D15       -3.05696  -0.00045   0.00000   0.01548   0.01497  -3.04198
   D16       -1.57881   0.00019   0.00000   0.03960   0.03873  -1.54008
   D17        3.05202   0.00030   0.00000  -0.04310  -0.04248   3.00954
   D18       -1.75301   0.00094   0.00000  -0.01897  -0.01873  -1.77174
   D19        1.47189  -0.00026   0.00000  -0.02996  -0.03019   1.44171
   D20        2.95004   0.00038   0.00000  -0.00583  -0.00643   2.94361
   D21       -0.04505  -0.00081   0.00000  -0.03075  -0.03164  -0.07669
   D22        1.43310  -0.00017   0.00000  -0.00663  -0.00789   1.42521
   D23        1.52022  -0.00042   0.00000  -0.06414  -0.06420   1.45603
   D24        3.05267   0.00061   0.00000  -0.02383  -0.02425   3.02842
   D25        1.40089  -0.00083   0.00000  -0.08319  -0.08283   1.31805
   D26        2.93333   0.00019   0.00000  -0.04288  -0.04289   2.89045
   D27        3.14156  -0.00041   0.00000  -0.04677  -0.04652   3.09504
   D28       -1.60918   0.00062   0.00000  -0.00646  -0.00657  -1.61575
   D29       -1.48326  -0.00014   0.00000  -0.01489  -0.01434  -1.49760
   D30        0.04918   0.00088   0.00000   0.02542   0.02561   0.07479
   D31        0.03641   0.00064   0.00000   0.04626   0.04548   0.08189
   D32       -1.80836   0.00163   0.00000   0.09524   0.09428  -1.71407
   D33        0.02532  -0.00021   0.00000  -0.03281  -0.03195  -0.00663
   D34       -0.06670  -0.00042   0.00000  -0.00743  -0.00628  -0.07298
   D35        1.82720  -0.00081   0.00000  -0.02971  -0.02828   1.79892
[...]
    16          9.26453480         19.77207855         -3.10628975
    16          2.74371157         19.82297576         -4.54234242
    16          4.48732843         18.91418337          2.10804596
    16          4.67220906         25.34414186         -1.11716718
     1          5.69388197         25.66418412          1.20836867
     1         10.60969307         20.15575368         -0.95950636
    42          1.37543016         17.61839523         -0.89210145
     6         -0.96211009         15.87069650         -3.44495780
     8         -2.22216505         14.85134262         -4.89985134
    16         -2.06376296         19.88993624          0.75670088
     1         -3.05611544         17.70848593          2.72882614
     1         -1.06327571         21.12229355          2.76752165
    16         -0.06953864         14.19197513          1.84663592
     1          1.34523953         14.42574448          3.95778713
     1         -2.34049854         15.84944988          3.09518214

 Electric dipole moment (dipole orientation):
 (Debye = 10**-18 statcoulomb cm , SI units = C m)
                  (au)            (Debye)         (10**-30 SI)
   Tot        0.155069D+01      0.394147D+01      0.131473D+02
   x          0.000000D+00      0.000000D+00      0.000000D+00
   y          0.000000D+00      0.000000D+00      0.000000D+00
   z          0.155069D+01      0.394147D+01      0.131473D+02

 Dipole polarizability, Alpha (dipole orientation).
 (esu units = cm**3 , SI units = C**2 m**2 J**-1)
 Alpha(0;0):
               (au)            (10**-24 esu)      (10**-40 SI)
   iso        0.240378D+03      0.356203D+02      0.396329D+02
   aniso      0.138959D+03      0.205916D+02      0.229112D+02
   xx         0.277989D+03      0.411937D+02      0.458341D+02
   yx         0.610670D+02      0.904920D+01      0.100686D+02
   yy         0.242998D+03      0.360086D+02      0.400649D+02
   zx        -0.316153D+02     -0.468491D+01     -0.521266D+01
   zy        -0.137041D+02     -0.203074D+01     -0.225950D+01
   zz         0.200147D+03      0.296587D+02      0.329997D+02

 ----------------------------------------------------------------------
 Unable to Open any file for archive entry.
 1\1\GINC-NODE12\Freq\RB3LYP\Gen\C1H6Mo2O1S6\CHEGHO\24-Oct-2022\0\\#N G
 eom=AllCheck Guess=TCheck SCRF=Check GenChk RB3LYP/ChkBas Freq\\Title 
 Card Required\\0,1\Mo,0.1845506182,2.2653311803,11.2766696992\S,2.5016
 655892,2.4670011787,11.1295036762\S,-0.4895711602,4.0240203711,10.0742
 605335\S,-0.5217446697,0.3630863422,10.3275467036\S,-0.7622903255,2.63
 87428159,13.3711556307\H,-0.6524410312,1.3733899971,13.8425609644\H,2.
 789222541,1.2570573283,11.6697150175\Mo,-1.4318446082,2.1306865146,9.0
 047580018\C,-1.9717739547,3.5272565664,7.6017358889\O,-2.2411031738,4.
 3115365101,6.8013034275\S,-3.6583094379,1.9788654766,9.7383695773\H,-4
 .1656447458,0.8837556209,8.6244598954\H,-3.6274404488,0.9705921162,10.
 6440634349\S,-2.1187084976,0.5765413864,7.2481785508\H,-1.7725172149,-
 0.6401502482,7.7211438603\H,-3.63305148,0.4125568433,7.8225321379\\Ver
 sion=ES64L-G16RevC.01\HF=-2641.2875031\RMSD=6.785e-09\RMSF=7.780e-06\Z
 eroPoint=0.0641073\Thermal=0.0809974\ETot=-2641.2065057\HTot=-2641.205
 5615\GTot=-2641.2697776\Dipole=-0.4423409,-1.4731584,0.1969431\DipoleD
 eriv=0.9770189,-0.008907,-0.3440213,0.0762562,0.4823139,0.1828203,-0.4
 725941,0.0725634,0.6842873,-1.0000029,0.0051279,-0.0291191,0.0101999,0
 .0433887,-0.0849605,0.0601633,-0.0869723,-0.0444316,0.2423931,-0.01874
 08,0.2308547,-0.1278978,-0.3837226,-0.127112,0.3204166,0.0841179,0.246
 6455,0.0238476,-0.0197811,0.0705805,0.0790753,-0.463142,0.0791684,0.24
 8914,0.0052381,0.1173343,-0.1919892,-0.0146702,0.3542665,-0.0151464,0.
 0872163,-0.0909974,0.2607681,-0.0743295,-0.8074868,0.1098496,0.0625623
 ,0.0314449,0.041738,-0.0527622,0.0287884,-0.0045565,-0.0563623,-0.0064
 339,-0.0083797,-0.0728368,0.0021661,0.0018355,-0.0206694,0.0853273,-0.
 0137892,0.0727528,0.0999005,-0.7968578,-0.0253481,-0.6190601,0.201918,
 -0.2526989,0.5216763,-0.9121227,0.1499375,-1.095335,0.4417334,-0.34935
 04,0.5379411,-0.5786512,1.2353949,-1.4989908,0.7394868,-0.8932064,1.94
 71239,-0.2662394,0.2678788,-0.3707195,0.4185649,-0.9421409,1.1364114,-
 0.4420195,0.7898893,-1.3176349,0.5570003,0.2285588,0.2633067,0.6133739
 ,0.4395776,0.1320563,0.5504174,0.0974508,0.1173878,-0.1589688,-0.05025
 8,-0.0296656,-0.7516089,-0.2703446,-0.3348257,-0.7028437,-0.2529996,-0
 .3576075,-0.019466,0.0434261,-0.0105937,-0.0847258,-0.0560618,0.052595
 2,0.0469932,0.0082923,0.0562615,0.7246999,0.4729261,0.7170806,0.140128
 4,0.159204,-0.0357706,-0.0244588,-0.3007222,-0.0367751,0.0358582,-0.00
 92287,-0.0565579,-0.0191295,0.0208966,-0.0361134,-0.0494214,0.1074098,
 0.0040282,-0.6704972,-0.5113588,-0.7479039,-0.0059304,-0.0264496,-0.01
 00733,0.3946465,0.2769405,0.3927359\Polar=257.2390249,18.7445761,191.2
 405472,63.4289299,13.8447782,272.6534415\Quadrupole=3.1283366,-9.85640
 31,6.7280666,1.3021297,-8.0921386,-29.1929964\PG=C01 [X(C1H6Mo2O1S6)]\
 NImag=1\\0.23014485,0.00171538,0.26264673,0.02341176,-0.01013017,0.273
 21320,-0.11222548,-0.01845952,0.01278353,0.14000385,-0.01226427,-0.017
 93992,0.00415649,-0.02852686,0.21963199,0.00745423,0.00154414,-0.02010
 943,0.00890136,-0.09111067,0.05312126,-0.02856882,0.03859928,-0.020329
 57,-0.00365870,0.00463168,-0.00101458,0.05232802,0.03927390,-0.1032686
 6,0.06248543,0.00516872,0.00025240,0.00051077,-0.00631422,0.19023230,-
 0.02078530,0.06040647,-0.05794169,-0.00281243,-0.00031468,-0.00037723,
 0.03796027,-0.02735165,0.07891802,-0.03078163,-0.04222698,-0.01085219,
 -0.00388230,-0.00460908,-0.00115367,0.00683931,-0.00232455,-0.00649849
 ,0.05393926,-0.04036864,-0.12702480,-0.04680052,-0.00246686,0.00211327
 ,-0.00334927,-0.00014199,-0.00852362,0.00123025,0.01567991,0.19667474,
 -0.01097321,-0.04855644,-0.03427305,-0.00408438,0.00224043,0.00121746,
 -0.00650728,-0.00161170,0.00169341,0.03097098,0.01674444,0.06530525,-0
 .03351453,0.00906970,0.03649982,-0.00090637,0.00243661,0.00335752,-0.0
 0010387,-0.00226988,0.00064459,0.00204401,-0.00107717,0.00165178,0.034
 19835,0.00873248,-0.02335928,-0.01439726,0.00223011,0.00191474,0.00186
 082,-0.00243073,0.00271565,0.00411210,0.00463871,0.00328669,-0.0043233
 1,-0.03003585,0.24526806,0.03840337,-0.02253940,-0.09378551,0.00890879
 ,0.00167674,0.00322950,-0.00080110,0.00373767,-0.00465944,-0.00160387,
 -0.00316024,-0.00381101,-0.03792961,-0.05729433,0.13375202,0.00033248,
 -0.00290570,0.00148272,-0.00048486,-0.00165885,-0.00010868,0.00065369,
 0.00032255,-0.00040348,0.00025447,0.00226422,-0.00022374,-0.00637501,0
 .02090635,-0.00429122,0.00611984,-0.00151592,0.00213545,0.00310978,0.0
 0000359,-0.00050778,-0.00014343,0.00010478,0.00013146,-0.00049249,-0.0
 0099157,-0.00023075,-0.00082804,0.02069400,-0.22669138,0.07840709,-0.0
 1900242,0.22453365,-0.00039280,0.01084649,-0.01012515,-0.00071264,-0.0
 0129218,-0.00028758,0.00121778,-0.00153785,-0.00013702,-0.00073185,-0.
 00098207,0.00144706,-0.00378898,0.07157529,-0.03421491,0.00287808,-0.0
 8014349,0.04325949,-0.00584405,0.01075696,-0.00733256,-0.01963792,0.03
 930003,-0.01682886,-0.00032660,-0.00106776,0.00081360,0.00102498,-0.00
 149613,0.00021353,-0.00047281,-0.00057578,-0.00008410,0.00051157,0.000
 26107,0.00062220,0.02579127,0.00483894,-0.00005788,0.00039426,0.044499
 29,-0.20467718,0.08940684,-0.00092710,0.00046742,-0.00016315,-0.000095
 50,0.00050947,-0.00105150,-0.00074329,-0.00052258,0.00009578,0.0005243
 6,0.00038017,0.00044766,-0.04803248,0.20373352,-0.00254028,0.00158723,
 -0.00004531,-0.01872211,0.08733236,-0.04214654,-0.00114414,-0.00073062
 ,0.00080270,0.00067394,0.00186305,0.00040608,-0.00059568,-0.00150255,-
 0.00034870,0.00067334,0.00036505,0.00081741,0.02152285,-0.08905654,0.0
 4192791,-0.02154532,0.00519679,-0.03504427,0.00083877,0.00080805,-0.00
 152105,-0.02255145,-0.02856736,0.00075201,-0.02472096,0.02336033,-0.00
 380722,0.00548386,-0.00357166,-0.00283500,-0.00140374,0.00063786,0.000
 92982,-0.00173152,0.00002954,0.00072625,0.24856861,-0.00178523,0.01070
 971,0.00253892,-0.00142002,0.00073585,0.00024592,-0.02307852,-0.082222
 51,-0.03465367,0.01641259,-0.06988776,0.02649118,0.00022185,-0.0026999
 5,-0.00163064,0.00056747,0.00041709,0.00187048,0.00055206,0.00019611,0
 .00041674,0.01317403,0.28379857,-0.03994862,0.01193840,-0.06879331,-0.
 00491515,-0.00370925,0.00704045,0.00486125,-0.03145652,-0.00348200,0.0
 0466525,0.02569094,-0.01779230,0.00100952,-0.00066462,-0.00042249,-0.0
 0012914,-0.00023949,-0.00095798,0.00133355,-0.00012625,-0.00221620,0.0
 4370949,-0.01930916,0.22552080,-0.00051600,-0.00503336,-0.00008321,0.0
 0140742,0.00057948,0.00029188,-0.00166498,0.00264878,-0.00784724,0.002
 05318,0.00714254,-0.00508029,-0.00137463,0.00083120,0.00019052,0.00086
 371,-0.00014827,-0.00016422,0.00009603,0.00006222,-0.00062406,-0.05825
 671,0.00881112,-0.00534937,0.14499020,0.00430807,0.00940357,0.00074644
 ,-0.00122169,-0.00165431,0.00090609,-0.00110883,-0.00617854,0.00503977
 ,0.00842777,-0.00096173,0.01085320,0.00132116,-0.00094959,-0.00046471,
 -0.00067420,-0.00009129,-0.00036177,0.00003064,-0.00007356,-0.00025790
 ,-0.00572275,-0.05767116,-0.00404139,-0.16799079,0.58927019,0.00465968
 ,-0.00587430,0.00828359,0.00151944,0.00079803,-0.00166968,-0.01053060,
 0.00536011,-0.01568214,-0.01351942,0.01412645,-0.01143533,-0.00108009,
 0.00076624,0.00159895,-0.00023250,0.00002163,0.00022601,0.00008760,-0.
 00000641,0.00072898,0.01115858,0.00447213,-0.04300014,0.17486952,-0.50
 943414,0.60113314,0.00046661,0.00276401,-0.00004809,-0.00056031,-0.000
 26602,-0.00005963,0.00035573,-0.00093569,0.00249615,-0.00184068,-0.001
 86776,0.00124804,0.00043126,-0.00024031,-0.00025975,-0.00019511,0.0000
 3573,0.00003833,-0.00004993,-0.00001999,0.00018104,0.01660644,0.010270
 33,-0.01446478,-0.09456108,0.16493598,-0.16743771,0.08104674,-0.002210
 07,-0.00691177,-0.00067268,0.00106223,0.00066308,-0.00023341,-0.001225
 29,0.00327730,-0.00492131,-0.00050220,-0.00131354,-0.00092668,-0.00054
 247,0.00032430,0.00064231,0.00007369,0.00007854,0.00018506,0.00004071,
 0.00000907,-0.00003758,0.01495650,-0.01119098,0.03940469,0.16466790,-0
 .52112427,0.49326282,-0.17704770,0.53477982,-0.00063114,0.00645696,-0.
 00180797,-0.00113646,-0.00046815,0.00058631,0.00389940,-0.00274561,0.0
 0599961,0.00205611,-0.00289608,0.00002968,0.00046034,-0.00028215,-0.00
 092115,0.00015848,-0.00006662,-0.00013895,-0.00004585,-0.00000977,-0.0
 0015731,-0.01735799,0.03190977,-0.02206627,-0.16748668,0.49273987,-0.5
 3729384,0.18037277,-0.52513476,0.55449344,0.00081627,0.00482790,0.0033
 0244,0.00025766,-0.00015639,0.00031603,-0.00323239,-0.00641265,-0.0031
 2266,-0.00518092,-0.00220072,-0.00195946,0.00039276,-0.00094705,-0.000
 35191,-0.00020356,-0.00005266,0.00072624,0.00028753,-0.00019147,-0.000
 26202,-0.08538483,0.01851123,0.02054893,0.00817637,-0.00856702,0.00437
 711,-0.00271506,0.00393001,-0.00321506,0.11216658,0.00133505,-0.002669
 64,-0.00054945,-0.00028657,-0.00029724,-0.00024075,-0.00528257,0.00286
 756,-0.00042320,0.00311113,0.00008515,-0.00230033,-0.00014267,0.000597
 98,0.00122920,-0.00029953,-0.00010925,-0.00016401,0.00028276,0.0001208
 0,0.00029413,0.00325281,-0.02100440,0.00842516,-0.00678488,-0.00189871
 ,0.00570221,0.00089504,0.00189031,-0.00288745,-0.01682867,0.20521326,-
 0.00108716,-0.00014088,0.00258820,0.00059520,0.00024908,-0.00056144,-0
 .00031634,-0.00033651,0.00090023,-0.00188380,0.00078858,0.00098633,-0.
 00057263,0.00019831,0.00027727,0.00024944,0.00006740,0.00001673,-0.000
 16176,0.00003196,0.00013211,0.00640418,0.00690437,-0.03090825,0.013535
 52,-0.00147556,-0.00389964,-0.00313575,0.00146013,-0.00035791,-0.01659
 215,-0.10279618,0.18522414,0.00007424,-0.00123717,-0.00022426,-0.00022
 353,-0.00000359,0.00002476,0.00038231,0.00042090,-0.00048465,0.0007353
 3,0.00072488,0.00026996,0.00010079,0.00030318,-0.00003077,-0.00000030,
 -0.00002461,-0.00019165,-0.00000058,0.00002237,0.00005555,-0.01706606,
 -0.00486958,0.00358121,0.00021785,0.00168249,-0.00099033,0.00013834,-0
 .00087578,0.00084081,-0.00868502,-0.00320754,-0.00471781,0.04878974,-0
 .00094001,-0.00509954,-0.00178043,-0.00037999,0.00052684,-0.00008909,0
 .00273269,0.00261369,-0.00037434,0.00088940,0.00379999,0.00326342,0.00
 018542,0.00036390,-0.00045269,0.00027713,0.00010259,-0.00047502,-0.000
 33559,0.00009236,0.00006337,-0.02041920,-0.01172739,-0.00085303,-0.003
 63425,0.00525750,-0.00334792,0.00178083,-0.00371573,0.00347592,0.00705
 389,-0.01032946,0.00449230,0.00506174,0.01081067,-0.00078808,-0.005019
 76,-0.00224571,-0.00054124,0.00053325,-0.00003701,0.00265311,0.0029275
 8,-0.00026253,0.00090706,0.00357082,0.00271333,0.00019595,0.00029478,-
 0.00033837,0.00022470,0.00009639,-0.00046370,-0.00033046,0.00008676,0.
 00007061,-0.01511658,-0.01599393,-0.00049376,-0.00393627,0.00543901,-0
 .00300792,0.00184399,-0.00388409,0.00357597,0.01079749,0.02435128,-0.0
 0261681,-0.00448134,-0.02479926,0.01405276,-0.00030075,-0.00077907,-0.
 00062963,0.00001667,-0.00019181,0.00020963,-0.00018413,0.00075407,0.00
 064409,0.00019243,0.00151922,0.00014886,0.00038901,-0.00015918,-0.0000
 0068,-0.00016332,-0.00000268,-0.00005179,0.00008904,0.00003489,-0.0000
 7557,-0.00120529,-0.01111904,0.01074714,-0.00352317,0.00161137,-0.0003
 2361,0.00084040,-0.00066189,0.00037224,-0.01463340,0.00882899,-0.01655
 948,-0.00052502,0.00445688,-0.00222073,0.01957604,-0.00069111,0.001220
 24,0.00013588,0.00013419,-0.00015203,-0.00001456,-0.00015339,-0.001315
 40,0.00138392,0.00085479,-0.00025392,-0.00048709,0.00022354,0.00008469
 ,-0.00023023,0.00001066,-0.00000152,-0.00012754,-0.00001480,0.00001425
 ,0.00000678,-0.00549153,-0.00009470,0.00012499,-0.00066110,0.00062523,
 -0.00042461,0.00016177,-0.00014887,0.00014264,0.00983688,-0.15164365,0
 .12172131,-0.00067027,0.00497439,-0.00672772,-0.00415175,0.14619047,0.
 00114326,0.00111275,0.00108048,-0.00016846,-0.00005147,0.00021284,-0.0
 0063604,-0.00123231,-0.00057762,-0.00050757,-0.00054388,-0.00056176,0.
 00020769,-0.00016074,-0.00038953,0.00000438,-0.00003971,0.00016578,0.0
 0008271,-0.00004990,-0.00005463,0.00276618,0.00094035,-0.00137364,0.00
 072482,0.00117163,-0.00043964,-0.00007405,-0.00041285,0.00040970,-0.00
 920821,0.10954412,-0.11188355,-0.00231845,0.00436015,-0.01077231,0.007
 51610,-0.11594275,0.12244845,0.00243856,0.00412310,-0.00016064,-0.0002
 6537,-0.00070177,-0.00004185,-0.00419591,-0.00452250,-0.00109856,-0.00
 128645,-0.00592092,-0.00621850,-0.00022902,0.00005470,0.00108812,-0.00
 034203,-0.00018990,0.00007591,0.00069422,-0.00000204,0.00030140,-0.016
 01031,0.00262356,-0.01668840,0.00551955,-0.00295914,0.00348509,-0.0019
 8317,0.00317943,-0.00337416,-0.01601227,-0.01579005,-0.00902517,-0.022
 63310,0.03587758,0.05853087,-0.00163089,0.00050740,0.00196812,0.084039
 35,-0.00140123,-0.00035440,-0.00022491,-0.00006818,-0.00034426,0.00031
 667,-0.00527897,-0.00099009,-0.00350649,0.00079534,-0.00087489,0.00113
 522,0.00049172,-0.00019334,0.00008876,-0.00033561,-0.00011279,0.000075
 30,0.00016259,-0.00012778,-0.00019606,0.00355632,-0.02832006,-0.017070
 82,-0.00098920,-0.01243318,-0.00436783,-0.00026641,0.00261548,-0.00020
 318,0.00507319,-0.00390031,-0.01323341,-0.00720914,0.00687706,0.007440
 01,-0.00023365,-0.00088458,0.00021286,-0.05705195,0.26852450,0.0023164
 3,-0.00383246,0.00352250,0.00030659,0.00038685,-0.00058871,-0.00699083
 ,-0.00745809,-0.00469089,-0.00248224,-0.00395695,-0.00366712,-0.000253
 92,0.00004686,-0.00015655,-0.00003181,-0.00000071,0.00010869,-0.000195
 36,0.00013552,0.00024346,-0.00156501,-0.00233623,-0.04387428,-0.001957
 57,0.00275620,0.00308324,0.00052182,-0.00118812,-0.00035047,0.01373519
 ,-0.00280748,-0.00731150,0.00626708,-0.01398443,-0.01778209,0.00054562
 ,-0.00046480,-0.00042569,0.01011748,-0.06127456,0.12648580,-0.00049648
 ,-0.00044122,0.00064117,0.00005540,0.00005651,0.00022331,0.00042871,-0
 .00015322,-0.00028938,-0.00011379,0.00033605,0.00057593,-0.00000711,-0
 .00003613,-0.00024958,0.00012135,0.00003630,0.00010964,-0.00007267,-0.
 00008408,-0.00020916,0.00085292,-0.00432092,-0.00100149,0.00067546,-0.
 00047918,-0.00037315,-0.00020642,0.00019859,0.00002600,-0.00082975,-0.
 00040930,0.00028641,0.00116232,-0.00005755,0.00029212,0.00009947,0.000
 32577,0.00030695,-0.03344303,0.05101034,-0.01845154,0.03569375,0.00045
 997,0.00074927,0.00102925,-0.00017102,-0.00021248,0.00033163,0.0003380
 3,0.00014862,0.00051329,-0.00007638,0.00230888,-0.00051848,0.00029744,
 -0.00011466,-0.00015638,-0.00009329,-0.00002856,0.00003696,0.00007729,
 -0.00005469,-0.00013908,-0.00032621,-0.00788390,-0.00207859,0.00011583
 ,-0.00177353,-0.00033277,-0.00013545,0.00081254,-0.00023949,-0.0007464
 6,-0.00058341,-0.00013350,0.00013583,0.00090140,0.00046086,0.00008812,
 0.00004776,-0.00009312,0.05616532,-0.20973140,0.08199151,-0.05711589,0
 .21429329,-0.00088966,-0.00078700,-0.00056340,-0.00014143,-0.00000554,
 0.00025263,-0.00023142,0.00117245,-0.00017663,0.00050528,0.00021367,-0
 .00010037,0.00020853,0.00001051,-0.00004350,-0.00008098,-0.00004571,-0
 .00002690,0.00000802,-0.00006471,-0.00011560,0.00332305,-0.00810870,0.
 00184324,-0.00047064,0.00002012,-0.00116336,0.00025984,-0.00029723,0.0
 0067741,-0.00005459,-0.00060497,-0.00154398,-0.00072310,0.00055610,0.0
 0098455,0.00007024,-0.00017582,-0.00022044,-0.02826159,0.09174518,-0.0
 4445821,0.02350914,-0.07958671,0.04416896,-0.00047996,-0.00597009,-0.0
 0341703,-0.00073493,0.00056628,-0.00005042,0.00349909,0.00397891,0.000
 03148,0.00072376,0.00451304,0.00377501,-0.00005669,0.00029997,-0.00015
 321,0.00031081,0.00015471,-0.00056408,-0.00035853,0.00008435,0.0000386
 4,-0.02247441,-0.02455092,-0.00795940,-0.00410321,0.00640612,-0.005669
 62,0.00222625,-0.00504367,0.00506120,0.01478003,0.03132600,0.03298132,
 -0.00246730,-0.03254897,-0.04803059,0.00096292,-0.00022105,-0.00180745
 ,0.00533987,0.01174483,-0.00188192,-0.00392014,0.00098688,0.00296933,0
 .00675245,0.00051269,-0.00017908,-0.00004103,-0.00009743,-0.00005296,0
 .00005831,-0.00046483,-0.00020760,-0.00048482,0.00001660,0.00029283,-0
 .00012434,-0.00013012,-0.00002522,0.00005108,0.00002319,-0.00000563,0.
 00004669,0.00005845,-0.00000950,-0.00000837,-0.00087353,-0.00315452,-0
 .00603505,0.00038277,0.00025336,-0.00072163,-0.00006437,-0.00004528,0.
 00020809,-0.01313000,-0.01833899,-0.01779741,0.00974630,-0.00544826,0.
 01122401,0.00000554,0.00133765,0.00118485,-0.01539283,-0.01974996,0.01
 198688,0.01113395,0.00112088,-0.00404164,0.00827361,0.04421228,0.00064
 753,0.00298798,0.00100255,0.00021939,-0.00042130,0.00011717,-0.0020899
 1,-0.00173314,-0.00032679,-0.00054553,-0.00253917,-0.00215766,-0.00001
 483,-0.00023996,0.00023343,-0.00016960,-0.00006765,0.00031100,0.000294
 90,-0.00007055,-0.00004497,0.00747755,0.00624248,0.00097614,0.00338728
 ,-0.00363684,0.00253777,-0.00148221,0.00275368,-0.00267825,-0.01903736
 ,-0.03677230,-0.03104192,0.00312298,0.02994495,0.01662299,-0.00039242,
 0.00107960,0.00238155,-0.01069813,-0.00093675,-0.01013820,-0.00539636,
 -0.00108538,0.00048559,0.02467674,0.00449435,0.02171959\\0.00000139,0.
 00000574,0.00000584,-0.00000003,0.00000301,0.00000044,-0.00000093,-0.0
 0000712,0.00000021,-0.00000110,-0.00000286,0.00000308,0.00000075,0.000
 00002,0.00000044,-0.00000130,-0.00000033,-0.00000030,-0.00000083,-0.00
 000061,-0.00000175,0.00000751,0.00000759,-0.00001544,-0.00000316,-0.00
 000515,0.00000068,-0.00000048,0.00000169,0.00000085,0.00000083,0.00000
 026,0.00000319,0.00001922,-0.00002047,-0.00001768,-0.00000358,-0.00000
 102,-0.00000170,-0.00000021,-0.00000349,0.00000599,0.00000144,-0.00000
 010,-0.00000043,-0.00001952,0.00002284,0.00001659\\\@
 The archive entry for this job was punched.


 SILVERMAN'S PARADOX - IF MURPHY'S LAW CAN GO WRONG, IT WILL.
 Job cpu time:       0 days  0 hours 21 minutes 36.8 seconds.
 Elapsed time:       0 days  0 hours  0 minutes 27.7 seconds.
 File lengths (MBytes):  RWF=    144 Int=      0 D2E=      0 Chk=      6 Scr=      2
 Normal termination of Gaussian 16 at Mon Oct 24 18:43:44 2022.
