 Entering Gaussian System, Link 0=g16
 Initial command:
 /home/chesagar/softwares/G16_AVX2//g16/l1.exe "/home/chesagar/scratch/Gau-81471.inp" -scrdir="/home/chesagar/scratch/"
 Entering Link 1 = /home/chesagar/softwares/G16_AVX2//g16/l1.exe PID=     81473.
  
 Copyright (c) 1988-2019, Gaussian, Inc.  All Rights Reserved.
  
 This is part of the Gaussian(R) 16 program.  It is based on
 the Gaussian(R) 09 system (copyright 2009, Gaussian, Inc.),
 the Gaussian(R) 03 system (copyright 2003, Gaussian, Inc.),
 the Gaussian(R) 98 system (copyright 1998, Gaussian, Inc.),
 the Gaussian(R) 94 system (copyright 1995, Gaussian, Inc.),
 the Gaussian 92(TM) system (copyright 1992, Gaussian, Inc.),
 the Gaussian 90(TM) system (copyright 1990, Gaussian, Inc.),
 the Gaussian 88(TM) system (copyright 1988, Gaussian, Inc.),
 the Gaussian 86(TM) system (copyright 1986, Carnegie Mellon
 University), and the Gaussian 82(TM) system (copyright 1983,
 Carnegie Mellon University). Gaussian is a federally registered
 trademark of Gaussian, Inc.
  
 This software contains proprietary and confidential information,
 including trade secrets, belonging to Gaussian, Inc.
  
 This software is provided under written license and may be
 used, copied, transmitted, or stored only in accord with that
 written license.
  
 The following legend is applicable only to US Government
 contracts under FAR:
  
                    RESTRICTED RIGHTS LEGEND
  
 Use, reproduction and disclosure by the US Government is
 subject to restrictions as set forth in subparagraphs (a)
 and (c) of the Commercial Computer Software - Restricted
 Rights clause in FAR 52.227-19.
  
 Gaussian, Inc.
 340 Quinnipiac St., Bldg. 40, Wallingford CT 06492
  
  
 ---------------------------------------------------------------
 Warning -- This program may not be used in any manner that
 competes with the business of Gaussian, Inc. or will provide
 assistance to any competitor of Gaussian, Inc.  The licensee
 of this program is prohibited from giving any competitor of
 Gaussian, Inc. access to this program.  By using this program,
 the user acknowledges that Gaussian, Inc. is engaged in the
 business of creating and licensing software in the field of
 computational chemistry and represents and warrants to the
 licensee that it is not a competitor of Gaussian, Inc. and that
 it will not use this program in any manner prohibited above.
 ---------------------------------------------------------------
  

 Cite this work as:
 Gaussian 16, Revision C.01,
 M. J. Frisch, G. W. Trucks, H. B. Schlegel, G. E. Scuseria, 
 M. A. Robb, J. R. Cheeseman, G. Scalmani, V. Barone, 
 G. A. Petersson, H. Nakatsuji, X. Li, M. Caricato, A. V. Marenich, 
 J. Bloino, B. G. Janesko, R. Gomperts, B. Mennucci, H. P. Hratchian, 
 J. V. Ortiz, A. F. Izmaylov, J. L. Sonnenberg, D. Williams-Young, 
 F. Ding, F. Lipparini, F. Egidi, J. Goings, B. Peng, A. Petrone, 
 T. Henderson, D. Ranasinghe, V. G. Zakrzewski, J. Gao, N. Rega, 
 G. Zheng, W. Liang, M. Hada, M. Ehara, K. Toyota, R. Fukuda, 
 J. Hasegawa, M. Ishida, T. Nakajima, Y. Honda, O. Kitao, H. Nakai, 
 T. Vreven, K. Throssell, J. A. Montgomery, Jr., J. E. Peralta, 
 F. Ogliaro, M. J. Bearpark, J. J. Heyd, E. N. Brothers, K. N. Kudin, 
 V. N. Staroverov, T. A. Keith, R. Kobayashi, J. Normand, 
 K. Raghavachari, A. P. Rendell, J. C. Burant, S. S. Iyengar, 
 J. Tomasi, M. Cossi, J. M. Millam, M. Klene, C. Adamo, R. Cammi, 
 J. W. Ochterski, R. L. Martin, K. Morokuma, O. Farkas, 
 J. B. Foresman, and D. J. Fox, Gaussian, Inc., Wallingford CT, 2019.
 
 ******************************************
 Gaussian 16:  ES64L-G16RevC.01  3-Jul-2019
                 1-Nov-2022 
 ******************************************
 %nprocshared=48
 Will use up to   48 processors via shared memory.
 %mem=100GB
 -----------------------------------------------------------
 # opt=(calcfc,ts,noeigen) freq b3lyp/gen nosymm pseudo=read
 -----------------------------------------------------------
 1/5=1,10=4,11=1,18=20,26=3,38=1/1,3;
 2/9=110,12=2,15=1,17=6,18=5,40=1/2;
 3/5=7,11=2,16=1,17=8,25=1,30=1,71=2,74=-5,140=1/1,2,3;
 4//1;
 5/5=2,38=5/2;
 8/6=4,10=90,11=11/1;
 11/6=1,8=1,9=11,15=111,16=1,31=1/1,2,10;
 10/6=1,13=1,31=1/2;
 6/7=2,8=2,9=2,10=2,28=1/1;
 7/10=1,25=1,30=1/1,2,3,16;
 1/5=1,10=4,11=1,18=20,26=3/3(2);
 2/9=110,15=1/2;
 99//99;
 2/9=110,15=1/2;
 3/5=7,6=1,11=2,16=1,17=8,25=1,30=1,71=1,74=-5,82=7/1,2,3;
 4/5=5,16=3,69=1/1;
 5/5=2,38=5/2;
 7/30=1/1,2,3,16;
 1/5=1,11=1,18=20,26=3/3(-5);
 2/9=110,15=1/2;
 6/7=2,8=2,9=2,10=2,19=2,28=1/1;
 99/9=1/99;
 -------------------
 Title Card Required
 -------------------
 Symbolic Z-matrix:
 Charge =  0 Multiplicity = 1
 42                   -0.06279   2.12134   10.77965 
 16                    0.31604   4.50414   10.77305 
 16                   -1.73057   1.78807   12.40055 
 16                   -1.10667   1.41795   8.6912 
 16                    1.95227   0.93742   10.43647 
 1                     1.6296   -0.14103   9.6885 
 42                   -2.7365    1.8752    10.32137 
 16                   -4.77849   0.7565    10.00977 
 1                    -5.68603   1.68417   9.65698 
 16                   -3.67131   4.06761   9.88319 
 1                    -4.43644   3.91893   8.76169 
 1                     1.49634   4.87869   9.55978 
 42                   -1.27764   3.75081   9.21875 
 16                    0.41472   4.33851   7.52717 
 1                     0.98659   3.17102   7.16297 
 1                     1.70965   4.76305   8.59064 
 
 Add virtual bond connecting atoms H16        and H12        Dist= 1.89D+00.
 Add virtual bond connecting atoms H12        and S2         Dist= 3.28D+00.
 Add virtual bond connecting atoms H16        and S14        Dist= 3.27D+00.

 GradGradGradGradGradGradGradGradGradGradGradGradGradGradGradGradGradGrad
 Berny optimization.
 Initialization pass.
                           ----------------------------
                           !    Initial Parameters    !
                           ! (Angstroms and Degrees)  !
 --------------------------                            --------------------------
 ! Name  Definition              Value          Derivative Info.                !
 --------------------------------------------------------------------------------
 ! R1    R(1,2)                  2.4127         calculate D2E/DX2 analytically  !
 ! R2    R(1,3)                  2.3494         calculate D2E/DX2 analytically  !
 ! R3    R(1,4)                  2.4385         calculate D2E/DX2 analytically  !
 ! R4    R(1,5)                  2.3622         calculate D2E/DX2 analytically  !
 ! R5    R(1,7)                  2.7238         calculate D2E/DX2 analytically  !
 ! R6    R(1,13)                 2.5627         calculate D2E/DX2 analytically  !
 ! R7    R(2,12)                 1.7336         calculate D2E/DX2 analytically  !
 ! R8    R(2,13)                 2.3501         calculate D2E/DX2 analytically  !
 ! R9    R(3,7)                  2.3114         calculate D2E/DX2 analytically  !
 ! R10   R(4,7)                  2.3501         calculate D2E/DX2 analytically  !
 ! R11   R(4,13)                 2.3979         calculate D2E/DX2 analytically  !
 ! R12   R(5,6)                  1.3515         calculate D2E/DX2 analytically  !
 ! R13   R(7,8)                  2.3491         calculate D2E/DX2 analytically  !
 ! R14   R(7,10)                 2.4233         calculate D2E/DX2 analytically  !
 ! R15   R(7,13)                 2.6195         calculate D2E/DX2 analytically  !
 ! R16   R(8,9)                  1.3449         calculate D2E/DX2 analytically  !
 ! R17   R(10,11)                1.3658         calculate D2E/DX2 analytically  !
 ! R18   R(10,13)                2.5043         calculate D2E/DX2 analytically  !
 ! R19   R(12,16)                0.999          calculate D2E/DX2 analytically  !
 ! R20   R(13,14)                2.4639         calculate D2E/DX2 analytically  !
 ! R21   R(14,15)                1.3501         calculate D2E/DX2 analytically  !
 ! R22   R(14,16)                1.7286         calculate D2E/DX2 analytically  !
 ! A1    A(2,1,3)              104.6812         calculate D2E/DX2 analytically  !
 ! A2    A(2,1,4)              110.4722         calculate D2E/DX2 analytically  !
 ! A3    A(2,1,5)              111.1395         calculate D2E/DX2 analytically  !
 ! A4    A(2,1,7)              104.0584         calculate D2E/DX2 analytically  !
 ! A5    A(3,1,4)              104.2456         calculate D2E/DX2 analytically  !
 ! A6    A(3,1,5)              129.3963         calculate D2E/DX2 analytically  !
 ! A7    A(3,1,13)             100.0146         calculate D2E/DX2 analytically  !
 ! A8    A(4,1,5)               95.5193         calculate D2E/DX2 analytically  !
 ! A9    A(5,1,7)              140.14           calculate D2E/DX2 analytically  !
 ! A10   A(5,1,13)             129.389          calculate D2E/DX2 analytically  !
 ! A11   A(1,2,12)             108.7953         calculate D2E/DX2 analytically  !
 ! A12   A(12,2,13)             93.904          calculate D2E/DX2 analytically  !
 ! A13   A(1,5,6)              106.0616         calculate D2E/DX2 analytically  !
 ! A14   A(1,7,8)              156.7243         calculate D2E/DX2 analytically  !
 ! A15   A(1,7,10)             109.1061         calculate D2E/DX2 analytically  !
 ! A16   A(3,7,4)              108.35           calculate D2E/DX2 analytically  !
 ! A17   A(3,7,8)              118.6643         calculate D2E/DX2 analytically  !
 ! A18   A(3,7,10)             111.3852         calculate D2E/DX2 analytically  !
 ! A19   A(3,7,13)              99.3957         calculate D2E/DX2 analytically  !
 ! A20   A(4,7,8)              114.7199         calculate D2E/DX2 analytically  !
 ! A21   A(4,7,10)             108.5499         calculate D2E/DX2 analytically  !
 ! A22   A(8,7,10)              94.1025         calculate D2E/DX2 analytically  !
 ! A23   A(8,7,13)             140.2869         calculate D2E/DX2 analytically  !
 ! A24   A(7,8,9)              107.0316         calculate D2E/DX2 analytically  !
 ! A25   A(7,10,11)            105.4319         calculate D2E/DX2 analytically  !
 ! A26   A(11,10,13)           107.6879         calculate D2E/DX2 analytically  !
 ! A27   A(2,12,16)            143.059          calculate D2E/DX2 analytically  !
 ! A28   A(1,13,10)            111.8354         calculate D2E/DX2 analytically  !
 ! A29   A(1,13,14)            104.1357         calculate D2E/DX2 analytically  !
 ! A30   A(2,13,4)             114.1426         calculate D2E/DX2 analytically  !
 ! A31   A(2,13,7)             109.1952         calculate D2E/DX2 analytically  !
 ! A32   A(2,13,10)            115.6036         calculate D2E/DX2 analytically  !
 ! A33   A(2,13,14)             84.9414         calculate D2E/DX2 analytically  !
 ! A34   A(4,13,10)            104.4535         calculate D2E/DX2 analytically  !
 ! A35   A(4,13,14)             91.836          calculate D2E/DX2 analytically  !
 ! A36   A(7,13,14)            147.382          calculate D2E/DX2 analytically  !
 ! A37   A(10,13,14)           143.949          calculate D2E/DX2 analytically  !
 ! A38   A(13,14,15)           105.6572         calculate D2E/DX2 analytically  !
 ! A39   A(13,14,16)            98.6701         calculate D2E/DX2 analytically  !
 ! A40   A(15,14,16)            93.4991         calculate D2E/DX2 analytically  !
 ! A41   A(12,16,14)           117.7284         calculate D2E/DX2 analytically  !
 ! D1    D(3,1,2,12)          -177.8466         calculate D2E/DX2 analytically  !
 ! D2    D(4,1,2,12)           -66.1714         calculate D2E/DX2 analytically  !
 ! D3    D(5,1,2,12)            38.568          calculate D2E/DX2 analytically  !
 ! D4    D(7,1,2,12)          -122.3815         calculate D2E/DX2 analytically  !
 ! D5    D(2,1,5,6)           -143.9045         calculate D2E/DX2 analytically  !
 ! D6    D(3,1,5,6)             84.091          calculate D2E/DX2 analytically  !
 ! D7    D(4,1,5,6)            -29.4421         calculate D2E/DX2 analytically  !
 ! D8    D(7,1,5,6)              6.4903         calculate D2E/DX2 analytically  !
 ! D9    D(13,1,5,6)           -80.8219         calculate D2E/DX2 analytically  !
 ! D10   D(2,1,7,8)           -179.3892         calculate D2E/DX2 analytically  !
 ! D11   D(2,1,7,10)             5.1448         calculate D2E/DX2 analytically  !
 ! D12   D(5,1,7,8)             28.9703         calculate D2E/DX2 analytically  !
 ! D13   D(5,1,7,10)          -146.4957         calculate D2E/DX2 analytically  !
 ! D14   D(3,1,13,10)           -6.4726         calculate D2E/DX2 analytically  !
 ! D15   D(3,1,13,14)          175.9735         calculate D2E/DX2 analytically  !
 ! D16   D(5,1,13,10)          161.7415         calculate D2E/DX2 analytically  !
 ! D17   D(5,1,13,14)          -15.8124         calculate D2E/DX2 analytically  !
 ! D18   D(1,2,12,16)           53.8472         calculate D2E/DX2 analytically  !
 ! D19   D(13,2,12,16)         -11.1433         calculate D2E/DX2 analytically  !
 ! D20   D(12,2,13,4)           88.7308         calculate D2E/DX2 analytically  !
 ! D21   D(12,2,13,7)          148.8144         calculate D2E/DX2 analytically  !
 ! D22   D(12,2,13,10)        -150.0653         calculate D2E/DX2 analytically  !
 ! D23   D(12,2,13,14)          -1.0155         calculate D2E/DX2 analytically  !
 ! D24   D(1,4,7,13)            69.5868         calculate D2E/DX2 analytically  !
 ! D25   D(1,7,8,9)           -173.1646         calculate D2E/DX2 analytically  !
 ! D26   D(3,7,8,9)            119.6598         calculate D2E/DX2 analytically  !
 ! D27   D(4,7,8,9)           -110.0499         calculate D2E/DX2 analytically  !
 ! D28   D(10,7,8,9)             2.5406         calculate D2E/DX2 analytically  !
 ! D29   D(13,7,8,9)           -42.0276         calculate D2E/DX2 analytically  !
 ! D30   D(1,7,10,11)          132.113          calculate D2E/DX2 analytically  !
 ! D31   D(3,7,10,11)         -169.0866         calculate D2E/DX2 analytically  !
 ! D32   D(4,7,10,11)           71.7021         calculate D2E/DX2 analytically  !
 ! D33   D(8,7,10,11)          -46.0923         calculate D2E/DX2 analytically  !
 ! D34   D(3,7,13,2)            -0.816          calculate D2E/DX2 analytically  !
 ! D35   D(3,7,13,14)          110.9483         calculate D2E/DX2 analytically  !
 ! D36   D(8,7,13,2)           162.957          calculate D2E/DX2 analytically  !
 ! D37   D(8,7,13,14)          -85.2786         calculate D2E/DX2 analytically  !
 ! D38   D(11,10,13,1)        -131.2835         calculate D2E/DX2 analytically  !
 ! D39   D(11,10,13,2)         164.1679         calculate D2E/DX2 analytically  !
 ! D40   D(11,10,13,4)         -69.5414         calculate D2E/DX2 analytically  !
 ! D41   D(11,10,13,14)         44.6837         calculate D2E/DX2 analytically  !
 ! D42   D(2,12,16,14)          18.5281         calculate D2E/DX2 analytically  !
 ! D43   D(1,13,14,15)          45.6905         calculate D2E/DX2 analytically  !
 ! D44   D(1,13,14,16)         -50.4437         calculate D2E/DX2 analytically  !
 ! D45   D(2,13,14,15)         101.5573         calculate D2E/DX2 analytically  !
 ! D46   D(2,13,14,16)           5.4231         calculate D2E/DX2 analytically  !
 ! D47   D(4,13,14,15)         -12.5208         calculate D2E/DX2 analytically  !
 ! D48   D(4,13,14,16)        -108.655          calculate D2E/DX2 analytically  !
 ! D49   D(7,13,14,15)         -16.7384         calculate D2E/DX2 analytically  !
 ! D50   D(7,13,14,16)        -112.8725         calculate D2E/DX2 analytically  !
 ! D51   D(10,13,14,15)       -130.4495         calculate D2E/DX2 analytically  !
 ! D52   D(10,13,14,16)        133.4163         calculate D2E/DX2 analytically  !
 ! D53   D(13,14,16,12)        -12.2366         calculate D2E/DX2 analytically  !
 ! D54   D(15,14,16,12)       -118.6661         calculate D2E/DX2 analytically  !
 --------------------------------------------------------------------------------
 Trust Radius=3.00D-01 FncErr=1.00D-07 GrdErr=1.00D-06 EigMax=2.50D+02 EigMin=1.00D-04
 Number of steps in this run=    100 maximum allowed number of steps=    100.
 Search for a saddle point of order  1.
 GradGradGradGradGradGradGradGradGradGradGradGradGradGradGradGradGradGrad

                          Input orientation:                          
 ---------------------------------------------------------------------
 Center     Atomic      Atomic             Coordinates (Angstroms)
 Number     Number       Type             X           Y           Z
 ---------------------------------------------------------------------
      1         42           0       -0.062794    2.121343   10.779653
      2         16           0        0.316040    4.504138   10.773048
      3         16           0       -1.730572    1.788069   12.400553
      4         16           0       -1.106674    1.417947    8.691203
      5         16           0        1.952270    0.937419   10.436475
      6          1           0        1.629599   -0.141032    9.688503
      7         42           0       -2.736502    1.875196   10.321368
      8         16           0       -4.778487    0.756497   10.009770
      9          1           0       -5.686033    1.684170    9.656981
     10         16           0       -3.671311    4.067614    9.883191
     11          1           0       -4.436439    3.918928    8.761687
     12          1           0        1.496337    4.878690    9.559778
     13         42           0       -1.277640    3.750814    9.218750
     14         16           0        0.414717    4.338510    7.527170
     15          1           0        0.986586    3.171021    7.162967
     16          1           0        1.709648    4.763051    8.590641
 ---------------------------------------------------------------------
                    Distance matrix (angstroms):
                    1          2          3          4          5
     1  Mo   0.000000
     2  S    2.412731   0.000000
     3  S    2.349441   3.770202   0.000000
     4  S    2.438457   3.985319   3.779619   0.000000
     5  S    2.362188   3.938529   4.259640   3.554437   0.000000
     6  H    3.028720   4.947654   4.729418   3.303364   1.351531
     7  Mo   2.723844   4.053809   2.311384   2.350075   4.783018
     8  S    4.969234   6.370370   4.008712   3.957063   6.746695
     9  H    5.750855   6.724783   4.814941   4.687657   7.714203
    10  S    4.196786   4.108694   3.911509   3.875427   6.459792
    11  H    5.141232   5.193660   5.010351   4.164998   7.246372
    12  H    3.394399   1.733613   5.294798   4.416654   4.063261
    13  Mo   2.562703   2.350139   3.765818   2.397875   4.453130
    14  S    3.965160   3.251599   5.903971   3.492748   4.732393
    15  H    3.909404   3.906343   6.060347   3.128979   4.078894
    16  H    3.861599   2.602322   5.933048   4.373957   4.254577
                    6          7          8          9         10
     6  H    0.000000
     7  Mo   4.850622   0.000000
     8  S    6.478606   2.349103   0.000000
     9  H    7.539949   3.029461   1.344871   0.000000
    10  S    6.771281   2.423337   3.493617   3.129070   0.000000
    11  H    7.357926   3.082082   3.416969   2.712412   1.365760
    12  H    5.023140   5.245753   7.521196   7.861351   5.240899
    13  Mo   4.880489   2.619540   4.674139   4.888455   2.504297
    14  S    5.119921   4.879102   6.779638   6.985755   4.724388
    15  H    4.214439   5.051341   6.868062   7.276996   5.468044
    16  H    5.026106   5.577040   7.756436   8.081626   5.577548
                   11         12         13         14         15
    11  H    0.000000
    12  H    6.062666   0.000000
    13  Mo   3.196120   3.013860   0.000000
    14  S    5.023325   2.364993   2.463920   0.000000
    15  H    5.703023   2.986751   3.112736   1.350077   0.000000
    16  H    6.206141   0.999050   3.216059   1.728598   2.257350
                   16
    16  H    0.000000
 Symmetry turned off by external request.
 Stoichiometry    H6Mo3S7
 Framework group  C1[X(H6Mo3S7)]
 Deg. of freedom    42
 Full point group                 C1      NOp   1
 Rotational constants (GHZ):           0.3833499           0.2611988           0.2031415
 General basis read from cards:  (5D, 7F)
 ======================================================================================================
                                       Pseudopotential Parameters
 ======================================================================================================
  Center     Atomic      Valence      Angular      Power
  Number     Number     Electrons     Momentum     of R      Exponent        Coefficient   SO-Coeffient
 ======================================================================================================
    1         42           14
                                      F and up 
                                                     0      537.9667807       -0.04694920    0.00000000
                                                     1      147.8982938      -20.20800840    0.00000000
                                                     2       45.7358898     -106.21163020    0.00000000
                                                     2       13.2911467      -41.81073680    0.00000000
                                                     2        4.7059961       -4.20541030    0.00000000
                                      S - F
                                                     0      110.2991760        2.80637170    0.00000000
                                                     1       23.2014645       44.51620120    0.00000000
                                                     2        5.3530131       82.77852270    0.00000000
                                      P - F
                                                     0       63.2901397        4.94208760    0.00000000
                                                     1       23.3315302       25.86049760    0.00000000
                                                     2       24.6759423      132.47087420    0.00000000
                                                     2        4.6493040       57.31497940    0.00000000
                                      D - F
                                                     0      104.4839977        3.00545910    0.00000000
                                                     1       66.2307245       26.36378510    0.00000000
                                                     2       39.1283176      183.38491990    0.00000000
                                                     2       13.1164437       98.44530680    0.00000000
                                                     2        3.6280263       22.49013770    0.00000000
    2         16
                                   No pseudopotential on this center.
    3         16
                                   No pseudopotential on this center.
    4         16
                                   No pseudopotential on this center.
    5         16
                                   No pseudopotential on this center.
    6          1
                                   No pseudopotential on this center.
    7         42           14
                                      F and up 
                                                     0      537.9667807       -0.04694920    0.00000000
                                                     1      147.8982938      -20.20800840    0.00000000
                                                     2       45.7358898     -106.21163020    0.00000000
                                                     2       13.2911467      -41.81073680    0.00000000
                                                     2        4.7059961       -4.20541030    0.00000000
                                      S - F
                                                     0      110.2991760        2.80637170    0.00000000
                                                     1       23.2014645       44.51620120    0.00000000
                                                     2        5.3530131       82.77852270    0.00000000
                                      P - F
                                                     0       63.2901397        4.94208760    0.00000000
                                                     1       23.3315302       25.86049760    0.00000000
                                                     2       24.6759423      132.47087420    0.00000000
                                                     2        4.6493040       57.31497940    0.00000000
                                      D - F
                                                     0      104.4839977        3.00545910    0.00000000
                                                     1       66.2307245       26.36378510    0.00000000
                                                     2       39.1283176      183.38491990    0.00000000
                                                     2       13.1164437       98.44530680    0.00000000
                                                     2        3.6280263       22.49013770    0.00000000
    8         16
                                   No pseudopotential on this center.
    9          1
                                   No pseudopotential on this center.
   10         16
                                   No pseudopotential on this center.
   11          1
                                   No pseudopotential on this center.
   12          1
                                   No pseudopotential on this center.
   13         42           14
                                      F and up 
                                                     0      537.9667807       -0.04694920    0.00000000
                                                     1      147.8982938      -20.20800840    0.00000000
                                                     2       45.7358898     -106.21163020    0.00000000
                                                     2       13.2911467      -41.81073680    0.00000000
                                                     2        4.7059961       -4.20541030    0.00000000
                                      S - F
                                                     0      110.2991760        2.80637170    0.00000000
                                                     1       23.2014645       44.51620120    0.00000000
                                                     2        5.3530131       82.77852270    0.00000000
                                      P - F
                                                     0       63.2901397        4.94208760    0.00000000
                                                     1       23.3315302       25.86049760    0.00000000
                                                     2       24.6759423      132.47087420    0.00000000
                                                     2        4.6493040       57.31497940    0.00000000
                                      D - F
                                                     0      104.4839977        3.00545910    0.00000000
                                                     1       66.2307245       26.36378510    0.00000000
                                                     2       39.1283176      183.38491990    0.00000000
                                                     2       13.1164437       98.44530680    0.00000000
                                                     2        3.6280263       22.49013770    0.00000000
   14         16
                                   No pseudopotential on this center.
   15          1
                                   No pseudopotential on this center.
   16          1
                                   No pseudopotential on this center.
 ======================================================================================================
   222 basis functions,   553 primitive gaussians,   235 cartesian basis functions
    80 alpha electrons       80 beta electrons
       nuclear repulsion energy      1755.3398005371 Hartrees.
 NAtoms=   16 NActive=   16 NUniq=   16 SFac= 1.00D+00 NAtFMM=   60 NAOKFM=F Big=F
 Integral buffers will be    131072 words long.
 Raffenetti 2 integral format.
 Two-electron integral symmetry is turned off.
 One-electron integrals computed using PRISM.
   1 Symmetry operations used in ECPInt.
 ECPInt:  NShTT=    3003 NPrTT=   20388 LenC2=    2799 LenP2D=   13486.
 LDataN:  DoStor=T MaxTD1= 5 Len=  102
 NBasis=   222 RedAO= T EigKep=  1.19D-03  NBF=   222
 NBsUse=   222 1.00D-06 EigRej= -1.00D+00 NBFU=   222
 Defaulting to unpruned grid for atomic number  42.
 Defaulting to unpruned grid for atomic number  42.
 Defaulting to unpruned grid for atomic number  42.
 ExpMin= 2.47D-02 ExpMax= 2.19D+04 ExpMxC= 3.30D+03 IAcc=3 IRadAn=         5 AccDes= 0.00D+00
 Harris functional with IExCor=  402 and IRadAn=       5 diagonalized for initial guess.
 HarFok:  IExCor=  402 AccDes= 0.00D+00 IRadAn=         5 IDoV= 1 UseB2=F ITyADJ=14
 ICtDFT=  3500011 ScaDFX=  1.000000  1.000000  1.000000  1.000000
 Defaulting to unpruned grid for atomic number  42.
 FoFCou: FMM=F IPFlag=           0 FMFlag=      100000 FMFlg1=           0
         NFxFlg=           0 DoJE=T BraDBF=F KetDBF=T FulRan=T
         wScrn=  0.000000 ICntrl=       500 IOpCl=  0 I1Cent=   200000004 NGrid=           0
         NMat0=    1 NMatS0=      1 NMatT0=    0 NMatD0=    1 NMtDS0=    0 NMtDT0=    0
 Symmetry not used in FoFCou.
 Requested convergence on RMS density matrix=1.00D-08 within 128 cycles.
 Requested convergence on MAX density matrix=1.00D-06.
 Requested convergence on             energy=1.00D-06.
 No special actions if energy rises.
 Defaulting to unpruned grid for atomic number  42.
 Defaulting to unpruned grid for atomic number  42.
 Defaulting to unpruned grid for atomic number  42.
 Defaulting to unpruned grid for atomic number  42.
 Defaulting to unpruned grid for atomic number  42.
 Defaulting to unpruned grid for atomic number  42.
 Defaulting to unpruned grid for atomic number  42.
 Defaulting to unpruned grid for atomic number  42.
 Defaulting to unpruned grid for atomic number  42.
 Defaulting to unpruned grid for atomic number  42.
 Defaulting to unpruned grid for atomic number  42.
 Defaulting to unpruned grid for atomic number  42.
 Defaulting to unpruned grid for atomic number  42.
 Defaulting to unpruned grid for atomic number  42.
 Defaulting to unpruned grid for atomic number  42.
 Defaulting to unpruned grid for atomic number  42.
 Defaulting to unpruned grid for atomic number  42.
 Defaulting to unpruned grid for atomic number  42.
 Defaulting to unpruned grid for atomic number  42.
 Defaulting to unpruned grid for atomic number  42.
 Defaulting to unpruned grid for atomic number  42.
 Defaulting to unpruned grid for atomic number  42.
 Defaulting to unpruned grid for atomic number  42.
 Defaulting to unpruned grid for atomic number  42.
 Defaulting to unpruned grid for atomic number  42.
 Defaulting to unpruned grid for atomic number  42.
 Defaulting to unpruned grid for atomic number  42.
 Defaulting to unpruned grid for atomic number  42.
 Defaulting to unpruned grid for atomic number  42.
 Defaulting to unpruned grid for atomic number  42.
 Defaulting to unpruned grid for atomic number  42.
 Defaulting to unpruned grid for atomic number  42.
 Defaulting to unpruned grid for atomic number  42.
 Defaulting to unpruned grid for atomic number  42.
 Defaulting to unpruned grid for atomic number  42.
 Defaulting to unpruned grid for atomic number  42.
 Defaulting to unpruned grid for atomic number  42.
 Defaulting to unpruned grid for atomic number  42.
 Defaulting to unpruned grid for atomic number  42.
 Defaulting to unpruned grid for atomic number  42.
 Defaulting to unpruned grid for atomic number  42.
 Defaulting to unpruned grid for atomic number  42.
 Defaulting to unpruned grid for atomic number  42.
 Defaulting to unpruned grid for atomic number  42.
 Defaulting to unpruned grid for atomic number  42.
 Defaulting to unpruned grid for atomic number  42.
 Defaulting to unpruned grid for atomic number  42.
 Defaulting to unpruned grid for atomic number  42.
 EnCoef did     3 forward-backward iterations
 EnCoef did     3 forward-backward iterations
 EnCoef did     2 forward-backward iterations
 EnCoef did     4 forward-backward iterations
 EnCoef did     4 forward-backward iterations
 Restarting incremental Fock formation.
 SCF Done:  E(RB3LYP) =  -2993.73446390     A.U. after   24 cycles
            NFock= 24  Conv=0.98D-08     -V/T= 2.0496
 DoSCS=F DFT=T ScalE2(SS,OS)=  1.000000  1.000000
 Range of M.O.s used for correlation:     1   222
 NBasis=   222 NAE=    80 NBE=    80 NFC=     0 NFV=     0
 NROrb=    222 NOA=    80 NOB=    80 NVA=   142 NVB=   142

 **** Warning!!: The smallest alpha delta epsilon is  0.65243420D-01

   1 Symmetry operations used in ECPInt.
 ECPInt:  NShTT=    3003 NPrTT=   20388 LenC2=    2799 LenP2D=   13486.
 LDataN:  DoStor=T MaxTD1= 6 Len=  172
 Symmetrizing basis deriv contribution to polar:
 IMax=3 JMax=2 DiffMx= 0.00D+00
 G2DrvN: will do    17 centers at a time, making    1 passes.
 Calling FoFCou, ICntrl=  3107 FMM=F I1Cent=   0 AccDes= 0.00D+00.
 Defaulting to unpruned grid for atomic number  42.
 Defaulting to unpruned grid for atomic number  42.
 Defaulting to unpruned grid for atomic number  42.
 Defaulting to unpruned grid for atomic number  42.
 Defaulting to unpruned grid for atomic number  42.
 Defaulting to unpruned grid for atomic number  42.
 Defaulting to unpruned grid for atomic number  42.
 Defaulting to unpruned grid for atomic number  42.
 Defaulting to unpruned grid for atomic number  42.
 Defaulting to unpruned grid for atomic number  42.
 Defaulting to unpruned grid for atomic number  42.
 Defaulting to unpruned grid for atomic number  42.
 Defaulting to unpruned grid for atomic number  42.
 Defaulting to unpruned grid for atomic number  42.
 Defaulting to unpruned grid for atomic number  42.
 Defaulting to unpruned grid for atomic number  42.
 Defaulting to unpruned grid for atomic number  42.
 Defaulting to unpruned grid for atomic number  42.
 Defaulting to unpruned grid for atomic number  42.
 Defaulting to unpruned grid for atomic number  42.
 Defaulting to unpruned grid for atomic number  42.
 Defaulting to unpruned grid for atomic number  42.
 Defaulting to unpruned grid for atomic number  42.
 Defaulting to unpruned grid for atomic number  42.
 Defaulting to unpruned grid for atomic number  42.
 Defaulting to unpruned grid for atomic number  42.
 Defaulting to unpruned grid for atomic number  42.
 Defaulting to unpruned grid for atomic number  42.
 Defaulting to unpruned grid for atomic number  42.
 Defaulting to unpruned grid for atomic number  42.
 Defaulting to unpruned grid for atomic number  42.
 Defaulting to unpruned grid for atomic number  42.
 Defaulting to unpruned grid for atomic number  42.
 Defaulting to unpruned grid for atomic number  42.
 Defaulting to unpruned grid for atomic number  42.
 Defaulting to unpruned grid for atomic number  42.
 Defaulting to unpruned grid for atomic number  42.
 Defaulting to unpruned grid for atomic number  42.
 Defaulting to unpruned grid for atomic number  42.
 Defaulting to unpruned grid for atomic number  42.
 Defaulting to unpruned grid for atomic number  42.
 Defaulting to unpruned grid for atomic number  42.
 Defaulting to unpruned grid for atomic number  42.
 Defaulting to unpruned grid for atomic number  42.
 Defaulting to unpruned grid for atomic number  42.
 Defaulting to unpruned grid for atomic number  42.
 Defaulting to unpruned grid for atomic number  42.
 Defaulting to unpruned grid for atomic number  42.
 End of G2Drv F.D. properties file   721 does not exist.
 End of G2Drv F.D. properties file   722 does not exist.
 End of G2Drv F.D. properties file   788 does not exist.
          IDoAtm=1111111111111111
          Differentiating once with respect to nuclear coordinates.
 Defaulting to unpruned grid for atomic number  42.
 Defaulting to unpruned grid for atomic number  42.
 Defaulting to unpruned grid for atomic number  42.
 Keep R1 ints in memory in canonical form, NReq=357270566.
 Defaulting to unpruned grid for atomic number  42.
 Defaulting to unpruned grid for atomic number  42.
 Defaulting to unpruned grid for atomic number  42.
 Defaulting to unpruned grid for atomic number  42.
 Defaulting to unpruned grid for atomic number  42.
 Defaulting to unpruned grid for atomic number  42.
 Defaulting to unpruned grid for atomic number  42.
 Defaulting to unpruned grid for atomic number  42.
 Defaulting to unpruned grid for atomic number  42.
 Defaulting to unpruned grid for atomic number  42.
 Defaulting to unpruned grid for atomic number  42.
 Defaulting to unpruned grid for atomic number  42.
 Defaulting to unpruned grid for atomic number  42.
 Defaulting to unpruned grid for atomic number  42.
 Defaulting to unpruned grid for atomic number  42.
 Defaulting to unpruned grid for atomic number  42.
 Defaulting to unpruned grid for atomic number  42.
 Defaulting to unpruned grid for atomic number  42.
 Defaulting to unpruned grid for atomic number  42.
 Defaulting to unpruned grid for atomic number  42.
 Defaulting to unpruned grid for atomic number  42.
 Defaulting to unpruned grid for atomic number  42.
 Defaulting to unpruned grid for atomic number  42.
 Defaulting to unpruned grid for atomic number  42.
 Defaulting to unpruned grid for atomic number  42.
 Defaulting to unpruned grid for atomic number  42.
 Defaulting to unpruned grid for atomic number  42.
 Defaulting to unpruned grid for atomic number  42.
 Defaulting to unpruned grid for atomic number  42.
 Defaulting to unpruned grid for atomic number  42.
 Defaulting to unpruned grid for atomic number  42.
 Defaulting to unpruned grid for atomic number  42.
 Defaulting to unpruned grid for atomic number  42.
 Defaulting to unpruned grid for atomic number  42.
 Defaulting to unpruned grid for atomic number  42.
 Defaulting to unpruned grid for atomic number  42.
 Defaulting to unpruned grid for atomic number  42.
 Defaulting to unpruned grid for atomic number  42.
 Defaulting to unpruned grid for atomic number  42.
 Defaulting to unpruned grid for atomic number  42.
 Defaulting to unpruned grid for atomic number  42.
 Defaulting to unpruned grid for atomic number  42.
 Defaulting to unpruned grid for atomic number  42.
 Defaulting to unpruned grid for atomic number  42.
 Defaulting to unpruned grid for atomic number  42.
 Defaulting to unpruned grid for atomic number  42.
 Defaulting to unpruned grid for atomic number  42.
 Defaulting to unpruned grid for atomic number  42.
          There are    51 degrees of freedom in the 1st order CPHF.  IDoFFX=6 NUNeed=     0.
     45 vectors produced by pass  0 Test12= 2.23D-14 1.96D-09 XBig12= 2.05D-01 1.12D-01.
 AX will form    45 AO Fock derivatives at one time.
     45 vectors produced by pass  1 Test12= 2.23D-14 1.96D-09 XBig12= 3.57D-01 1.92D-01.
     45 vectors produced by pass  2 Test12= 2.23D-14 1.96D-09 XBig12= 1.98D-02 2.83D-02.
     45 vectors produced by pass  3 Test12= 2.23D-14 1.96D-09 XBig12= 6.25D-04 3.64D-03.
     45 vectors produced by pass  4 Test12= 2.23D-14 1.96D-09 XBig12= 1.12D-05 4.09D-04.
     45 vectors produced by pass  5 Test12= 2.23D-14 1.96D-09 XBig12= 1.02D-07 4.19D-05.
     45 vectors produced by pass  6 Test12= 2.23D-14 1.96D-09 XBig12= 5.85D-10 2.79D-06.
     26 vectors produced by pass  7 Test12= 2.23D-14 1.96D-09 XBig12= 1.88D-12 1.80D-07.
      4 vectors produced by pass  8 Test12= 2.23D-14 1.96D-09 XBig12= 5.12D-15 7.52D-09.
 InvSVY:  IOpt=1 It=  1 EMax= 5.00D-16
 Solved reduced A of dimension   345 with    51 vectors.
 End of Minotr F.D. properties file   721 does not exist.
 End of Minotr F.D. properties file   722 does not exist.
 End of Minotr F.D. properties file   788 does not exist.

 **********************************************************************

            Population analysis using the SCF Density.

 **********************************************************************

 Alpha  occ. eigenvalues --  -88.90584 -88.90381 -88.90294 -88.90254 -88.87623
 Alpha  occ. eigenvalues --  -88.86883 -88.86177  -7.98312  -7.98002  -7.97981
 Alpha  occ. eigenvalues --   -7.97897  -7.95389  -7.94698  -7.93930  -5.94503
 Alpha  occ. eigenvalues --   -5.94321  -5.94169  -5.94165  -5.94020  -5.93965
 Alpha  occ. eigenvalues --   -5.93932  -5.93897  -5.93852  -5.93800  -5.93714
 Alpha  occ. eigenvalues --   -5.93693  -5.91359  -5.91344  -5.91310  -5.90977
 Alpha  occ. eigenvalues --   -5.90576  -5.90392  -5.90208  -5.89730  -5.89712
 Alpha  occ. eigenvalues --   -2.53897  -2.52996  -2.52213  -1.58237  -1.56887
 Alpha  occ. eigenvalues --   -1.56073  -1.55838  -1.54946  -1.54687  -1.54223
 Alpha  occ. eigenvalues --   -1.53951  -1.53202  -0.76875  -0.75334  -0.73707
 Alpha  occ. eigenvalues --   -0.72932  -0.72223  -0.71447  -0.69958  -0.49851
 Alpha  occ. eigenvalues --   -0.45777  -0.43981  -0.43167  -0.41775  -0.39574
 Alpha  occ. eigenvalues --   -0.39083  -0.38638  -0.38025  -0.37133  -0.36213
 Alpha  occ. eigenvalues --   -0.34361  -0.34133  -0.33788  -0.32955  -0.32427
 Alpha  occ. eigenvalues --   -0.31829  -0.30907  -0.30071  -0.29550  -0.27551
 Alpha  occ. eigenvalues --   -0.26555  -0.26370  -0.26073  -0.24052  -0.21173
 Alpha virt. eigenvalues --   -0.14648  -0.12945  -0.12486  -0.11675  -0.10577
 Alpha virt. eigenvalues --   -0.10447  -0.10126  -0.08314  -0.07581  -0.07122
 Alpha virt. eigenvalues --   -0.04927  -0.02292  -0.01067  -0.00045   0.00956
 Alpha virt. eigenvalues --    0.01426   0.02620   0.03116   0.03905   0.04395
 Alpha virt. eigenvalues --    0.05262   0.06188   0.06943   0.07096   0.07541
 Alpha virt. eigenvalues --    0.08305   0.12122   0.12219   0.14593   0.16073
 Alpha virt. eigenvalues --    0.16875   0.17114   0.18549   0.19790   0.23627
 Alpha virt. eigenvalues --    0.24010   0.26956   0.28400   0.28595   0.29783
 Alpha virt. eigenvalues --    0.30384   0.30844   0.31338   0.32018   0.32759
 Alpha virt. eigenvalues --    0.33359   0.34319   0.35073   0.35767   0.36894
 Alpha virt. eigenvalues --    0.37358   0.37612   0.38294   0.38612   0.39515
 Alpha virt. eigenvalues --    0.40727   0.41118   0.41745   0.42964   0.44475
 Alpha virt. eigenvalues --    0.45215   0.45991   0.47306   0.48199   0.49868
 Alpha virt. eigenvalues --    0.51392   0.52234   0.53139   0.55431   0.56914
 Alpha virt. eigenvalues --    0.56983   0.59287   0.60802   0.61122   0.62298
 Alpha virt. eigenvalues --    0.65143   0.65398   0.66704   0.69213   0.70956
 Alpha virt. eigenvalues --    0.71037   0.72388   0.73497   0.74294   0.74386
 Alpha virt. eigenvalues --    0.74656   0.75354   0.76074   0.77401   0.78170
 Alpha virt. eigenvalues --    0.79002   0.80335   0.80599   0.81040   0.82479
 Alpha virt. eigenvalues --    0.84860   0.85393   0.87504   0.88029   0.90433
 Alpha virt. eigenvalues --    0.91765   0.93505   0.93861   0.94868   0.95814
 Alpha virt. eigenvalues --    0.96827   0.97918   0.99028   0.99302   1.02020
 Alpha virt. eigenvalues --    1.03003   1.03617   1.05952   1.06489   1.09014
 Alpha virt. eigenvalues --    1.09428   1.12016   1.14307   1.16219   1.17466
 Alpha virt. eigenvalues --    1.20657   1.77839   1.91640   1.99907   2.06598
 Alpha virt. eigenvalues --    2.07424   2.07568   2.07877   2.08592   2.08843
 Alpha virt. eigenvalues --    2.10333   2.14043   2.34328   2.53990   2.69039
 Alpha virt. eigenvalues --    2.71750   2.72683   2.74826   3.35091   7.48836
 Alpha virt. eigenvalues --    8.77236  10.71046
          Condensed to atoms (all electrons):
               1          2          3          4          5          6
     1  Mo  13.499740   0.225603   0.231553   0.104605   0.299311  -0.031166
     2  S    0.225603  15.601854  -0.000834   0.006668   0.002292   0.000084
     3  S    0.231553  -0.000834  15.649258  -0.003424   0.007163  -0.000333
     4  S    0.104605   0.006668  -0.003424  15.538026  -0.010328  -0.003307
     5  S    0.299311   0.002292   0.007163  -0.010328  15.635149   0.268360
     6  H   -0.031166   0.000084  -0.000333  -0.003307   0.268360   0.668421
     7  Mo  -0.293388  -0.012374   0.241317   0.195810  -0.020456   0.002462
     8  S   -0.043148  -0.000100   0.014238   0.018194   0.000036  -0.000005
     9  H    0.002609   0.000001   0.000302  -0.000023  -0.000000   0.000000
    10  S   -0.005791   0.003188   0.006236  -0.011581  -0.000071   0.000001
    11  H    0.001978   0.000085   0.000099   0.000968   0.000000  -0.000000
    12  H   -0.028129   0.094369   0.000006   0.000415  -0.001438  -0.000008
    13  Mo   0.004135   0.228621  -0.037076   0.109138  -0.005005   0.002911
    14  S   -0.004267  -0.081293  -0.000295  -0.016101   0.000723   0.000029
    15  H    0.003773   0.002109   0.000002  -0.002220  -0.000217   0.000007
    16  H   -0.005287  -0.066110  -0.000005   0.000280   0.000234  -0.000007
               7          8          9         10         11         12
     1  Mo  -0.293388  -0.043148   0.002609  -0.005791   0.001978  -0.028129
     2  S   -0.012374  -0.000100   0.000001   0.003188   0.000085   0.094369
     3  S    0.241317   0.014238   0.000302   0.006236   0.000099   0.000006
     4  S    0.195810   0.018194  -0.000023  -0.011581   0.000968   0.000415
     5  S   -0.020456   0.000036  -0.000000  -0.000071   0.000000  -0.001438
     6  H    0.002462  -0.000005   0.000000   0.000001  -0.000000  -0.000008
     7  Mo  13.555260   0.312059  -0.024460   0.181790  -0.031226   0.003630
     8  S    0.312059  15.648580   0.247372  -0.017327  -0.004134   0.000000
     9  H   -0.024460   0.247372   0.711182  -0.008290   0.006721  -0.000000
    10  S    0.181790  -0.017327  -0.008290  15.534834   0.220716   0.000171
    11  H   -0.031226  -0.004134   0.006721   0.220716   0.757846  -0.000000
    12  H    0.003630   0.000000  -0.000000   0.000171  -0.000000   0.867635
    13  Mo  -0.157522  -0.023042  -0.000531   0.155664  -0.032421  -0.042287
    14  S   -0.018595   0.000020  -0.000001  -0.001072  -0.000284  -0.134690
    15  H    0.002313  -0.000000   0.000000  -0.000032  -0.000001   0.000742
    16  H    0.001113   0.000000  -0.000000   0.000087  -0.000000   0.270921
              13         14         15         16
     1  Mo   0.004135  -0.004267   0.003773  -0.005287
     2  S    0.228621  -0.081293   0.002109  -0.066110
     3  S   -0.037076  -0.000295   0.000002  -0.000005
     4  S    0.109138  -0.016101  -0.002220   0.000280
     5  S   -0.005005   0.000723  -0.000217   0.000234
     6  H    0.002911   0.000029   0.000007  -0.000007
     7  Mo  -0.157522  -0.018595   0.002313   0.001113
     8  S   -0.023042   0.000020  -0.000000   0.000000
     9  H   -0.000531  -0.000001   0.000000  -0.000000
    10  S    0.155664  -0.001072  -0.000032   0.000087
    11  H   -0.032421  -0.000284  -0.000001  -0.000000
    12  H   -0.042287  -0.134690   0.000742   0.270921
    13  Mo  13.619078   0.258713  -0.028223  -0.045307
    14  S    0.258713  15.672202   0.283146   0.104395
    15  H   -0.028223   0.283146   0.615663  -0.008450
    16  H   -0.045307   0.104395  -0.008450   0.689649
 Mulliken charges:
               1
     1  Mo   0.037869
     2  S   -0.004163
     3  S   -0.108206
     4  S    0.072881
     5  S   -0.175752
     6  H    0.092549
     7  Mo   0.062266
     8  S   -0.152745
     9  H    0.065117
    10  S   -0.058525
    11  H    0.079652
    12  H   -0.031339
    13  Mo  -0.006847
    14  S   -0.062631
    15  H    0.131387
    16  H    0.058487
 Sum of Mulliken charges =  -0.00000
 Mulliken charges with hydrogens summed into heavy atoms:
               1
     1  Mo   0.037869
     2  S   -0.035502
     3  S   -0.108206
     4  S    0.072881
     5  S   -0.083202
     7  Mo   0.062266
     8  S   -0.087628
    10  S    0.021127
    13  Mo  -0.006847
    14  S    0.127243
 APT charges:
               1
     1  Mo  -0.782534
     2  S    0.116506
     3  S    0.632619
     4  S   -0.338275
     5  S    0.318473
     6  H   -0.649967
     7  Mo  -0.586270
     8  S   -0.580219
     9  H    0.396688
    10  S    0.944783
    11  H   -0.633458
    12  H    0.147240
    13  Mo   1.106719
    14  S    0.924236
    15  H   -0.351126
    16  H   -0.665413
 Sum of APT charges =  -0.00000
 APT charges with hydrogens summed into heavy atoms:
               1
     1  Mo  -0.782534
     2  S    0.263746
     3  S    0.632619
     4  S   -0.338275
     5  S   -0.331494
     7  Mo  -0.586270
     8  S   -0.183532
    10  S    0.311325
    13  Mo   1.106719
    14  S   -0.092304
 Electronic spatial extent (au):  <R**2>=          66163.0594
 Charge=             -0.0000 electrons
 Dipole moment (field-independent basis, Debye):
    X=              0.4125    Y=              1.8308    Z=             -3.0928  Tot=              3.6177
 Quadrupole moment (field-independent basis, Debye-Ang):
   XX=           -167.5144   YY=           -155.1129   ZZ=           -227.9096
   XY=             -7.8311   XZ=              8.8601   YZ=             10.5338
 Traceless Quadrupole moment (field-independent basis, Debye-Ang):
   XX=             15.9979   YY=             28.3994   ZZ=            -44.3973
   XY=             -7.8311   XZ=              8.8601   YZ=             10.5338
 Octapole moment (field-independent basis, Debye-Ang**2):
  XXX=            600.5389  YYY=          -1232.7042  ZZZ=          -5914.3431  XYY=            183.9882
  XXY=           -382.5593  XXZ=          -1710.6622  XZZ=            352.7091  YZZ=           -400.6884
  YYZ=          -1576.3484  XYZ=            -54.6364
 Hexadecapole moment (field-independent basis, Debye-Ang**3):
 XXXX=          -5155.2651 YYYY=          -8326.1456 ZZZZ=        -113839.1542 XXXY=           1146.3341
 XXXZ=           6223.9467 YYYX=           1307.6140 YYYZ=         -12131.5576 ZZZX=           8428.5352
 ZZZY=         -13041.2937 XXYY=          -2178.1844 XXZZ=         -18602.0133 YYZZ=         -17746.3956
 XXYZ=          -3840.3996 YYXZ=           1963.8446 ZZXY=            162.4318
 N-N= 1.755339800537D+03 E-N=-1.055634290562D+04  KE= 2.852169818624D+03
  Exact polarizability:       0.000       0.000       0.000       0.000       0.000       0.000
 Approx polarizability:     946.644     117.983     666.511     -31.367    -124.382     620.221
   1 Symmetry operations used in ECPInt.
 ECPInt:  NShTT=    3003 NPrTT=   20388 LenC2=    2799 LenP2D=   13486.
 LDataN:  DoStor=T MaxTD1= 7 Len=  274
 Calling FoFJK, ICntrl=    100127 FMM=F ISym2X=0 I1Cent= 0 IOpClX= 0 NMat=1 NMatS=1 NMatT=0.
 Defaulting to unpruned grid for atomic number  42.
 Defaulting to unpruned grid for atomic number  42.
 Defaulting to unpruned grid for atomic number  42.
 Defaulting to unpruned grid for atomic number  42.
 Defaulting to unpruned grid for atomic number  42.
 Defaulting to unpruned grid for atomic number  42.
 Defaulting to unpruned grid for atomic number  42.
 Defaulting to unpruned grid for atomic number  42.
 Defaulting to unpruned grid for atomic number  42.
 Defaulting to unpruned grid for atomic number  42.
 Defaulting to unpruned grid for atomic number  42.
 Defaulting to unpruned grid for atomic number  42.
 Defaulting to unpruned grid for atomic number  42.
 Defaulting to unpruned grid for atomic number  42.
 Defaulting to unpruned grid for atomic number  42.
 Defaulting to unpruned grid for atomic number  42.
 Defaulting to unpruned grid for atomic number  42.
 Defaulting to unpruned grid for atomic number  42.
 Defaulting to unpruned grid for atomic number  42.
 Defaulting to unpruned grid for atomic number  42.
 Defaulting to unpruned grid for atomic number  42.
 Defaulting to unpruned grid for atomic number  42.
 Defaulting to unpruned grid for atomic number  42.
 Defaulting to unpruned grid for atomic number  42.
 Defaulting to unpruned grid for atomic number  42.
 Defaulting to unpruned grid for atomic number  42.
 Defaulting to unpruned grid for atomic number  42.
 Defaulting to unpruned grid for atomic number  42.
 Defaulting to unpruned grid for atomic number  42.
 Defaulting to unpruned grid for atomic number  42.
 Defaulting to unpruned grid for atomic number  42.
 Defaulting to unpruned grid for atomic number  42.
 Defaulting to unpruned grid for atomic number  42.
 Defaulting to unpruned grid for atomic number  42.
 Defaulting to unpruned grid for atomic number  42.
 Defaulting to unpruned grid for atomic number  42.
 Defaulting to unpruned grid for atomic number  42.
 Defaulting to unpruned grid for atomic number  42.
 Defaulting to unpruned grid for atomic number  42.
 Defaulting to unpruned grid for atomic number  42.
 Defaulting to unpruned grid for atomic number  42.
 Defaulting to unpruned grid for atomic number  42.
 Defaulting to unpruned grid for atomic number  42.
 Defaulting to unpruned grid for atomic number  42.
 Defaulting to unpruned grid for atomic number  42.
 Defaulting to unpruned grid for atomic number  42.
 Defaulting to unpruned grid for atomic number  42.
 Defaulting to unpruned grid for atomic number  42.
 -------------------------------------------------------------------
 Center     Atomic                   Forces (Hartrees/Bohr)
 Number     Number              X              Y              Z
 -------------------------------------------------------------------
      1       42           0.002729265    0.010122524    0.009937452
      2       16          -0.001136711   -0.010905534   -0.000590529
      3       16           0.004925111    0.001554308   -0.003736038
      4       16          -0.000441041    0.001720139   -0.001755810
      5       16          -0.003810714   -0.000821774    0.000090492
      6        1           0.000367145    0.001066990   -0.000367755
      7       42          -0.004127031   -0.006500734    0.003404772
      8       16           0.005247644   -0.002982459    0.001064980
      9        1          -0.002947035    0.003757427   -0.000905528
     10       16          -0.000087554   -0.000229541   -0.002413582
     11        1          -0.000363098    0.001255761    0.000460986
     12        1           0.014816879   -0.002229302   -0.002505415
     13       42           0.009596737    0.005615266   -0.011917193
     14       16          -0.011752058   -0.006296213   -0.011705083
     15        1          -0.001471895    0.000362908   -0.000613610
     16        1          -0.011545642    0.004510235    0.021551859
 -------------------------------------------------------------------
 Cartesian Forces:  Max     0.021551859 RMS     0.006397590
 FormGI is forming the generalized inverse of G from B-inverse, IUseBI=4.

 GradGradGradGradGradGradGradGradGradGradGradGradGradGradGradGradGradGrad
 Berny optimization.
 Internal  Forces:  Max     0.014295494 RMS     0.003098361
 Search for a saddle point.
 Step number   1 out of a maximum of  100
 All quantities printed in internal units (Hartrees-Bohrs-Radians)
 Swapping is turned off.
 Second derivative matrix not updated -- analytic derivatives used.
 ITU=  0
     Eigenvalues ---   -0.05112   0.00096   0.00133   0.00313   0.00329
     Eigenvalues ---    0.00451   0.00533   0.00834   0.01016   0.01210
     Eigenvalues ---    0.01558   0.01628   0.02144   0.02152   0.03076
     Eigenvalues ---    0.03325   0.03550   0.04261   0.04521   0.05659
     Eigenvalues ---    0.05833   0.05956   0.06147   0.06533   0.07148
     Eigenvalues ---    0.07568   0.07904   0.08091   0.08404   0.08669
     Eigenvalues ---    0.08823   0.09579   0.10761   0.10968   0.12241
     Eigenvalues ---    0.12548   0.12922   0.13568   0.23203   0.26124
     Eigenvalues ---    0.26454   0.26767
 Eigenvectors required to have negative eigenvalues:
                          R22       R7        R19       R20       R1
   1                    0.57809   0.54487  -0.52727  -0.12817  -0.10541
                          R6        A33       A41       R8        A3
   1                    0.08974   0.07656  -0.06552  -0.06329   0.06054
 RFO step:  Lambda0=3.460018831D-03 Lambda=-1.19848883D-02.
 Linear search not attempted -- option 19 set.
 Maximum step size (   0.300) exceeded in Quadratic search.
    -- Step size scaled by   0.619
 Iteration  1 RMS(Cart)=  0.02703939 RMS(Int)=  0.00287307
 Iteration  2 RMS(Cart)=  0.00193239 RMS(Int)=  0.00104074
 Iteration  3 RMS(Cart)=  0.00001625 RMS(Int)=  0.00104058
 Iteration  4 RMS(Cart)=  0.00000004 RMS(Int)=  0.00104058
 Variable       Old X    -DE/DX   Delta X   Delta X   Delta X     New X
                                 (Linear)    (Quad)   (Total)
    R1        4.55940  -0.01063   0.00000  -0.06111  -0.06095   4.49845
    R2        4.43980  -0.00601   0.00000  -0.02712  -0.02712   4.41268
    R3        4.60802   0.00308   0.00000   0.01929   0.01928   4.62729
    R4        4.46389  -0.00302   0.00000  -0.01008  -0.01008   4.45380
    R5        5.14732  -0.00083   0.00000  -0.00392  -0.00361   5.14371
    R6        4.84281   0.00312   0.00000   0.00276   0.00291   4.84572
    R7        3.27605  -0.00463   0.00000  -0.12747  -0.12607   3.14999
    R8        4.44112   0.00339   0.00000   0.02317   0.02251   4.46363
    R9        4.36788  -0.00002   0.00000   0.00259   0.00230   4.37018
   R10        4.44100   0.00085   0.00000   0.00463   0.00459   4.44559
   R11        4.53133  -0.00249   0.00000  -0.01524  -0.01499   4.51633
   R12        2.55402  -0.00073   0.00000  -0.00170  -0.00170   2.55233
   R13        4.43916  -0.00239   0.00000  -0.01051  -0.01051   4.42865
   R14        4.57944   0.00276   0.00000   0.01017   0.01000   4.58944
   R15        4.95021   0.00313   0.00000   0.01902   0.01903   4.96925
   R16        2.54144   0.00482   0.00000   0.01078   0.01078   2.55221
   R17        2.58091  -0.00031   0.00000  -0.00046  -0.00046   2.58045
   R18        4.73244  -0.00037   0.00000  -0.00208  -0.00217   4.73027
   R19        1.88793  -0.01160   0.00000   0.05192   0.05334   1.94127
   R20        4.65613  -0.00776   0.00000  -0.02074  -0.02212   4.63402
   R21        2.55128  -0.00077   0.00000  -0.00175  -0.00175   2.54953
   R22        3.26658   0.01162   0.00000  -0.09981  -0.09960   3.16697
    A1        1.82703  -0.00118   0.00000   0.00933   0.01034   1.83737
    A2        1.92810   0.00060   0.00000   0.00202   0.00154   1.92964
    A3        1.93975   0.00117   0.00000  -0.00368  -0.00447   1.93528
    A4        1.81616   0.00070   0.00000   0.01844   0.01889   1.83505
    A5        1.81943   0.00101   0.00000   0.00596   0.00573   1.82516
    A6        2.25839  -0.00043   0.00000  -0.00674  -0.00698   2.25141
    A7        1.74558   0.00104   0.00000   0.00580   0.00568   1.75126
    A8        1.66713  -0.00086   0.00000  -0.00661  -0.00610   1.66103
    A9        2.44590  -0.00157   0.00000  -0.01454  -0.01427   2.43163
   A10        2.25826  -0.00093   0.00000  -0.00163  -0.00128   2.25698
   A11        1.89884   0.00060   0.00000   0.02734   0.02587   1.92470
   A12        1.63893  -0.00124   0.00000   0.02904   0.02934   1.66827
   A13        1.85112   0.00009   0.00000  -0.00372  -0.00372   1.84740
   A14        2.73536   0.00074   0.00000   0.00284   0.00289   2.73824
   A15        1.90426  -0.00069   0.00000  -0.00646  -0.00624   1.89802
   A16        1.89106  -0.00005   0.00000   0.00191   0.00176   1.89283
   A17        2.07108   0.00159   0.00000   0.00630   0.00615   2.07723
   A18        1.94404  -0.00019   0.00000  -0.00435  -0.00390   1.94014
   A19        1.73478  -0.00046   0.00000  -0.00591  -0.00592   1.72886
   A20        2.00224   0.00008   0.00000   0.00118   0.00136   2.00360
   A21        1.89455  -0.00178   0.00000  -0.01130  -0.01142   1.88313
   A22        1.64240  -0.00005   0.00000   0.00373   0.00346   1.64585
   A23        2.44847  -0.00115   0.00000  -0.00058  -0.00046   2.44801
   A24        1.86805  -0.00138   0.00000  -0.00707  -0.00707   1.86099
   A25        1.84013   0.00129   0.00000   0.01273   0.01325   1.85339
   A26        1.87951   0.00034   0.00000   0.00547   0.00580   1.88531
   A27        2.49685  -0.00750   0.00000  -0.13549  -0.13418   2.36267
   A28        1.95190  -0.00103   0.00000  -0.00521  -0.00496   1.94693
   A29        1.81751   0.00212   0.00000   0.01203   0.01281   1.83032
   A30        1.99216  -0.00219   0.00000  -0.01453  -0.01472   1.97744
   A31        1.90582  -0.00442   0.00000  -0.01070  -0.01006   1.89576
   A32        2.01766  -0.00193   0.00000   0.00773   0.00895   2.02661
   A33        1.48251   0.00457   0.00000   0.00276   0.00152   1.48403
   A34        1.82306   0.00017   0.00000  -0.00146  -0.00174   1.82132
   A35        1.60284  -0.00005   0.00000   0.00591   0.00743   1.61027
   A36        2.57230  -0.00008   0.00000   0.00588   0.00732   2.57962
   A37        2.51238  -0.00111   0.00000  -0.00649  -0.00749   2.50489
   A38        1.84407  -0.00012   0.00000   0.00534   0.00794   1.85201
   A39        1.72212  -0.00997   0.00000  -0.05590  -0.05851   1.66361
   A40        1.63187   0.00294   0.00000   0.01785   0.01835   1.65022
   A41        2.05475   0.01430   0.00000   0.16875   0.17098   2.22573
    D1       -3.10401  -0.00138   0.00000  -0.02650  -0.02713  -3.13114
    D2       -1.15491  -0.00056   0.00000  -0.01405  -0.01454  -1.16945
    D3        0.67314  -0.00071   0.00000  -0.02262  -0.02313   0.65001
    D4       -2.13596  -0.00084   0.00000  -0.01934  -0.01978  -2.15574
    D5       -2.51161  -0.00069   0.00000   0.01477   0.01516  -2.49645
    D6        1.46766   0.00028   0.00000   0.01176   0.01178   1.47944
    D7       -0.51386  -0.00010   0.00000   0.01288   0.01279  -0.50107
    D8        0.11328   0.00070   0.00000   0.02189   0.02200   0.13527
    D9       -1.41061   0.00210   0.00000   0.02693   0.02650  -1.38410
   D10       -3.13093   0.00156   0.00000   0.00185   0.00137  -3.12957
   D11        0.08979   0.00183   0.00000  -0.00148  -0.00206   0.08773
   D12        0.50563   0.00010   0.00000  -0.00165  -0.00159   0.50404
   D13       -2.55683   0.00037   0.00000  -0.00499  -0.00502  -2.56185
   D14       -0.11297   0.00055   0.00000   0.00025  -0.00008  -0.11305
   D15        3.07132   0.00074   0.00000  -0.00456  -0.00576   3.06556
   D16        2.82292  -0.00097   0.00000  -0.01286  -0.01295   2.80997
   D17       -0.27598  -0.00078   0.00000  -0.01767  -0.01863  -0.29461
   D18        0.93981   0.00309   0.00000   0.09379   0.09120   1.03101
   D19       -0.19449   0.00154   0.00000   0.07920   0.07579  -0.11870
   D20        1.54864   0.00273   0.00000   0.00676   0.00430   1.55294
   D21        2.59730   0.00105   0.00000   0.00137  -0.00087   2.59643
   D22       -2.61913  -0.00043   0.00000  -0.00104  -0.00311  -2.62225
   D23       -0.01772   0.00053   0.00000  -0.00229  -0.00581  -0.02353
   D24        1.21452   0.00079   0.00000  -0.00008  -0.00017   1.21434
   D25       -3.02229  -0.00048   0.00000  -0.00816  -0.00847  -3.03077
   D26        2.08846  -0.00044   0.00000  -0.00569  -0.00557   2.08289
   D27       -1.92073   0.00127   0.00000   0.00532   0.00536  -1.91537
   D28        0.04434  -0.00075   0.00000  -0.00519  -0.00540   0.03894
   D29       -0.73352  -0.00041   0.00000  -0.00402  -0.00365  -0.73717
   D30        2.30581   0.00078   0.00000   0.00400   0.00383   2.30964
   D31       -2.95112  -0.00087   0.00000  -0.00505  -0.00508  -2.95620
   D32        1.25144   0.00043   0.00000   0.00240   0.00224   1.25368
   D33       -0.80446   0.00083   0.00000   0.00248   0.00228  -0.80218
   D34       -0.01424   0.00022   0.00000   0.01720   0.01772   0.00348
   D35        1.93641   0.00173   0.00000   0.00938   0.00980   1.94621
   D36        2.84414   0.00047   0.00000   0.01702   0.01731   2.86145
   D37       -1.48839   0.00198   0.00000   0.00920   0.00938  -1.47901
   D38       -2.29133  -0.00179   0.00000  -0.01528  -0.01533  -2.30666
   D39        2.86527   0.00284   0.00000   0.00513   0.00466   2.86993
   D40       -1.21373  -0.00115   0.00000  -0.00965  -0.00982  -1.22355
   D41        0.77988  -0.00196   0.00000  -0.00649  -0.00513   0.77474
   D42        0.32338  -0.00060   0.00000  -0.06735  -0.06581   0.25757
   D43        0.79745   0.00100   0.00000   0.01586   0.01645   0.81390
   D44       -0.88041   0.00090   0.00000   0.01272   0.01346  -0.86695
   D45        1.77251  -0.00158   0.00000  -0.00568  -0.00572   1.76679
   D46        0.09465  -0.00168   0.00000  -0.00881  -0.00871   0.08594
   D47       -0.21853   0.00063   0.00000   0.00941   0.00965  -0.20888
   D48       -1.89639   0.00053   0.00000   0.00627   0.00666  -1.88972
   D49       -0.29214  -0.00059   0.00000   0.00659   0.00641  -0.28573
   D50       -1.97000  -0.00070   0.00000   0.00346   0.00343  -1.96657
   D51       -2.27677   0.00123   0.00000   0.00779   0.00700  -2.26977
   D52        2.32855   0.00113   0.00000   0.00466   0.00401   2.33257
   D53       -0.21357  -0.00053   0.00000   0.00571   0.01010  -0.20347
   D54       -2.07111   0.00015   0.00000   0.00319   0.00574  -2.06537
         Item               Value     Threshold  Converged?
 Maximum Force            0.014295     0.000450     NO 
 RMS     Force            0.003098     0.000300     NO 
 Maximum Displacement     0.191136     0.001800     NO 
 RMS     Displacement     0.027580     0.001200     NO 
 Predicted change in Energy=-4.142816D-03
 GradGradGradGradGradGradGradGradGradGradGradGradGradGradGradGradGradGrad

                          Input orientation:                          
 ---------------------------------------------------------------------
 Center     Atomic      Atomic             Coordinates (Angstroms)
 Number     Number       Type             X           Y           Z
 ---------------------------------------------------------------------
      1         42           0       -0.057611    2.136289   10.784054
      2         16           0        0.348510    4.481761   10.761597
      3         16           0       -1.712570    1.814004   12.399570
      4         16           0       -1.098259    1.423605    8.685231
      5         16           0        1.941712    0.934215   10.448691
      6          1           0        1.607779   -0.133087    9.691351
      7         42           0       -2.727081    1.872544   10.322201
      8         16           0       -4.761418    0.749401   10.018566
      9          1           0       -5.669246    1.683712    9.662254
     10         16           0       -3.660574    4.067267    9.863921
     11          1           0       -4.430636    3.927427    8.744958
     12          1           0        1.511382    4.855860    9.627429
     13         42           0       -1.267471    3.750970    9.201525
     14         16           0        0.405754    4.347061    7.510857
     15          1           0        0.979971    3.187986    7.127414
     16          1           0        1.608503    4.733361    8.612119
 ---------------------------------------------------------------------
                    Distance matrix (angstroms):
                    1          2          3          4          5
     1  Mo   0.000000
     2  S    2.380478   0.000000
     3  S    2.335091   3.748057   0.000000
     4  S    2.448658   3.969478   3.784985   0.000000
     5  S    2.356851   3.901447   4.234825   3.548341   0.000000
     6  H    3.019535   4.901837   4.706414   3.279971   1.350633
     7  Mo   2.721936   4.057135   2.312601   2.352505   4.763832
     8  S    4.963389   6.371341   4.012236   3.956144   6.719459
     9  H    5.740532   6.726888   4.813020   4.681469   7.688102
    10  S    4.190066   4.129211   3.911704   3.865710   6.445431
    11  H    5.146788   5.216738   5.021018   4.168624   7.243538
    12  H    3.345981   1.666901   5.227956   4.413427   4.029759
    13  Mo   2.564244   2.362049   3.765294   2.389941   4.448414
    14  S    3.976938   3.254033   5.899422   3.491103   4.757894
    15  H    3.943813   3.908950   6.077272   3.139884   4.127386
    16  H    3.773330   2.504225   5.822109   4.276258   4.232911
                    6          7          8          9         10
     6  H    0.000000
     7  Mo   4.817836   0.000000
     8  S    6.438364   2.343539   0.000000
     9  H    7.500446   3.021179   1.350573   0.000000
    10  S    6.740051   2.428629   3.499144   3.123583   0.000000
    11  H    7.337975   3.100377   3.439672   2.722103   1.365514
    12  H    4.990288   5.229479   7.507598   7.850169   5.237073
    13  Mo   4.857251   2.629612   4.678103   4.884819   2.503149
    14  S    5.125538   4.882780   6.777273   6.973346   4.706401
    15  H    4.242340   5.067474   6.875247   7.273262   5.458595
    16  H    4.984682   5.468633   7.643686   7.960451   5.456543
                   11         12         13         14         15
    11  H    0.000000
    12  H    6.078513   0.000000
    13  Mo   3.200813   3.020629   0.000000
    14  S    5.008968   2.441550   2.452216   0.000000
    15  H    5.695427   3.051931   3.109644   1.349151   0.000000
    16  H    6.094126   1.027275   3.095758   1.675891   2.233290
                   16
    16  H    0.000000
 Symmetry turned off by external request.
 Stoichiometry    H6Mo3S7
 Framework group  C1[X(H6Mo3S7)]
 Deg. of freedom    42
 Full point group                 C1      NOp   1
 Rotational constants (GHZ):           0.3828286           0.2623368           0.2033865
 Basis read from rwf:  (5D, 7F)
 Pseudo-potential data read from rwf file.
   222 basis functions,   553 primitive gaussians,   235 cartesian basis functions
    80 alpha electrons       80 beta electrons
       nuclear repulsion energy      1757.7386026473 Hartrees.
 NAtoms=   16 NActive=   16 NUniq=   16 SFac= 1.00D+00 NAtFMM=   60 NAOKFM=F Big=F
 Integral buffers will be    131072 words long.
 Raffenetti 2 integral format.
 Two-electron integral symmetry is turned off.
 One-electron integrals computed using PRISM.
   1 Symmetry operations used in ECPInt.
 ECPInt:  NShTT=    3003 NPrTT=   20388 LenC2=    2800 LenP2D=   13496.
 LDataN:  DoStor=T MaxTD1= 5 Len=  102
 NBasis=   222 RedAO= T EigKep=  1.19D-03  NBF=   222
 NBsUse=   222 1.00D-06 EigRej= -1.00D+00 NBFU=   222
 Defaulting to unpruned grid for atomic number  42.
 Defaulting to unpruned grid for atomic number  42.
 Defaulting to unpruned grid for atomic number  42.
 Initial guess from the checkpoint file:  "/home/chesagar/scratch/Gau-81473.chk"
 B after Tr=     0.010856   -0.083630    0.014720
         Rot=    0.999997    0.002352   -0.000156   -0.000109 Ang=   0.27 deg.
 ExpMin= 2.47D-02 ExpMax= 2.19D+04 ExpMxC= 3.30D+03 IAcc=3 IRadAn=         5 AccDes= 0.00D+00
 Harris functional with IExCor=  402 and IRadAn=       5 diagonalized for initial guess.
 HarFok:  IExCor=  402 AccDes= 0.00D+00 IRadAn=         5 IDoV= 1 UseB2=F ITyADJ=14
 ICtDFT=  3500011 ScaDFX=  1.000000  1.000000  1.000000  1.000000
 Defaulting to unpruned grid for atomic number  42.
 FoFCou: FMM=F IPFlag=           0 FMFlag=      100000 FMFlg1=           0
         NFxFlg=           0 DoJE=T BraDBF=F KetDBF=T FulRan=T
         wScrn=  0.000000 ICntrl=       500 IOpCl=  0 I1Cent=   200000004 NGrid=           0
         NMat0=    1 NMatS0=      1 NMatT0=    0 NMatD0=    1 NMtDS0=    0 NMtDT0=    0
 Symmetry not used in FoFCou.
 Requested convergence on RMS density matrix=1.00D-08 within 128 cycles.
 Requested convergence on MAX density matrix=1.00D-06.
 Requested convergence on             energy=1.00D-06.
 No special actions if energy rises.
 Defaulting to unpruned grid for atomic number  42.
 Defaulting to unpruned grid for atomic number  42.
 Defaulting to unpruned grid for atomic number  42.
 Defaulting to unpruned grid for atomic number  42.
 Defaulting to unpruned grid for atomic number  42.
 Defaulting to unpruned grid for atomic number  42.
 Defaulting to unpruned grid for atomic number  42.
 Defaulting to unpruned grid for atomic number  42.
 Defaulting to unpruned grid for atomic number  42.
 Defaulting to unpruned grid for atomic number  42.
 Defaulting to unpruned grid for atomic number  42.
 Defaulting to unpruned grid for atomic number  42.
 Defaulting to unpruned grid for atomic number  42.
 Defaulting to unpruned grid for atomic number  42.
 Defaulting to unpruned grid for atomic number  42.
 Defaulting to unpruned grid for atomic number  42.
 Defaulting to unpruned grid for atomic number  42.
 Defaulting to unpruned grid for atomic number  42.
 Defaulting to unpruned grid for atomic number  42.
 Defaulting to unpruned grid for atomic number  42.
 Defaulting to unpruned grid for atomic number  42.
 Defaulting to unpruned grid for atomic number  42.
 Defaulting to unpruned grid for atomic number  42.
 Defaulting to unpruned grid for atomic number  42.
 Defaulting to unpruned grid for atomic number  42.
 Defaulting to unpruned grid for atomic number  42.
 Defaulting to unpruned grid for atomic number  42.
 Defaulting to unpruned grid for atomic number  42.
 Defaulting to unpruned grid for atomic number  42.
 Defaulting to unpruned grid for atomic number  42.
 Defaulting to unpruned grid for atomic number  42.
 Defaulting to unpruned grid for atomic number  42.
 Defaulting to unpruned grid for atomic number  42.
 Defaulting to unpruned grid for atomic number  42.
 Defaulting to unpruned grid for atomic number  42.
 Defaulting to unpruned grid for atomic number  42.
 Defaulting to unpruned grid for atomic number  42.
 Defaulting to unpruned grid for atomic number  42.
 Defaulting to unpruned grid for atomic number  42.
 Defaulting to unpruned grid for atomic number  42.
 Defaulting to unpruned grid for atomic number  42.
 Defaulting to unpruned grid for atomic number  42.
 Defaulting to unpruned grid for atomic number  42.
 Defaulting to unpruned grid for atomic number  42.
 Defaulting to unpruned grid for atomic number  42.
 Defaulting to unpruned grid for atomic number  42.
 Defaulting to unpruned grid for atomic number  42.
 Defaulting to unpruned grid for atomic number  42.
 SCF Done:  E(RB3LYP) =  -2993.73851036     A.U. after   19 cycles
            NFock= 19  Conv=0.33D-08     -V/T= 2.0496
   1 Symmetry operations used in ECPInt.
 ECPInt:  NShTT=    3003 NPrTT=   20388 LenC2=    2800 LenP2D=   13496.
 LDataN:  DoStor=T MaxTD1= 6 Len=  172
 Calling FoFJK, ICntrl=      2127 FMM=F ISym2X=0 I1Cent= 0 IOpClX= 0 NMat=1 NMatS=1 NMatT=0.
 Defaulting to unpruned grid for atomic number  42.
 Defaulting to unpruned grid for atomic number  42.
 Defaulting to unpruned grid for atomic number  42.
 Defaulting to unpruned grid for atomic number  42.
 Defaulting to unpruned grid for atomic number  42.
 Defaulting to unpruned grid for atomic number  42.
 Defaulting to unpruned grid for atomic number  42.
 Defaulting to unpruned grid for atomic number  42.
 Defaulting to unpruned grid for atomic number  42.
 Defaulting to unpruned grid for atomic number  42.
 Defaulting to unpruned grid for atomic number  42.
 Defaulting to unpruned grid for atomic number  42.
 Defaulting to unpruned grid for atomic number  42.
 Defaulting to unpruned grid for atomic number  42.
 Defaulting to unpruned grid for atomic number  42.
 Defaulting to unpruned grid for atomic number  42.
 Defaulting to unpruned grid for atomic number  42.
 Defaulting to unpruned grid for atomic number  42.
 Defaulting to unpruned grid for atomic number  42.
 Defaulting to unpruned grid for atomic number  42.
 Defaulting to unpruned grid for atomic number  42.
 Defaulting to unpruned grid for atomic number  42.
 Defaulting to unpruned grid for atomic number  42.
 Defaulting to unpruned grid for atomic number  42.
 Defaulting to unpruned grid for atomic number  42.
 Defaulting to unpruned grid for atomic number  42.
 Defaulting to unpruned grid for atomic number  42.
 Defaulting to unpruned grid for atomic number  42.
 Defaulting to unpruned grid for atomic number  42.
 Defaulting to unpruned grid for atomic number  42.
 Defaulting to unpruned grid for atomic number  42.
 Defaulting to unpruned grid for atomic number  42.
 Defaulting to unpruned grid for atomic number  42.
 Defaulting to unpruned grid for atomic number  42.
 Defaulting to unpruned grid for atomic number  42.
 Defaulting to unpruned grid for atomic number  42.
 Defaulting to unpruned grid for atomic number  42.
 Defaulting to unpruned grid for atomic number  42.
 Defaulting to unpruned grid for atomic number  42.
 Defaulting to unpruned grid for atomic number  42.
 Defaulting to unpruned grid for atomic number  42.
 Defaulting to unpruned grid for atomic number  42.
 Defaulting to unpruned grid for atomic number  42.
 Defaulting to unpruned grid for atomic number  42.
 Defaulting to unpruned grid for atomic number  42.
 Defaulting to unpruned grid for atomic number  42.
 Defaulting to unpruned grid for atomic number  42.
 Defaulting to unpruned grid for atomic number  42.
 -------------------------------------------------------------------
 Center     Atomic                   Forces (Hartrees/Bohr)
 Number     Number              X              Y              Z
 -------------------------------------------------------------------
      1       42           0.001578992    0.004751601    0.004521844
      2       16          -0.001753723   -0.003966355   -0.000482570
      3       16           0.002164889    0.000712956   -0.001406555
      4       16          -0.000227269    0.000751670   -0.000774824
      5       16          -0.001790828   -0.000819540    0.000419553
      6        1           0.000227567    0.000672699   -0.000508168
      7       42          -0.001935962   -0.002952637    0.001607125
      8       16           0.002259169   -0.001365309    0.000334619
      9        1          -0.001232693    0.001588451   -0.000304451
     10       16          -0.000010179   -0.000256901   -0.001046781
     11        1          -0.000156117    0.000636932    0.000174887
     12        1           0.008542476   -0.002812605   -0.001553522
     13       42           0.003773561    0.002150918   -0.005306213
     14       16          -0.004399902   -0.002584019   -0.005775267
     15        1          -0.000686743    0.000104762   -0.000349275
     16        1          -0.006353240    0.003387378    0.010449598
 -------------------------------------------------------------------
 Cartesian Forces:  Max     0.010449598 RMS     0.003085584

 GradGradGradGradGradGradGradGradGradGradGradGradGradGradGradGradGradGrad
 Berny optimization.
 FormGI is forming the generalized inverse of G from B-inverse, IUseBI=4.
 Internal  Forces:  Max     0.007355044 RMS     0.001433362
 Search for a saddle point.
 Step number   2 out of a maximum of  100
 All quantities printed in internal units (Hartrees-Bohrs-Radians)
 Swapping is turned off.
 Update second derivatives using D2CorX and points    1    2
 ITU=  0  0
     Eigenvalues ---   -0.04995   0.00096   0.00133   0.00308   0.00329
     Eigenvalues ---    0.00459   0.00533   0.00834   0.01018   0.01210
     Eigenvalues ---    0.01542   0.01636   0.02144   0.02152   0.03081
     Eigenvalues ---    0.03325   0.03553   0.04266   0.04519   0.05661
     Eigenvalues ---    0.05857   0.06024   0.06140   0.06537   0.07140
     Eigenvalues ---    0.07569   0.07906   0.08089   0.08409   0.08716
     Eigenvalues ---    0.08826   0.09580   0.10798   0.10986   0.12238
     Eigenvalues ---    0.12533   0.12924   0.13575   0.23203   0.26124
     Eigenvalues ---    0.26454   0.26767
 Eigenvectors required to have negative eigenvalues:
                          R22       R7        R19       R20       R1
   1                    0.58089   0.53621  -0.52996  -0.13165  -0.11335
                          R6        A33       R8        A3        A31
   1                    0.08997   0.07770  -0.07275   0.06361  -0.05992
 RFO step:  Lambda0=8.511118368D-04 Lambda=-4.19999060D-03.
 Linear search not attempted -- option 19 set.
[...]
    16          1.21918318        -15.91599923        -17.87277784
    16          1.08197420        -11.32735347        -12.36469697
    16          7.27602395        -11.96236028        -14.67208519
     1          6.44574538         -9.58676625        -14.26446440
    42         -1.40421899        -13.88177770        -15.02992462
    16         -5.11830168        -11.97746985        -16.49110644
     1         -7.04752886        -13.15510676        -15.28935084
    16         -3.56649648        -16.93374070        -12.35855918
     1         -5.37869905        -15.64852305        -11.04573251
     1          5.97998927        -17.31855263         -9.44356942
    42          0.65968277        -15.51599289        -10.79226158
    16          3.02032705        -14.57722639         -6.90636342
     1          4.08384605        -12.28704183         -7.24775299
     1          5.44293297        -16.14569121         -7.87432712

 Electric dipole moment (dipole orientation):
 (Debye = 10**-18 statcoulomb cm , SI units = C m)
                  (au)            (Debye)         (10**-30 SI)
   Tot        0.178859D+01      0.454615D+01      0.151643D+02
   x          0.000000D+00      0.000000D+00      0.000000D+00
   y          0.000000D+00      0.000000D+00      0.000000D+00
   z          0.178859D+01      0.454615D+01      0.151643D+02

 Dipole polarizability, Alpha (dipole orientation).
 (esu units = cm**3 , SI units = C**2 m**2 J**-1)
 Alpha(0;0):
               (au)            (10**-24 esu)      (10**-40 SI)
   iso        0.273970D+03      0.405982D+02      0.451715D+02
   aniso      0.144671D+03      0.214380D+02      0.238530D+02
   xx         0.342371D+03      0.507341D+02      0.564493D+02
   yx        -0.608208D+01     -0.901271D+00     -0.100280D+01
   yy         0.205673D+03      0.304775D+02      0.339108D+02
   zx         0.428529D+02      0.635015D+01      0.706549D+01
   zy        -0.207749D+02     -0.307852D+01     -0.342532D+01
   zz         0.273866D+03      0.405828D+02      0.451545D+02

 ----------------------------------------------------------------------
 Unable to Open any file for archive entry.
 1\1\GINC-NODE6-IB\Freq\RB3LYP\Gen\H6Mo3S7\CHESAGAR\01-Nov-2022\0\\#N G
 eom=AllCheck Guess=TCheck SCRF=Check GenChk RB3LYP/ChkBas Freq\\Title 
 Card Required\\0,1\Mo,-0.0573146368,2.1653008904,10.824678021\S,0.3844
 929414,4.4860459691,10.7381676752\S,-1.7151945969,1.8734670534,12.4238
 585762\S,-1.0728649323,1.4288854234,8.7107746264\S,1.8767053209,0.8543
 677211,10.5321503854\H,1.5625928724,-0.0552252735,9.5867037803\Mo,-2.7
 162633792,1.8712395602,10.3389144282\S,-4.7325337244,0.7224032518,10.0
 372108567\H,-5.6438140748,1.6497348198,9.6568942146\S,-3.6540618318,4.
 059016484,9.8388333757\H,-4.4167931612,3.9233987691,8.7142605336\H,1.5
 812241584,4.7717880027,9.6802106547\Mo,-1.2585560243,3.7502288418,9.19
 26697081\S,0.3962274214,4.3787661905,7.489025603\H,0.9827905179,3.2328
 121512,7.0879814681\H,1.5021081293,4.720145145,8.609404093\\Version=ES
 64L-G16RevC.01\HF=-2993.7404615\RMSD=3.379e-09\RMSF=2.413e-06\ZeroPoin
 t=0.0584833\Thermal=0.076256\ETot=-2993.6642055\HTot=-2993.6632613\GTo
 t=-2993.7296842\Dipole=0.3504037,0.9722103,-1.4598267\DipoleDeriv=0.76
 86181,-0.5036415,-0.0382718,-0.6353978,0.6290225,-0.2165199,-0.4320305
 ,-0.1081275,0.3523967,0.3443111,0.3701392,-0.3980768,0.3032398,-0.0253
 712,-0.1679186,-0.5333825,-0.3611299,-0.0062043,-0.2617389,-0.014704,0
 .0431221,-0.0395886,-0.003182,0.0557834,0.0542289,0.0535958,-0.5987778
 ,0.1023919,0.0321293,0.0767945,0.0883903,-0.1622626,-0.218122,0.177093
 ,-0.1780691,-0.1712741,-0.832609,0.5727264,-0.0173579,0.4099728,-0.403
 1771,0.0786549,0.1800119,0.0057483,-0.0517338,0.0512765,-0.0808219,-0.
 0839506,0.0435848,0.0700634,-0.0078316,-0.0492323,-0.0688506,0.0087705
 ,0.8717015,0.1936164,0.2757961,0.2236893,0.1439963,0.2020999,0.3779313
 ,0.1486348,0.3968073,-0.7867091,-0.379504,-0.0187028,-0.5975152,-0.215
 16,-0.108609,-0.1393539,-0.1896514,-0.1564084,-0.0439105,-0.057435,0.0
 007327,0.1870173,-0.0246455,0.0670104,-0.034268,0.0725745,0.075143,-0.
 1235875,-0.0289266,0.1710574,0.1146928,-0.2184924,0.0507728,0.095555,0
 .1107596,-0.0162228,-0.1309948,0.1305198,-0.1187184,0.0146544,0.072790
 7,-0.0581499,-0.1487569,0.0198137,-0.027267,-0.3672005,-0.3597366,0.18
 71689,-0.1400912,-0.103638,0.0103129,0.4831943,0.5559054,-0.4209252,0.
 4218122,0.2296902,-0.220708,0.0956433,0.2205942,0.1632346,-0.1144664,0
 .0113393,0.3367768,0.2071107,0.2779902,-0.3108454,-0.025625,0.1115338,
 0.0197212,0.5642962,0.3772981,-0.5662894,0.0657124,0.0134445,-0.020146
 9,0.0370106,-0.0003313,-0.03586,-0.0418139,0.0589914,0.1329761,-0.2861
 841,-0.3954864,0.472107,-0.0796775,-0.0917408,0.165421,-0.4390065,-0.5
 088323,0.7122325\Polar=354.5319803,29.4765983,241.8729994,-10.9088677,
 -32.4658192,225.5047642\Quadrupole=13.4642096,25.0999006,-38.5641102,-
 4.0060169,10.0849431,11.1670925\PG=C01 [X(H6Mo3S7)]\NImag=1\\0.2533235
 1,-0.02156080,0.22386314,0.00290278,-0.00584281,0.20753905,-0.00053010
 ,-0.02002247,0.01374999,0.06361433,-0.00556856,-0.10031261,-0.00510904
 ,0.02113635,0.12363868,-0.00451460,-0.00799898,-0.01058411,0.01576296,
 0.03033659,0.11133380,-0.04333895,-0.00786929,0.04562369,0.00000567,-0
 .00339053,0.00544056,0.07061274,-0.01000886,-0.01389048,0.00749396,0.0
 0100295,0.00083883,0.00443461,0.00951803,0.02043797,0.05674263,0.00076
 354,-0.07421120,-0.00268619,0.00239361,0.00212870,-0.01955991,-0.00822
 458,0.18337299,-0.01529848,-0.00465610,-0.02095722,-0.00044911,-0.0093
 5341,-0.00547934,-0.00052328,-0.00220575,0.00103537,0.08442152,-0.0089
 7853,-0.01363942,-0.02828099,-0.00234681,-0.00414586,-0.00365480,-0.00
 338084,0.00533152,0.00370142,-0.01349075,0.12526650,-0.02532419,-0.018
 11427,-0.06027429,0.00223433,-0.00106425,0.00265037,0.00234354,-0.0021
 5347,-0.00599971,-0.03322486,0.05208831,0.12807480,-0.06833287,0.03186
 699,0.00724303,-0.00350853,0.00170713,0.00014830,-0.00233479,-0.002461
 32,0.00239269,-0.00318679,0.00386854,0.00138777,0.09760479,0.04186531,
 -0.04524579,-0.00971805,0.00001261,0.00091814,-0.00004931,0.00425574,0
 .00297518,-0.00256831,0.00049216,0.00157703,0.00102688,-0.00321877,0.1
 5608196,0.00849663,-0.01856352,-0.02745554,0.00112413,0.00074911,-0.00
 022415,0.00085298,-0.00195806,0.00441288,-0.00365168,0.00171449,0.0027
 2233,0.04233394,0.13456036,0.14970080,-0.00254341,0.01088504,0.0070733
 5,0.00100709,-0.00091983,0.00013272,-0.00074001,0.00013487,0.00006783,
 -0.00067192,-0.00035315,-0.00127482,-0.02171418,-0.04603199,-0.0505872
 6,0.02564546,0.00196688,-0.00794209,-0.00540816,0.00104779,-0.00006359
 ,-0.00011035,0.00041252,-0.00053813,0.00137180,-0.00031909,0.00006339,
 0.00121924,-0.03971619,-0.11622166,-0.11926607,0.03707685,0.12249493,0
 .00324601,0.00011769,0.00215516,-0.00087101,0.00050799,0.00000059,-0.0
 0095053,-0.00000201,-0.00109362,-0.00008068,0.00147684,0.00012456,-0.0
 4559193,-0.12390229,-0.13320148,0.04427507,0.12334118,0.13191410,-0.08
 650821,-0.01170733,-0.01584389,-0.00334930,0.00465447,0.00023988,-0.02
 357416,0.00497046,-0.03613033,-0.05948730,0.01131342,0.05314480,0.0006
 3569,-0.00015153,0.00103208,-0.00015311,0.00033144,-0.00103035,0.30341
 267,0.00994768,-0.00559035,0.00175561,-0.00759819,0.00023218,-0.004327
 55,0.00120168,-0.01559285,-0.00347830,0.01501414,-0.01058516,-0.012182
 03,0.00106812,0.00116952,0.00367627,-0.00044439,0.00109392,-0.00127224
 ,0.01037631,0.19326828,-0.03953344,0.00550917,0.00376644,0.00194315,-0
 .00340201,-0.00133373,-0.03273869,-0.00585125,-0.10474640,0.05870344,-
 0.00889360,-0.06249540,0.00272290,-0.00129112,0.00055299,0.00024139,-0
 .00004957,0.00040669,0.01273003,-0.02453491,0.22095458,-0.00392189,-0.
 00423224,0.00178195,0.00033808,-0.00053972,-0.00039841,-0.00046001,0.0
 0112674,-0.00350233,-0.00017530,-0.00004006,-0.00105014,-0.00029351,0.
 00062523,0.00049188,-0.00008243,0.00034782,0.00001370,-0.07748325,-0.0
 3717241,-0.01374806,0.19298347,-0.00645161,0.00218351,0.00113315,0.000
 41303,0.00014968,0.00030014,-0.00083793,0.00065394,-0.00375525,-0.0021
 5078,0.00064748,0.00081478,0.00027893,-0.00043304,-0.00013889,-0.00003
 850,0.00050172,-0.00009036,-0.02084393,-0.04976822,0.00475722,-0.07225
 818,0.17718007,-0.00096501,-0.00279840,0.00116067,-0.00011763,0.000951
 30,-0.00049173,0.00228697,-0.00146412,0.00254387,0.00008463,-0.0003132
 4,0.00188199,-0.00023475,0.00047847,-0.00053135,0.00000900,-0.00025499
 ,0.00019905,-0.01578142,-0.00246156,-0.01616391,0.05871842,-0.04638928
 ,0.03217713,0.00119315,-0.00081385,-0.00139674,-0.00003646,0.00036549,
 -0.00035156,0.00016148,-0.00042411,0.00041448,0.00071203,-0.00044065,0
 .00045313,-0.00020876,0.00028013,-0.00001735,-0.00001401,-0.00015453,0
 .00008413,-0.01693389,0.00173734,-0.00378818,-0.10806180,0.10971942,-0
 .04436417,0.12095112,0.00021026,-0.00159225,0.00099258,-0.00017357,-0.
 00037806,-0.00011097,0.00062813,0.00061162,0.00038948,0.00033954,0.000
 26640,-0.00013855,-0.00004548,0.00011499,0.00001658,0.00001372,-0.0000
 6551,0.00005226,-0.00438459,0.00696460,-0.00461731,0.11465665,-0.13208
 767,0.05027032,-0.10970001,0.12721203,0.00095682,0.00085153,0.00032503
 ,0.00010010,-0.00059969,0.00021445,-0.00107353,0.00060862,-0.00005745,
 -0.00042746,0.00015632,-0.00020999,-0.00004859,-0.00014322,0.00029530,
 -0.00001892,0.00009220,-0.00007216,-0.00125610,0.00121428,0.00197296,-
 0.04456429,0.04830357,-0.02512506,0.04719234,-0.04737821,0.02401705,-0
 .00279854,0.00081102,0.00113848,-0.00120035,-0.00123798,-0.00125618,0.
 00099520,-0.00059164,-0.00069363,-0.00524129,0.00252939,0.00139268,0.0
 0011893,0.00017208,-0.00004013,-0.00013316,0.00000185,-0.00008295,-0.0
 1792311,0.01796085,-0.01144622,0.00099227,-0.00661346,0.00058742,0.001
 17184,-0.00123297,0.00122763,0.15960542,-0.00212393,-0.00383055,-0.004
 29402,-0.00048292,0.00201656,-0.00149405,0.00027480,0.00281595,0.00432
 892,0.00491581,-0.00082864,0.00188991,-0.00014614,0.00008641,-0.000055
 20,0.00005678,-0.00003815,0.00009580,0.01246640,-0.06901084,0.00228536
 ,0.00029415,-0.00561588,-0.00003323,0.00010950,-0.00038259,0.00023943,
 -0.00688747,0.09267061,-0.00032653,-0.00107067,-0.00437187,0.00081573,
 -0.00006625,-0.00025095,-0.00397097,0.00028163,-0.00006003,0.00257993,
 -0.00290208,0.00332689,0.00035680,0.00027376,-0.00000214,-0.00010014,-
 0.00006785,0.00013793,-0.00034621,0.02158518,-0.01282721,-0.00072959,0
 .00090962,0.00098320,-0.00033298,-0.00168178,-0.00040956,0.07802995,0.
 02246302,0.19288035,0.00024768,0.00054024,-0.00301142,0.00043111,0.000
 38252,0.00005649,-0.00094499,-0.00083947,-0.00014704,0.00160196,-0.001
 77733,0.00121715,-0.00003678,0.00025485,0.00000348,-0.00007035,-0.0000
 5146,0.00006398,-0.00532046,0.00959009,-0.00114861,0.00199417,0.000755
 26,0.00086300,-0.00026199,0.00096268,-0.00104450,-0.07197533,-0.019517
 50,-0.09152831,0.07981311,0.00174467,0.00236299,0.00101756,-0.00014113
 ,-0.00031081,0.00077058,0.00030924,-0.00089904,-0.00088157,-0.00124746
 ,-0.00056202,-0.00051971,0.00013115,-0.00011707,-0.00001738,-0.0000034
 7,0.00001372,0.00000246,0.00806533,-0.00043314,0.00993636,0.00021801,0
 .00214215,-0.00024803,-0.00131341,0.00036161,-0.00043424,-0.02112842,-
 0.01986449,-0.02872406,0.01120569,0.01924012,0.00025705,-0.00114095,0.
 00057031,-0.00024441,-0.00002696,-0.00068328,-0.00000975,0.00025866,0.
 00007345,0.00015690,0.00112895,0.00036795,-0.00011117,-0.00007904,0.00
 002906,0.00005206,0.00003120,-0.00003071,-0.00448248,0.00130807,-0.000
 33471,0.00044118,-0.00149512,0.00068276,0.00099434,0.00082516,-0.00035
 723,-0.09342843,-0.02530303,-0.16834068,0.09867683,0.02073600,0.163087
 79,-0.00377323,-0.00915201,-0.00547933,-0.00898745,0.01528093,0.007310
 80,-0.00110786,0.00094097,0.00094502,0.00051944,0.00046139,-0.00178483
 ,0.00204310,0.00046198,0.00021927,-0.00050777,-0.00020551,0.00003762,0
 .00042447,-0.00048879,0.00124907,-0.00031061,-0.00019817,-0.00004232,-
 0.00007440,0.00008017,-0.00004935,-0.00018206,0.00018242,0.00011907,-0
 .00028685,0.00007258,0.00006569,0.03949767,-0.00612865,-0.00421737,0.0
 0366488,0.00773731,-0.01255211,-0.00261055,-0.00034931,0.00040789,-0.0
 0016057,0.00147885,0.00119142,0.00054490,0.00044393,-0.00026070,0.0002
 2116,0.00022449,0.00039693,-0.00033121,-0.00062585,-0.00047185,0.00109
 803,-0.00016071,-0.00022545,-0.00005978,0.00001981,0.00004111,-0.00000
 132,-0.00047083,0.00003741,0.00054868,0.00001834,0.00009923,-0.0000657
 8,0.00337977,0.02841392,0.01129216,0.01057361,0.00811248,-0.02120167,-
 0.02199702,-0.00518588,0.00159595,-0.00070448,-0.00106344,-0.00168555,
 0.00084452,0.00197648,-0.00395523,-0.00095216,-0.00054308,0.00070521,0
 .00008287,-0.00006446,-0.00034735,-0.00015389,-0.00062360,0.00045316,0
 .00033495,0.00011378,0.00013541,-0.00018539,0.00002027,-0.00015491,-0.
 00003096,-0.00021446,0.00050122,-0.00010750,0.00000509,0.02278513,0.00
 676249,0.01059889,-0.02996050,0.03618203,-0.03375444,-0.03911093,-0.01
 654952,-0.01862820,0.00200695,-0.00091598,0.00119130,-0.00175718,0.013
 24628,-0.00066148,-0.00072774,0.00141807,0.00000718,-0.00026607,-0.000
 85121,0.00097180,-0.01148271,-0.01629367,0.02189983,-0.00590030,-0.002
 64684,-0.00075584,0.00195696,-0.00118414,-0.00111027,-0.06384621,0.012
 66082,0.01575606,-0.00481918,0.00219174,-0.00277837,-0.01854691,-0.006
 60441,0.01277502,0.22401189,0.00700484,-0.03076124,0.03967727,0.001276
 88,-0.01437520,-0.01273959,-0.00126883,-0.00309138,0.00593512,0.016289
 57,-0.10399601,-0.02981127,0.00579228,-0.00094401,-0.00056122,-0.00064
 205,0.00029189,-0.00003601,-0.01150336,-0.05287479,0.02406716,-0.00339
 349,0.00702338,0.00353727,0.00036803,-0.00170141,-0.00411384,0.0201965
 4,0.00189194,-0.01425961,-0.00257596,-0.00241677,0.00427300,-0.0116330
 8,0.00035904,0.01188504,-0.01566130,0.21755376,-0.00661225,0.04178946,
 -0.03665877,-0.05441076,-0.01961747,-0.04453523,0.00289541,0.00790847,
 -0.00675107,0.00035791,-0.01896299,-0.00993105,-0.00919844,0.00173265,
 0.00321037,0.00014139,-0.00100405,-0.00065306,0.00009833,0.00973046,-0
 .03084688,0.00349332,-0.00450853,0.00230074,0.00059535,0.00160381,-0.0
 0028005,0.02429498,-0.00269844,-0.01067020,-0.00413654,-0.00161438,0.0
 0508481,-0.00100380,-0.00507626,-0.01053097,0.00707227,-0.00580805,0.1
 6761508,0.00705485,-0.00035858,0.00693397,-0.02353003,-0.01324414,0.01
 246760,0.00177055,-0.00026713,-0.00058332,-0.00161852,0.00058544,0.004
 55224,-0.00318506,-0.00082648,-0.00034531,0.00092519,0.00043726,-0.000
 43824,-0.00432168,-0.00559404,0.00153843,0.00103876,0.00029507,-0.0005
 1905,-0.00033311,-0.00005069,0.00051822,-0.00034595,-0.00232562,0.0000
 9260,0.00027090,-0.00001235,0.00013034,0.00881417,-0.00191719,-0.05602
 481,-0.02304610,0.00745542,0.01638725,0.11176975,0.00040552,-0.0007145
 1,0.00413206,-0.00965403,-0.00029121,0.00255533,0.00134389,-0.00002587
 ,0.00012718,-0.00539641,-0.00075082,0.00744026,-0.00057328,-0.00016457
 ,-0.00042217,0.00024706,0.00009970,0.00001562,-0.00208020,0.00202988,-
 0.00005446,0.00055137,-0.00276642,-0.00126871,0.00042975,0.00068520,0.
 00136488,-0.00390035,0.00034742,0.00307781,0.00147732,0.00043756,-0.00
 070001,0.00245243,0.00346732,-0.01907465,0.00587075,-0.01736260,-0.010
 17145,-0.09431711,0.22735337,0.00034190,0.00519278,-0.00191318,-0.0138
 4518,-0.01351923,-0.00990273,-0.00197049,-0.00168621,0.00043704,0.0019
 0868,0.00269472,0.00035217,-0.00014551,0.00014272,0.00026372,-0.000000
 26,0.00011031,0.00011438,0.00721902,0.00790793,0.00140905,-0.00092267,
 0.00074959,0.00059212,0.00045143,-0.00040721,-0.00056027,0.00085920,0.
 00246937,-0.00031841,0.00011259,-0.00024437,-0.00012925,0.00776426,0.0
 0213578,-0.04633647,0.00994002,-0.00732352,-0.03199087,-0.02847276,0.0
 6624430,0.11348713,0.00102492,0.00072702,0.00007504,-0.00086018,-0.000
 50890,0.00027261,-0.00016385,-0.00001319,-0.00008909,0.00021869,-0.000
 69667,-0.00112089,-0.00041957,0.00006870,-0.00005793,0.00006805,-0.000
 05318,-0.00001639,0.00068008,-0.00063452,-0.00025803,-0.00018377,0.000
 85730,0.00019914,-0.00016597,-0.00023311,-0.00032824,0.00044509,0.0002
 9284,-0.00047673,-0.00017764,-0.00011252,0.00020045,0.00074042,0.00094
 876,-0.00135265,-0.00533824,0.00300419,0.00630129,-0.06318482,0.097099
 14,0.02776225,0.06229847,0.00024617,0.00039792,-0.00032234,0.00004298,
 -0.00012161,0.00070264,-0.00002031,-0.00002213,0.00004804,-0.00010909,
 -0.00034404,-0.00048017,0.00020432,0.00015809,-0.00009429,-0.00010333,
 -0.00017704,0.00011764,-0.00115167,-0.00110040,0.00003928,0.00018699,0
 .00056655,0.00010401,-0.00019175,-0.00008679,-0.00016276,0.00038167,-0
 .00037750,-0.00065927,-0.00032952,-0.00006613,0.00027033,-0.00015562,0
 .00042489,-0.00025734,-0.00119753,0.00407721,0.00409044,0.09353249,-0.
 19749865,-0.06984080,-0.09246958,0.19705447,0.00084059,-0.00017033,-0.
 00052202,0.00021208,0.00061711,-0.00060747,0.00008714,-0.00021045,0.00
 011585,-0.00042470,0.00080437,0.00026967,-0.00029347,0.00001549,0.0003
 1425,-0.00000281,0.00009204,-0.00005615,0.00040349,0.00158645,-0.00001
 581,0.00004878,-0.00065094,-0.00028093,0.00008919,0.00018519,0.0002805
 4,-0.00092863,0.00033200,0.00046527,0.00027460,0.00016441,-0.00009878,
 0.00032106,0.00092402,-0.00053273,0.00325681,-0.00460965,-0.00634922,0
 .02285751,-0.05786553,-0.02390943,-0.03090860,0.06633984,0.03275916,-0
 .00583792,-0.00063968,-0.00607923,0.01616616,0.00778568,-0.01120362,-0
 .00236469,0.00003344,0.00060251,0.00093552,-0.00049969,-0.00228444,0.0
 0354607,0.00032190,0.00013808,-0.00074936,-0.00027125,0.00036977,0.001
 38427,0.00132979,0.00163298,-0.00047388,-0.00027961,0.00003161,-0.0000
 5618,0.00011339,-0.00007388,0.00031723,0.00023006,0.00006133,-0.000465
 36,0.00002036,0.00007976,-0.01826212,0.00200570,0.03447889,-0.02317373
 ,-0.01470969,0.01372430,-0.01207889,0.00604414,-0.01100245,0.00501832,
 0.00113380,0.00416694,0.03609456,-0.00257041,-0.00107092,-0.00089169,0
 .00774922,0.00475700,-0.00600372,-0.00082702,-0.00001302,0.00000945,0.
 00039878,0.00050823,-0.00056057,0.00079978,0.00030555,0.00013885,-0.00
 010211,0.00008998,-0.00009335,0.00027060,0.00066923,0.00100164,-0.0002
 1014,-0.00015180,-0.00005004,0.00000884,0.00003673,0.00000245,0.000009
 72,0.00008234,0.00029188,-0.00009576,0.00001207,-0.00002049,-0.0014794
 6,-0.01711170,0.01297992,-0.00966510,-0.00367382,0.00260634,0.01660765
 ,-0.01484580,0.00537384,-0.00827628,-0.00288486,-0.00755403,-0.0026183
 4,0.03329077,-0.00780056,-0.00909786,-0.00763815,0.05743439,0.02984622
 ,-0.04252865,-0.00085238,0.00126869,0.00089813,0.00110464,-0.00160225,
 -0.00283677,0.00299368,0.00047316,0.00045604,-0.00071381,-0.00017980,0
 .00011916,0.00035051,-0.00035379,0.00032497,-0.00052690,-0.00027465,-0
 .00004233,-0.00015883,0.00018405,-0.00005379,0.00050072,-0.00019487,-0
 .00032814,-0.00075293,0.00016386,0.00007342,-0.03245738,-0.00759447,0.
 04426811,-0.01518168,-0.01011210,0.01098638,0.02090531,0.00459954,-0.0
 0159501,-0.00020222,0.00010475,-0.00183220,-0.02464255,-0.00723049,-0.
 00027117\\0.00000067,0.00000245,-0.00000023,-0.00000188,0.00000053,0.0
 0000897,0.00000033,-0.00000202,-0.00000095,-0.00000023,-0.00000021,-0.
 00000134,0.00000163,0.00000081,-0.00000282,0.00000082,0.00000022,-0.00
 000016,-0.00000059,0.00000060,0.00000264,0.00000101,-0.00000154,-0.000
 00197,0.00000041,-0.00000198,-0.00000019,-0.00000115,-0.00000028,0.000
 00021,-0.00000044,-0.00000137,0.00000056,0.00000161,0.00000278,-0.0000
 0231,0.00000012,-0.00000529,-0.00000047,-0.00000352,0.00000191,-0.0000
 0665,0.00000048,0.00000275,-0.00000102,0.00000073,0.00000066,0.0000057
 4\\\@
 The archive entry for this job was punched.


 ... SUBJECTS WHICH DISCLOSE THEIR FULL POWER, MEANING AND BEAUTY AS SOON
 AS THEY ARE PRESENTED TO THE MIND HAVE VERY LITTLE OF THOSE QUALITIES
 TO DISCLOSE.
                           -- CHARLES DUTTON (1882)
 Job cpu time:       0 days  0 hours 27 minutes 46.2 seconds.
 Elapsed time:       0 days  0 hours  0 minutes 35.7 seconds.
 File lengths (MBytes):  RWF=    153 Int=      0 D2E=      0 Chk=      6 Scr=      2
 Normal termination of Gaussian 16 at Tue Nov  1 09:57:22 2022.
