 Entering Gaussian System, Link 0=g16
 Initial command:
 /home/chesagar/softwares/G16_AVX2//g16/l1.exe "/home/chesagar/scratch/Gau-107849.inp" -scrdir="/home/chesagar/scratch/"
 Entering Link 1 = /home/chesagar/softwares/G16_AVX2//g16/l1.exe PID=    107850.
  
 Copyright (c) 1988-2019, Gaussian, Inc.  All Rights Reserved.
  
 This is part of the Gaussian(R) 16 program.  It is based on
 the Gaussian(R) 09 system (copyright 2009, Gaussian, Inc.),
 the Gaussian(R) 03 system (copyright 2003, Gaussian, Inc.),
 the Gaussian(R) 98 system (copyright 1998, Gaussian, Inc.),
 the Gaussian(R) 94 system (copyright 1995, Gaussian, Inc.),
 the Gaussian 92(TM) system (copyright 1992, Gaussian, Inc.),
 the Gaussian 90(TM) system (copyright 1990, Gaussian, Inc.),
 the Gaussian 88(TM) system (copyright 1988, Gaussian, Inc.),
 the Gaussian 86(TM) system (copyright 1986, Carnegie Mellon
 University), and the Gaussian 82(TM) system (copyright 1983,
 Carnegie Mellon University). Gaussian is a federally registered
 trademark of Gaussian, Inc.
  
 This software contains proprietary and confidential information,
 including trade secrets, belonging to Gaussian, Inc.
  
 This software is provided under written license and may be
 used, copied, transmitted, or stored only in accord with that
 written license.
  
 The following legend is applicable only to US Government
 contracts under FAR:
  
                    RESTRICTED RIGHTS LEGEND
  
 Use, reproduction and disclosure by the US Government is
 subject to restrictions as set forth in subparagraphs (a)
 and (c) of the Commercial Computer Software - Restricted
 Rights clause in FAR 52.227-19.
  
 Gaussian, Inc.
 340 Quinnipiac St., Bldg. 40, Wallingford CT 06492
  
  
 ---------------------------------------------------------------
 Warning -- This program may not be used in any manner that
 competes with the business of Gaussian, Inc. or will provide
 assistance to any competitor of Gaussian, Inc.  The licensee
 of this program is prohibited from giving any competitor of
 Gaussian, Inc. access to this program.  By using this program,
 the user acknowledges that Gaussian, Inc. is engaged in the
 business of creating and licensing software in the field of
 computational chemistry and represents and warrants to the
 licensee that it is not a competitor of Gaussian, Inc. and that
 it will not use this program in any manner prohibited above.
 ---------------------------------------------------------------
  

 Cite this work as:
 Gaussian 16, Revision C.01,
 M. J. Frisch, G. W. Trucks, H. B. Schlegel, G. E. Scuseria, 
 M. A. Robb, J. R. Cheeseman, G. Scalmani, V. Barone, 
 G. A. Petersson, H. Nakatsuji, X. Li, M. Caricato, A. V. Marenich, 
 J. Bloino, B. G. Janesko, R. Gomperts, B. Mennucci, H. P. Hratchian, 
 J. V. Ortiz, A. F. Izmaylov, J. L. Sonnenberg, D. Williams-Young, 
 F. Ding, F. Lipparini, F. Egidi, J. Goings, B. Peng, A. Petrone, 
 T. Henderson, D. Ranasinghe, V. G. Zakrzewski, J. Gao, N. Rega, 
 G. Zheng, W. Liang, M. Hada, M. Ehara, K. Toyota, R. Fukuda, 
 J. Hasegawa, M. Ishida, T. Nakajima, Y. Honda, O. Kitao, H. Nakai, 
 T. Vreven, K. Throssell, J. A. Montgomery, Jr., J. E. Peralta, 
 F. Ogliaro, M. J. Bearpark, J. J. Heyd, E. N. Brothers, K. N. Kudin, 
 V. N. Staroverov, T. A. Keith, R. Kobayashi, J. Normand, 
 K. Raghavachari, A. P. Rendell, J. C. Burant, S. S. Iyengar, 
 J. Tomasi, M. Cossi, J. M. Millam, M. Klene, C. Adamo, R. Cammi, 
 J. W. Ochterski, R. L. Martin, K. Morokuma, O. Farkas, 
 J. B. Foresman, and D. J. Fox, Gaussian, Inc., Wallingford CT, 2019.
 
 ******************************************
 Gaussian 16:  ES64L-G16RevC.01  3-Jul-2019
                 1-Nov-2022 
 ******************************************
 %nprocshared=48
 Will use up to   48 processors via shared memory.
 %mem=100GB
 -----------------------------------------------------------
 # opt=(calcfc,ts,noeigen) freq b3lyp/gen nosymm pseudo=read
 -----------------------------------------------------------
 1/5=1,10=4,11=1,18=20,26=3,38=1/1,3;
 2/9=110,12=2,15=1,17=6,18=5,40=1/2;
 3/5=7,11=2,16=1,17=8,25=1,30=1,71=2,74=-5,140=1/1,2,3;
 4//1;
 5/5=2,38=5/2;
 8/6=4,10=90,11=11/1;
 11/6=1,8=1,9=11,15=111,16=1,31=1/1,2,10;
 10/6=1,13=1,31=1/2;
 6/7=2,8=2,9=2,10=2,28=1/1;
 7/10=1,25=1,30=1/1,2,3,16;
 1/5=1,10=4,11=1,18=20,26=3/3(2);
 2/9=110,15=1/2;
 99//99;
 2/9=110,15=1/2;
 3/5=7,6=1,11=2,16=1,17=8,25=1,30=1,71=1,74=-5,82=7/1,2,3;
 4/5=5,16=3,69=1/1;
 5/5=2,38=5/2;
 7/30=1/1,2,3,16;
 1/5=1,11=1,18=20,26=3/3(-5);
 2/9=110,15=1/2;
 6/7=2,8=2,9=2,10=2,19=2,28=1/1;
 99/9=1/99;
 -------------------
 Title Card Required
 -------------------
 Symbolic Z-matrix:
 Charge =  0 Multiplicity = 1
 42                   -0.40522   1.67156   11.92519 
 16                    0.23008   3.80385   11.86399 
 16                   -2.70691   1.79358   12.39559 
 16                   -0.30124   0.73933   9.76098 
 16                    1.04423   0.09561   12.86468 
 1                     1.06944  -0.9596    12.02537 
 42                   -2.46637   1.60496   10.14019 
 16                   -4.10481   0.47386   8.91622 
 1                    -4.01895   1.17063   7.75896 
 16                   -2.48184   3.74481   9.41278 
 1                    -2.56647   3.7344    7.52909 
 42                   -0.2612    3.17931   9.56659 
 16                    0.84311   5.23319   8.9325 
 1                     1.08143   5.82725   10.11929 
 16                   -0.12115   2.99669   7.27373 
 1                    -1.89236   3.52586   7.0157 
 1                    -0.41434   1.7032    7.01039 
 
 Add virtual bond connecting atoms H11        and S10        Dist= 3.56D+00.
 Add virtual bond connecting atoms H16        and S15        Dist= 3.53D+00.

 GradGradGradGradGradGradGradGradGradGradGradGradGradGradGradGradGradGrad
 Berny optimization.
 Initialization pass.
                           ----------------------------
                           !    Initial Parameters    !
                           ! (Angstroms and Degrees)  !
 --------------------------                            --------------------------
 ! Name  Definition              Value          Derivative Info.                !
 --------------------------------------------------------------------------------
 ! R1    R(1,2)                  2.2258         calculate D2E/DX2 analytically  !
 ! R2    R(1,3)                  2.3524         calculate D2E/DX2 analytically  !
 ! R3    R(1,4)                  2.3587         calculate D2E/DX2 analytically  !
 ! R4    R(1,5)                  2.3382         calculate D2E/DX2 analytically  !
 ! R5    R(1,7)                  2.7275         calculate D2E/DX2 analytically  !
 ! R6    R(1,12)                 2.803          calculate D2E/DX2 analytically  !
 ! R7    R(2,12)                 2.4309         calculate D2E/DX2 analytically  !
 ! R8    R(3,7)                  2.276          calculate D2E/DX2 analytically  !
 ! R9    R(4,7)                  2.3624         calculate D2E/DX2 analytically  !
 ! R10   R(4,12)                 2.448          calculate D2E/DX2 analytically  !
 ! R11   R(5,6)                  1.3485         calculate D2E/DX2 analytically  !
 ! R12   R(7,8)                  2.3371         calculate D2E/DX2 analytically  !
 ! R13   R(7,10)                 2.2602         calculate D2E/DX2 analytically  !
 ! R14   R(7,12)                 2.7695         calculate D2E/DX2 analytically  !
 ! R15   R(8,9)                  1.3536         calculate D2E/DX2 analytically  !
 ! R16   R(10,11)                1.8856         calculate D2E/DX2 analytically  !
 ! R17   R(10,12)                2.2967         calculate D2E/DX2 analytically  !
 ! R18   R(11,16)                0.8726         calculate D2E/DX2 analytically  !
 ! R19   R(12,13)                2.4166         calculate D2E/DX2 analytically  !
 ! R20   R(12,15)                2.3044         calculate D2E/DX2 analytically  !
 ! R21   R(13,14)                1.3484         calculate D2E/DX2 analytically  !
 ! R22   R(15,16)                1.8665         calculate D2E/DX2 analytically  !
 ! R23   R(15,17)                1.3522         calculate D2E/DX2 analytically  !
 ! A1    A(2,1,3)              103.5965         calculate D2E/DX2 analytically  !
 ! A2    A(2,1,4)              109.9266         calculate D2E/DX2 analytically  !
 ! A3    A(2,1,5)              118.673          calculate D2E/DX2 analytically  !
 ! A4    A(2,1,7)              102.7736         calculate D2E/DX2 analytically  !
 ! A5    A(3,1,4)              104.3059         calculate D2E/DX2 analytically  !
 ! A6    A(3,1,5)              124.1349         calculate D2E/DX2 analytically  !
 ! A7    A(3,1,12)             100.9893         calculate D2E/DX2 analytically  !
 ! A8    A(4,1,5)               94.2985         calculate D2E/DX2 analytically  !
 ! A9    A(5,1,7)              135.6401         calculate D2E/DX2 analytically  !
 ! A10   A(5,1,12)             131.9735         calculate D2E/DX2 analytically  !
 ! A11   A(1,5,6)              106.7929         calculate D2E/DX2 analytically  !
 ! A12   A(1,7,8)              152.1732         calculate D2E/DX2 analytically  !
 ! A13   A(1,7,10)             101.1092         calculate D2E/DX2 analytically  !
 ! A14   A(3,7,4)              106.6358         calculate D2E/DX2 analytically  !
 ! A15   A(3,7,8)              119.0117         calculate D2E/DX2 analytically  !
 ! A16   A(3,7,10)             103.8711         calculate D2E/DX2 analytically  !
 ! A17   A(3,7,12)             104.0207         calculate D2E/DX2 analytically  !
 ! A18   A(4,7,8)              112.4028         calculate D2E/DX2 analytically  !
 ! A19   A(4,7,10)             107.5493         calculate D2E/DX2 analytically  !
 ! A20   A(8,7,10)             106.551          calculate D2E/DX2 analytically  !
 ! A21   A(8,7,12)             136.4565         calculate D2E/DX2 analytically  !
 ! A22   A(7,8,9)               98.8677         calculate D2E/DX2 analytically  !
 ! A23   A(7,10,11)            108.4569         calculate D2E/DX2 analytically  !
 ! A24   A(11,10,12)            96.2544         calculate D2E/DX2 analytically  !
 ! A25   A(10,11,16)           123.6671         calculate D2E/DX2 analytically  !
 ! A26   A(1,12,10)             97.9968         calculate D2E/DX2 analytically  !
 ! A27   A(1,12,13)            134.5411         calculate D2E/DX2 analytically  !
 ! A28   A(1,12,15)            142.9141         calculate D2E/DX2 analytically  !
 ! A29   A(2,12,4)             100.6217         calculate D2E/DX2 analytically  !
 ! A30   A(2,12,7)              96.3857         calculate D2E/DX2 analytically  !
 ! A31   A(2,12,10)            101.2704         calculate D2E/DX2 analytically  !
 ! A32   A(2,12,13)             86.4035         calculate D2E/DX2 analytically  !
 ! A33   A(2,12,15)            161.5174         calculate D2E/DX2 analytically  !
 ! A34   A(4,12,10)            103.5868         calculate D2E/DX2 analytically  !
 ! A35   A(4,12,13)            151.0943         calculate D2E/DX2 analytically  !
 ! A36   A(4,12,15)             90.0584         calculate D2E/DX2 analytically  !
 ! A37   A(7,12,13)            154.3318         calculate D2E/DX2 analytically  !
 ! A38   A(7,12,15)            102.0883         calculate D2E/DX2 analytically  !
 ! A39   A(10,12,13)           102.4154         calculate D2E/DX2 analytically  !
 ! A40   A(10,12,15)            90.6671         calculate D2E/DX2 analytically  !
 ! A41   A(13,12,15)            77.2032         calculate D2E/DX2 analytically  !
 ! A42   A(12,13,14)           102.9598         calculate D2E/DX2 analytically  !
 ! A43   A(12,15,16)            93.2914         calculate D2E/DX2 analytically  !
 ! A44   A(12,15,17)           104.8571         calculate D2E/DX2 analytically  !
 ! A45   A(16,15,17)            92.2074         calculate D2E/DX2 analytically  !
 ! A46   A(11,16,15)           136.0123         calculate D2E/DX2 analytically  !
 ! D1    D(2,1,5,6)           -134.4823         calculate D2E/DX2 analytically  !
 ! D2    D(3,1,5,6)             91.5339         calculate D2E/DX2 analytically  !
 ! D3    D(4,1,5,6)            -18.9734         calculate D2E/DX2 analytically  !
 ! D4    D(7,1,5,6)             22.3946         calculate D2E/DX2 analytically  !
 ! D5    D(12,1,5,6)           -65.3376         calculate D2E/DX2 analytically  !
 ! D6    D(2,1,7,8)            175.4704         calculate D2E/DX2 analytically  !
 ! D7    D(2,1,7,10)             1.7924         calculate D2E/DX2 analytically  !
 ! D8    D(5,1,7,8)             16.1594         calculate D2E/DX2 analytically  !
 ! D9    D(5,1,7,10)          -157.5186         calculate D2E/DX2 analytically  !
 ! D10   D(3,1,12,10)            1.0943         calculate D2E/DX2 analytically  !
 ! D11   D(3,1,12,13)          117.3808         calculate D2E/DX2 analytically  !
 ! D12   D(3,1,12,15)         -100.7555         calculate D2E/DX2 analytically  !
 ! D13   D(5,1,12,10)          161.7529         calculate D2E/DX2 analytically  !
 ! D14   D(5,1,12,13)          -81.9606         calculate D2E/DX2 analytically  !
 ! D15   D(5,1,12,15)           59.9031         calculate D2E/DX2 analytically  !
 ! D16   D(1,4,7,12)            76.4412         calculate D2E/DX2 analytically  !
 ! D17   D(1,7,8,9)           -141.8515         calculate D2E/DX2 analytically  !
 ! D18   D(3,7,8,9)            148.4711         calculate D2E/DX2 analytically  !
 ! D19   D(4,7,8,9)            -85.8881         calculate D2E/DX2 analytically  !
 ! D20   D(10,7,8,9)            31.6763         calculate D2E/DX2 analytically  !
 ! D21   D(12,7,8,9)           -21.8112         calculate D2E/DX2 analytically  !
 ! D22   D(1,7,10,11)          132.3341         calculate D2E/DX2 analytically  !
 ! D23   D(3,7,10,11)         -171.0716         calculate D2E/DX2 analytically  !
 ! D24   D(4,7,10,11)           76.1371         calculate D2E/DX2 analytically  !
 ! D25   D(8,7,10,11)          -44.592          calculate D2E/DX2 analytically  !
 ! D26   D(3,7,12,2)             2.3398         calculate D2E/DX2 analytically  !
 ! D27   D(3,7,12,13)          -92.66           calculate D2E/DX2 analytically  !
 ! D28   D(3,7,12,15)         -178.2266         calculate D2E/DX2 analytically  !
 ! D29   D(8,7,12,2)           173.5886         calculate D2E/DX2 analytically  !
 ! D30   D(8,7,12,13)           78.5887         calculate D2E/DX2 analytically  !
 ! D31   D(8,7,12,15)           -6.9779         calculate D2E/DX2 analytically  !
 ! D32   D(7,10,11,16)         -73.9922         calculate D2E/DX2 analytically  !
 ! D33   D(12,10,11,16)          2.0901         calculate D2E/DX2 analytically  !
 ! D34   D(11,10,12,1)        -146.4252         calculate D2E/DX2 analytically  !
 ! D35   D(11,10,12,2)         163.2058         calculate D2E/DX2 analytically  !
 ! D36   D(11,10,12,4)         -92.8178         calculate D2E/DX2 analytically  !
 ! D37   D(11,10,12,13)         74.4448         calculate D2E/DX2 analytically  !
 ! D38   D(11,10,12,15)         -2.5965         calculate D2E/DX2 analytically  !
 ! D39   D(10,11,16,15)          0.4832         calculate D2E/DX2 analytically  !
 ! D40   D(1,12,13,14)         -20.2066         calculate D2E/DX2 analytically  !
 ! D41   D(2,12,13,14)          -6.3513         calculate D2E/DX2 analytically  !
 ! D42   D(4,12,13,14)        -111.9116         calculate D2E/DX2 analytically  !
 ! D43   D(7,12,13,14)          90.9156         calculate D2E/DX2 analytically  !
 ! D44   D(10,12,13,14)         94.4076         calculate D2E/DX2 analytically  !
 ! D45   D(15,12,13,14)       -177.7574         calculate D2E/DX2 analytically  !
 ! D46   D(1,12,15,16)         106.8265         calculate D2E/DX2 analytically  !
 ! D47   D(1,12,15,17)          13.6638         calculate D2E/DX2 analytically  !
 ! D48   D(2,12,15,16)        -128.067          calculate D2E/DX2 analytically  !
 ! D49   D(2,12,15,17)         138.7703         calculate D2E/DX2 analytically  !
 ! D50   D(4,12,15,16)         106.1665         calculate D2E/DX2 analytically  !
 ! D51   D(4,12,15,17)          13.0039         calculate D2E/DX2 analytically  !
 ! D52   D(7,12,15,16)          53.7089         calculate D2E/DX2 analytically  !
 ! D53   D(7,12,15,17)         -39.4537         calculate D2E/DX2 analytically  !
 ! D54   D(10,12,15,16)          2.5781         calculate D2E/DX2 analytically  !
 ! D55   D(10,12,15,17)        -90.5845         calculate D2E/DX2 analytically  !
 ! D56   D(13,12,15,16)       -100.0043         calculate D2E/DX2 analytically  !
 ! D57   D(13,12,15,17)        166.833          calculate D2E/DX2 analytically  !
 ! D58   D(12,15,16,11)         -2.7136         calculate D2E/DX2 analytically  !
 ! D59   D(17,15,16,11)        102.3113         calculate D2E/DX2 analytically  !
 --------------------------------------------------------------------------------
 Trust Radius=3.00D-01 FncErr=1.00D-07 GrdErr=1.00D-06 EigMax=2.50D+02 EigMin=1.00D-04
 Number of steps in this run=    102 maximum allowed number of steps=    102.
 Search for a saddle point of order  1.
 GradGradGradGradGradGradGradGradGradGradGradGradGradGradGradGradGradGrad

                          Input orientation:                          
 ---------------------------------------------------------------------
 Center     Atomic      Atomic             Coordinates (Angstroms)
 Number     Number       Type             X           Y           Z
 ---------------------------------------------------------------------
      1         42           0       -0.405216    1.671561   11.925193
      2         16           0        0.230084    3.803845   11.863988
      3         16           0       -2.706911    1.793579   12.395588
      4         16           0       -0.301243    0.739325    9.760984
      5         16           0        1.044228    0.095606   12.864677
      6          1           0        1.069442   -0.959597   12.025366
      7         42           0       -2.466374    1.604958   10.140188
      8         16           0       -4.104814    0.473857    8.916221
      9          1           0       -4.018954    1.170631    7.758963
     10         16           0       -2.481835    3.744809    9.412779
     11          1           0       -2.566474    3.734402    7.529087
     12         42           0       -0.261200    3.179310    9.566586
     13         16           0        0.843106    5.233191    8.932504
     14          1           0        1.081429    5.827246   10.119286
     15         16           0       -0.121146    2.996693    7.273732
     16          1           0       -1.892361    3.525857    7.015695
     17          1           0       -0.414339    1.703195    7.010387
 ---------------------------------------------------------------------
                    Distance matrix (angstroms):
                    1          2          3          4          5
     1  Mo   0.000000
     2  S    2.225755   0.000000
     3  S    2.352437   3.598570   0.000000
     4  S    2.358744   3.754493   3.720192   0.000000
     5  S    2.338194   3.926225   4.144177   3.443483   0.000000
     6  H    3.017887   4.839519   4.688058   3.145241   1.348530
     7  Mo   2.727462   3.882973   2.276020   2.362395   4.693113
     8  S    4.916852   6.210434   3.975147   3.905285   6.499693
     9  H    5.537825   6.468336   4.858787   4.244466   7.270475
    10  S    3.863021   3.656011   3.571429   3.729499   6.137215
    11  H    5.315270   5.159159   5.241121   4.368423   7.399090
    12  Mo   2.803047   2.430938   3.988108   2.448044   4.700083
    13  S    4.816607   3.318497   6.035437   4.710705   6.472806
    14  H    4.768766   2.804091   5.983606   5.284610   6.355333
    15  S    4.844869   4.673896   5.862344   3.363713   6.405706
    16  H    5.454648   5.299811   5.710300   4.222917   7.389233
    17  H    4.914916   5.327800   5.853584   2.916782   6.243755
                    6          7          8          9         10
     6  H    0.000000
     7  Mo   4.757398   0.000000
     8  S    6.204393   2.337086   0.000000
     9  H    6.973653   2.875652   1.353555   0.000000
    10  S    6.447373   2.260160   3.685072   3.424067   0.000000
    11  H    7.447821   3.370816   3.862873   2.955582   1.885621
    12  Mo   4.994673   2.769548   4.745084   4.628499   2.296664
    13  S    6.925868   5.057196   6.865380   6.443696   3.674395
    14  H    7.049434   5.514985   7.550050   7.298568   4.187188
    15  S    6.296646   3.956462   4.993204   4.331612   3.272316
    16  H    7.347678   3.712385   4.221570   3.259131   2.478191
    17  H    5.868738   3.743815   4.331637   3.719844   3.770174
                   11         12         13         14         15
    11  H    0.000000
    12  Mo   3.126311   0.000000
    13  S    3.980098   2.416605   0.000000
    14  H    4.939263   3.019883   1.348388   0.000000
    15  S    2.566914   2.304375   2.946732   4.189916   0.000000
    16  H    0.872634   3.047593   3.751257   4.875664   1.866494
    17  H    3.004420   2.955761   4.211481   5.376837   1.352202
                   16         17
    16  H    0.000000
    17  H    2.346630   0.000000
 Symmetry turned off by external request.
 Stoichiometry    H6Mo3S8
 Framework group  C1[X(H6Mo3S8)]
 Deg. of freedom    45
 Full point group                 C1      NOp   1
 Rotational constants (GHZ):           0.2864284           0.2550405           0.1749342
 General basis read from cards:  (5D, 7F)
 ======================================================================================================
                                       Pseudopotential Parameters
 ======================================================================================================
  Center     Atomic      Valence      Angular      Power
  Number     Number     Electrons     Momentum     of R      Exponent        Coefficient   SO-Coeffient
 ======================================================================================================
    1         42           14
                                      F and up 
                                                     0      537.9667807       -0.04694920    0.00000000
                                                     1      147.8982938      -20.20800840    0.00000000
                                                     2       45.7358898     -106.21163020    0.00000000
                                                     2       13.2911467      -41.81073680    0.00000000
                                                     2        4.7059961       -4.20541030    0.00000000
                                      S - F
                                                     0      110.2991760        2.80637170    0.00000000
                                                     1       23.2014645       44.51620120    0.00000000
                                                     2        5.3530131       82.77852270    0.00000000
                                      P - F
                                                     0       63.2901397        4.94208760    0.00000000
                                                     1       23.3315302       25.86049760    0.00000000
                                                     2       24.6759423      132.47087420    0.00000000
                                                     2        4.6493040       57.31497940    0.00000000
                                      D - F
                                                     0      104.4839977        3.00545910    0.00000000
                                                     1       66.2307245       26.36378510    0.00000000
                                                     2       39.1283176      183.38491990    0.00000000
                                                     2       13.1164437       98.44530680    0.00000000
                                                     2        3.6280263       22.49013770    0.00000000
    2         16
                                   No pseudopotential on this center.
    3         16
                                   No pseudopotential on this center.
    4         16
                                   No pseudopotential on this center.
    5         16
                                   No pseudopotential on this center.
    6          1
                                   No pseudopotential on this center.
    7         42           14
                                      F and up 
                                                     0      537.9667807       -0.04694920    0.00000000
                                                     1      147.8982938      -20.20800840    0.00000000
                                                     2       45.7358898     -106.21163020    0.00000000
                                                     2       13.2911467      -41.81073680    0.00000000
                                                     2        4.7059961       -4.20541030    0.00000000
                                      S - F
                                                     0      110.2991760        2.80637170    0.00000000
                                                     1       23.2014645       44.51620120    0.00000000
                                                     2        5.3530131       82.77852270    0.00000000
                                      P - F
                                                     0       63.2901397        4.94208760    0.00000000
                                                     1       23.3315302       25.86049760    0.00000000
                                                     2       24.6759423      132.47087420    0.00000000
                                                     2        4.6493040       57.31497940    0.00000000
                                      D - F
                                                     0      104.4839977        3.00545910    0.00000000
                                                     1       66.2307245       26.36378510    0.00000000
                                                     2       39.1283176      183.38491990    0.00000000
                                                     2       13.1164437       98.44530680    0.00000000
                                                     2        3.6280263       22.49013770    0.00000000
    8         16
                                   No pseudopotential on this center.
    9          1
                                   No pseudopotential on this center.
   10         16
                                   No pseudopotential on this center.
   11          1
                                   No pseudopotential on this center.
   12         42           14
                                      F and up 
                                                     0      537.9667807       -0.04694920    0.00000000
                                                     1      147.8982938      -20.20800840    0.00000000
                                                     2       45.7358898     -106.21163020    0.00000000
                                                     2       13.2911467      -41.81073680    0.00000000
                                                     2        4.7059961       -4.20541030    0.00000000
                                      S - F
                                                     0      110.2991760        2.80637170    0.00000000
                                                     1       23.2014645       44.51620120    0.00000000
                                                     2        5.3530131       82.77852270    0.00000000
                                      P - F
                                                     0       63.2901397        4.94208760    0.00000000
                                                     1       23.3315302       25.86049760    0.00000000
                                                     2       24.6759423      132.47087420    0.00000000
                                                     2        4.6493040       57.31497940    0.00000000
                                      D - F
                                                     0      104.4839977        3.00545910    0.00000000
                                                     1       66.2307245       26.36378510    0.00000000
                                                     2       39.1283176      183.38491990    0.00000000
                                                     2       13.1164437       98.44530680    0.00000000
                                                     2        3.6280263       22.49013770    0.00000000
   13         16
                                   No pseudopotential on this center.
   14          1
                                   No pseudopotential on this center.
   15         16
                                   No pseudopotential on this center.
   16          1
                                   No pseudopotential on this center.
   17          1
                                   No pseudopotential on this center.
 ======================================================================================================
   240 basis functions,   605 primitive gaussians,   254 cartesian basis functions
    88 alpha electrons       88 beta electrons
       nuclear repulsion energy      2108.3820927760 Hartrees.
 NAtoms=   17 NActive=   17 NUniq=   17 SFac= 1.00D+00 NAtFMM=   60 NAOKFM=F Big=F
 Integral buffers will be    131072 words long.
 Raffenetti 2 integral format.
 Two-electron integral symmetry is turned off.
 One-electron integrals computed using PRISM.
   1 Symmetry operations used in ECPInt.
 ECPInt:  NShTT=    3403 NPrTT=   23974 LenC2=    3157 LenP2D=   15371.
 LDataN:  DoStor=T MaxTD1= 5 Len=  102
 NBasis=   240 RedAO= T EigKep=  1.33D-03  NBF=   240
 NBsUse=   240 1.00D-06 EigRej= -1.00D+00 NBFU=   240
 Defaulting to unpruned grid for atomic number  42.
 Defaulting to unpruned grid for atomic number  42.
 Defaulting to unpruned grid for atomic number  42.
 ExpMin= 2.47D-02 ExpMax= 2.19D+04 ExpMxC= 3.30D+03 IAcc=3 IRadAn=         5 AccDes= 0.00D+00
 Harris functional with IExCor=  402 and IRadAn=       5 diagonalized for initial guess.
 HarFok:  IExCor=  402 AccDes= 0.00D+00 IRadAn=         5 IDoV= 1 UseB2=F ITyADJ=14
 ICtDFT=  3500011 ScaDFX=  1.000000  1.000000  1.000000  1.000000
 Defaulting to unpruned grid for atomic number  42.
 FoFCou: FMM=F IPFlag=           0 FMFlag=      100000 FMFlg1=           0
         NFxFlg=           0 DoJE=T BraDBF=F KetDBF=T FulRan=T
         wScrn=  0.000000 ICntrl=       500 IOpCl=  0 I1Cent=   200000004 NGrid=           0
         NMat0=    1 NMatS0=      1 NMatT0=    0 NMatD0=    1 NMtDS0=    0 NMtDT0=    0
 Symmetry not used in FoFCou.
 Requested convergence on RMS density matrix=1.00D-08 within 128 cycles.
 Requested convergence on MAX density matrix=1.00D-06.
 Requested convergence on             energy=1.00D-06.
 No special actions if energy rises.
 Defaulting to unpruned grid for atomic number  42.
 Defaulting to unpruned grid for atomic number  42.
 Defaulting to unpruned grid for atomic number  42.
 Defaulting to unpruned grid for atomic number  42.
 Defaulting to unpruned grid for atomic number  42.
 Defaulting to unpruned grid for atomic number  42.
 Defaulting to unpruned grid for atomic number  42.
 Defaulting to unpruned grid for atomic number  42.
 Defaulting to unpruned grid for atomic number  42.
 Defaulting to unpruned grid for atomic number  42.
 Defaulting to unpruned grid for atomic number  42.
 Defaulting to unpruned grid for atomic number  42.
 Defaulting to unpruned grid for atomic number  42.
 Defaulting to unpruned grid for atomic number  42.
 Defaulting to unpruned grid for atomic number  42.
 Defaulting to unpruned grid for atomic number  42.
 Defaulting to unpruned grid for atomic number  42.
 Defaulting to unpruned grid for atomic number  42.
 Defaulting to unpruned grid for atomic number  42.
 Defaulting to unpruned grid for atomic number  42.
 Defaulting to unpruned grid for atomic number  42.
 Defaulting to unpruned grid for atomic number  42.
 Defaulting to unpruned grid for atomic number  42.
 Defaulting to unpruned grid for atomic number  42.
 Defaulting to unpruned grid for atomic number  42.
 Defaulting to unpruned grid for atomic number  42.
 Defaulting to unpruned grid for atomic number  42.
 Defaulting to unpruned grid for atomic number  42.
 Defaulting to unpruned grid for atomic number  42.
 Defaulting to unpruned grid for atomic number  42.
 Defaulting to unpruned grid for atomic number  42.
 Defaulting to unpruned grid for atomic number  42.
 Defaulting to unpruned grid for atomic number  42.
 Defaulting to unpruned grid for atomic number  42.
 Defaulting to unpruned grid for atomic number  42.
 Defaulting to unpruned grid for atomic number  42.
 Defaulting to unpruned grid for atomic number  42.
 Defaulting to unpruned grid for atomic number  42.
 Defaulting to unpruned grid for atomic number  42.
 Defaulting to unpruned grid for atomic number  42.
 Defaulting to unpruned grid for atomic number  42.
 Defaulting to unpruned grid for atomic number  42.
 Defaulting to unpruned grid for atomic number  42.
 Defaulting to unpruned grid for atomic number  42.
 Defaulting to unpruned grid for atomic number  42.
 Defaulting to unpruned grid for atomic number  42.
 Defaulting to unpruned grid for atomic number  42.
 Defaulting to unpruned grid for atomic number  42.
 EnCoef did     2 forward-backward iterations
 EnCoef did     3 forward-backward iterations
 EnCoef did     2 forward-backward iterations
 EnCoef did     4 forward-backward iterations
 EnCoef did     4 forward-backward iterations
 EnCoef did     4 forward-backward iterations
 Restarting incremental Fock formation.
 SCF Done:  E(RB3LYP) =  -3392.00283190     A.U. after   22 cycles
            NFock= 22  Conv=0.71D-08     -V/T= 2.0438
 DoSCS=F DFT=T ScalE2(SS,OS)=  1.000000  1.000000
 Range of M.O.s used for correlation:     1   240
 NBasis=   240 NAE=    88 NBE=    88 NFC=     0 NFV=     0
 NROrb=    240 NOA=    88 NOB=    88 NVA=   152 NVB=   152

 **** Warning!!: The smallest alpha delta epsilon is  0.87143844D-01

   1 Symmetry operations used in ECPInt.
 ECPInt:  NShTT=    3403 NPrTT=   23974 LenC2=    3157 LenP2D=   15371.
 LDataN:  DoStor=T MaxTD1= 6 Len=  172
 Symmetrizing basis deriv contribution to polar:
 IMax=3 JMax=2 DiffMx= 0.00D+00
 G2DrvN: will do    18 centers at a time, making    1 passes.
 Calling FoFCou, ICntrl=  3107 FMM=F I1Cent=   0 AccDes= 0.00D+00.
 Defaulting to unpruned grid for atomic number  42.
 Defaulting to unpruned grid for atomic number  42.
 Defaulting to unpruned grid for atomic number  42.
 Defaulting to unpruned grid for atomic number  42.
 Defaulting to unpruned grid for atomic number  42.
 Defaulting to unpruned grid for atomic number  42.
 Defaulting to unpruned grid for atomic number  42.
 Defaulting to unpruned grid for atomic number  42.
 Defaulting to unpruned grid for atomic number  42.
 Defaulting to unpruned grid for atomic number  42.
 Defaulting to unpruned grid for atomic number  42.
 Defaulting to unpruned grid for atomic number  42.
 Defaulting to unpruned grid for atomic number  42.
 Defaulting to unpruned grid for atomic number  42.
 Defaulting to unpruned grid for atomic number  42.
 Defaulting to unpruned grid for atomic number  42.
 Defaulting to unpruned grid for atomic number  42.
 Defaulting to unpruned grid for atomic number  42.
 Defaulting to unpruned grid for atomic number  42.
 Defaulting to unpruned grid for atomic number  42.
 Defaulting to unpruned grid for atomic number  42.
 Defaulting to unpruned grid for atomic number  42.
 Defaulting to unpruned grid for atomic number  42.
 Defaulting to unpruned grid for atomic number  42.
 Defaulting to unpruned grid for atomic number  42.
 Defaulting to unpruned grid for atomic number  42.
 Defaulting to unpruned grid for atomic number  42.
 Defaulting to unpruned grid for atomic number  42.
 Defaulting to unpruned grid for atomic number  42.
 Defaulting to unpruned grid for atomic number  42.
 Defaulting to unpruned grid for atomic number  42.
 Defaulting to unpruned grid for atomic number  42.
 Defaulting to unpruned grid for atomic number  42.
 Defaulting to unpruned grid for atomic number  42.
 Defaulting to unpruned grid for atomic number  42.
 Defaulting to unpruned grid for atomic number  42.
 Defaulting to unpruned grid for atomic number  42.
 Defaulting to unpruned grid for atomic number  42.
 Defaulting to unpruned grid for atomic number  42.
 Defaulting to unpruned grid for atomic number  42.
 Defaulting to unpruned grid for atomic number  42.
 Defaulting to unpruned grid for atomic number  42.
 Defaulting to unpruned grid for atomic number  42.
 Defaulting to unpruned grid for atomic number  42.
 Defaulting to unpruned grid for atomic number  42.
 Defaulting to unpruned grid for atomic number  42.
 Defaulting to unpruned grid for atomic number  42.
 Defaulting to unpruned grid for atomic number  42.
 End of G2Drv F.D. properties file   721 does not exist.
 End of G2Drv F.D. properties file   722 does not exist.
 End of G2Drv F.D. properties file   788 does not exist.
          IDoAtm=11111111111111111
          Differentiating once with respect to nuclear coordinates.
 Defaulting to unpruned grid for atomic number  42.
 Defaulting to unpruned grid for atomic number  42.
 Defaulting to unpruned grid for atomic number  42.
 Keep R1 ints in memory in canonical form, NReq=470093969.
 Defaulting to unpruned grid for atomic number  42.
 Defaulting to unpruned grid for atomic number  42.
 Defaulting to unpruned grid for atomic number  42.
 Defaulting to unpruned grid for atomic number  42.
 Defaulting to unpruned grid for atomic number  42.
 Defaulting to unpruned grid for atomic number  42.
 Defaulting to unpruned grid for atomic number  42.
 Defaulting to unpruned grid for atomic number  42.
 Defaulting to unpruned grid for atomic number  42.
 Defaulting to unpruned grid for atomic number  42.
 Defaulting to unpruned grid for atomic number  42.
 Defaulting to unpruned grid for atomic number  42.
 Defaulting to unpruned grid for atomic number  42.
 Defaulting to unpruned grid for atomic number  42.
 Defaulting to unpruned grid for atomic number  42.
 Defaulting to unpruned grid for atomic number  42.
 Defaulting to unpruned grid for atomic number  42.
 Defaulting to unpruned grid for atomic number  42.
 Defaulting to unpruned grid for atomic number  42.
 Defaulting to unpruned grid for atomic number  42.
 Defaulting to unpruned grid for atomic number  42.
 Defaulting to unpruned grid for atomic number  42.
 Defaulting to unpruned grid for atomic number  42.
 Defaulting to unpruned grid for atomic number  42.
 Defaulting to unpruned grid for atomic number  42.
 Defaulting to unpruned grid for atomic number  42.
 Defaulting to unpruned grid for atomic number  42.
 Defaulting to unpruned grid for atomic number  42.
 Defaulting to unpruned grid for atomic number  42.
 Defaulting to unpruned grid for atomic number  42.
 Defaulting to unpruned grid for atomic number  42.
 Defaulting to unpruned grid for atomic number  42.
 Defaulting to unpruned grid for atomic number  42.
 Defaulting to unpruned grid for atomic number  42.
 Defaulting to unpruned grid for atomic number  42.
 Defaulting to unpruned grid for atomic number  42.
 Defaulting to unpruned grid for atomic number  42.
 Defaulting to unpruned grid for atomic number  42.
 Defaulting to unpruned grid for atomic number  42.
 Defaulting to unpruned grid for atomic number  42.
 Defaulting to unpruned grid for atomic number  42.
 Defaulting to unpruned grid for atomic number  42.
 Defaulting to unpruned grid for atomic number  42.
 Defaulting to unpruned grid for atomic number  42.
 Defaulting to unpruned grid for atomic number  42.
 Defaulting to unpruned grid for atomic number  42.
 Defaulting to unpruned grid for atomic number  42.
 Defaulting to unpruned grid for atomic number  42.
          There are    54 degrees of freedom in the 1st order CPHF.  IDoFFX=6 NUNeed=     0.
     48 vectors produced by pass  0 Test12= 2.48D-14 1.85D-09 XBig12= 2.12D-01 1.23D-01.
 AX will form    48 AO Fock derivatives at one time.
     48 vectors produced by pass  1 Test12= 2.48D-14 1.85D-09 XBig12= 1.05D-01 6.51D-02.
     48 vectors produced by pass  2 Test12= 2.48D-14 1.85D-09 XBig12= 1.19D-02 1.54D-02.
     48 vectors produced by pass  3 Test12= 2.48D-14 1.85D-09 XBig12= 4.27D-04 2.59D-03.
     48 vectors produced by pass  4 Test12= 2.48D-14 1.85D-09 XBig12= 4.68D-06 3.73D-04.
     48 vectors produced by pass  5 Test12= 2.48D-14 1.85D-09 XBig12= 3.04D-08 1.89D-05.
     48 vectors produced by pass  6 Test12= 2.48D-14 1.85D-09 XBig12= 1.45D-10 1.49D-06.
     28 vectors produced by pass  7 Test12= 2.48D-14 1.85D-09 XBig12= 4.94D-13 7.47D-08.
      4 vectors produced by pass  8 Test12= 2.48D-14 1.85D-09 XBig12= 1.37D-15 4.54D-09.
 InvSVY:  IOpt=1 It=  1 EMax= 6.79D-16
 Solved reduced A of dimension   368 with    54 vectors.
 End of Minotr F.D. properties file   721 does not exist.
 End of Minotr F.D. properties file   722 does not exist.
 End of Minotr F.D. properties file   788 does not exist.

 **********************************************************************

            Population analysis using the SCF Density.

 **********************************************************************

 Alpha  occ. eigenvalues --  -88.90899 -88.90890 -88.89783 -88.89266 -88.89001
 Alpha  occ. eigenvalues --  -88.88887 -88.88456 -88.86055  -7.98717  -7.98598
 Alpha  occ. eigenvalues --   -7.97672  -7.97097  -7.96828  -7.96723  -7.96322
 Alpha  occ. eigenvalues --   -7.93740  -5.94782  -5.94628  -5.94588  -5.94549
 Alpha  occ. eigenvalues --   -5.94547  -5.94511  -5.93644  -5.93622  -5.93564
 Alpha  occ. eigenvalues --   -5.93316  -5.92996  -5.92985  -5.92848  -5.92795
 Alpha  occ. eigenvalues --   -5.92749  -5.92719  -5.92581  -5.92570  -5.92453
 Alpha  occ. eigenvalues --   -5.92202  -5.92021  -5.90020  -5.89615  -5.89450
 Alpha  occ. eigenvalues --   -2.55599  -2.55318  -2.54187  -1.59195  -1.58577
 Alpha  occ. eigenvalues --   -1.58265  -1.57788  -1.57555  -1.56759  -1.56352
 Alpha  occ. eigenvalues --   -1.56104  -1.55520  -0.76505  -0.74745  -0.74382
 Alpha  occ. eigenvalues --   -0.73804  -0.73552  -0.72510  -0.71850  -0.70696
 Alpha  occ. eigenvalues --   -0.49342  -0.46745  -0.44821  -0.44116  -0.40951
 Alpha  occ. eigenvalues --   -0.40849  -0.40034  -0.39215  -0.39051  -0.39012
 Alpha  occ. eigenvalues --   -0.38159  -0.37896  -0.36736  -0.34884  -0.33961
 Alpha  occ. eigenvalues --   -0.33833  -0.33363  -0.32889  -0.31624  -0.30580
 Alpha  occ. eigenvalues --   -0.30337  -0.29790  -0.29291  -0.28686  -0.27362
 Alpha  occ. eigenvalues --   -0.26740  -0.25547  -0.24004
 Alpha virt. eigenvalues --   -0.15290  -0.14957  -0.13706  -0.13644  -0.12608
 Alpha virt. eigenvalues --   -0.11827  -0.10151  -0.09343  -0.08653  -0.07625
 Alpha virt. eigenvalues --   -0.07118  -0.03320  -0.01692  -0.00717   0.00421
 Alpha virt. eigenvalues --    0.01387   0.02262   0.02704   0.03450   0.03745
 Alpha virt. eigenvalues --    0.04882   0.05273   0.05652   0.06223   0.06714
 Alpha virt. eigenvalues --    0.09696   0.11502   0.11861   0.12889   0.15028
 Alpha virt. eigenvalues --    0.15590   0.16889   0.17993   0.19347   0.20442
 Alpha virt. eigenvalues --    0.23044   0.26204   0.26452   0.27140   0.29088
 Alpha virt. eigenvalues --    0.29596   0.30297   0.30972   0.31483   0.31695
 Alpha virt. eigenvalues --    0.32914   0.33039   0.33622   0.34373   0.35102
 Alpha virt. eigenvalues --    0.35312   0.35653   0.37497   0.38249   0.38719
 Alpha virt. eigenvalues --    0.39249   0.40059   0.40837   0.41137   0.41612
 Alpha virt. eigenvalues --    0.42162   0.43372   0.44162   0.45364   0.45702
 Alpha virt. eigenvalues --    0.46776   0.47865   0.48877   0.49780   0.50698
 Alpha virt. eigenvalues --    0.51524   0.52785   0.55122   0.55826   0.57234
 Alpha virt. eigenvalues --    0.57422   0.59407   0.61366   0.62173   0.62407
 Alpha virt. eigenvalues --    0.63725   0.67446   0.69128   0.70406   0.70898
 Alpha virt. eigenvalues --    0.71484   0.72166   0.72922   0.73239   0.73850
 Alpha virt. eigenvalues --    0.74627   0.74971   0.75533   0.75840   0.76277
 Alpha virt. eigenvalues --    0.77379   0.77603   0.78326   0.81494   0.81670
 Alpha virt. eigenvalues --    0.82564   0.82656   0.83089   0.84127   0.85223
 Alpha virt. eigenvalues --    0.86193   0.88194   0.90266   0.90844   0.91228
 Alpha virt. eigenvalues --    0.92183   0.94438   0.96258   0.97262   0.98982
 Alpha virt. eigenvalues --    1.00365   1.01003   1.01520   1.03348   1.04551
 Alpha virt. eigenvalues --    1.05714   1.06762   1.07945   1.09754   1.11371
 Alpha virt. eigenvalues --    1.13691   1.14297   1.15644   1.16427   1.18429
 Alpha virt. eigenvalues --    1.22989   1.74211   1.90192   2.05255   2.06258
 Alpha virt. eigenvalues --    2.06827   2.07522   2.08156   2.08724   2.09130
 Alpha virt. eigenvalues --    2.12340   2.19662   2.46899   2.62161   2.70306
 Alpha virt. eigenvalues --    2.71549   2.72663   2.75225   3.65565   6.27152
 Alpha virt. eigenvalues --    7.33482  10.37540
          Condensed to atoms (all electrons):
               1          2          3          4          5          6
     1  Mo  13.414799   0.296110   0.203526   0.192923   0.284007  -0.029279
     2  S    0.296110  15.640520   0.001556  -0.015860   0.007494  -0.000176
     3  S    0.203526   0.001556  15.622956  -0.013601   0.009250  -0.000224
     4  S    0.192923  -0.015860  -0.013601  15.647672  -0.007188  -0.003777
     5  S    0.284007   0.007494   0.009250  -0.007188  15.605611   0.272452
     6  H   -0.029279  -0.000176  -0.000224  -0.003777   0.272452   0.650108
     7  Mo  -0.245055  -0.026901   0.252664   0.139933  -0.015198   0.004459
     8  S   -0.034935  -0.000045   0.013915   0.015214   0.000054  -0.000010
     9  H   -0.000154  -0.000001  -0.000143  -0.000233  -0.000000   0.000000
    10  S   -0.047772   0.003508  -0.000060  -0.014712  -0.000025   0.000001
    11  H    0.001050  -0.000099   0.000004   0.000316   0.000000  -0.000000
    12  Mo  -0.131551   0.174698  -0.031706   0.022570  -0.009895   0.003072
    13  S   -0.015329  -0.022829  -0.000014  -0.002879   0.000030  -0.000001
    14  H    0.003115  -0.008397   0.000003  -0.000043   0.000001   0.000000
    15  S   -0.015043  -0.010271  -0.000198  -0.012951   0.000052  -0.000002
    16  H   -0.000953   0.000056  -0.000005   0.000537   0.000000  -0.000000
    17  H    0.005456  -0.000014   0.000003  -0.008852  -0.000001   0.000000
               7          8          9         10         11         12
     1  Mo  -0.245055  -0.034935  -0.000154  -0.047772   0.001050  -0.131551
     2  S   -0.026901  -0.000045  -0.000001   0.003508  -0.000099   0.174698
     3  S    0.252664   0.013915  -0.000143  -0.000060   0.000004  -0.031706
     4  S    0.139933   0.015214  -0.000233  -0.014712   0.000316   0.022570
     5  S   -0.015198   0.000054  -0.000000  -0.000025   0.000000  -0.009895
     6  H    0.004459  -0.000010   0.000000   0.000001  -0.000000   0.003072
     7  Mo  13.554652   0.291141  -0.023182   0.163415   0.000974  -0.200268
     8  S    0.291141  15.617102   0.262320  -0.001519  -0.001724  -0.010893
     9  H   -0.023182   0.262320   0.657757  -0.005519   0.002122   0.004609
    10  S    0.163415  -0.001519  -0.005519  15.664487   0.047319   0.274548
    11  H    0.000974  -0.001724   0.002122   0.047319   0.760042  -0.057539
    12  Mo  -0.200268  -0.010893   0.004609   0.274548  -0.057539  13.797705
    13  S   -0.019212   0.000011  -0.000001   0.011813   0.001148   0.297584
    14  H    0.001249  -0.000000   0.000000  -0.000238  -0.000003  -0.026168
    15  S   -0.034105  -0.000688   0.000210  -0.081786  -0.088581   0.262412
    16  H    0.005385  -0.000593   0.001001  -0.066336   0.348274  -0.054577
    17  H   -0.000106  -0.000512  -0.000001   0.001510   0.000893  -0.030703
              13         14         15         16         17
     1  Mo  -0.015329   0.003115  -0.015043  -0.000953   0.005456
     2  S   -0.022829  -0.008397  -0.010271   0.000056  -0.000014
     3  S   -0.000014   0.000003  -0.000198  -0.000005   0.000003
     4  S   -0.002879  -0.000043  -0.012951   0.000537  -0.008852
     5  S    0.000030   0.000001   0.000052   0.000000  -0.000001
     6  H   -0.000001   0.000000  -0.000002  -0.000000   0.000000
     7  Mo  -0.019212   0.001249  -0.034105   0.005385  -0.000106
     8  S    0.000011  -0.000000  -0.000688  -0.000593  -0.000512
     9  H   -0.000001   0.000000   0.000210   0.001001  -0.000001
    10  S    0.011813  -0.000238  -0.081786  -0.066336   0.001510
    11  H    0.001148  -0.000003  -0.088581   0.348274   0.000893
    12  Mo   0.297584  -0.026168   0.262412  -0.054577  -0.030703
    13  S   15.590079   0.267694  -0.054896   0.000628   0.001624
    14  H    0.267694   0.684183   0.001306  -0.000002  -0.000009
    15  S   -0.054896   0.001306  15.748808   0.061215   0.258019
    16  H    0.000628  -0.000002   0.061215   0.694768  -0.007025
    17  H    0.001624  -0.000009   0.258019  -0.007025   0.680980
 Mulliken charges:
               1
     1  Mo   0.119086
     2  S   -0.039348
     3  S   -0.057925
     4  S    0.060931
     5  S   -0.146643
     6  H    0.103375
     7  Mo   0.150155
     8  S   -0.148838
     9  H    0.101216
    10  S    0.051368
    11  H   -0.014198
    12  Mo  -0.283898
    13  S   -0.055451
    14  H    0.077308
    15  S   -0.033504
    16  H    0.017626
    17  H    0.098738
 Sum of Mulliken charges =  -0.00000
 Mulliken charges with hydrogens summed into heavy atoms:
               1
     1  Mo   0.119086
     2  S   -0.039348
     3  S   -0.057925
     4  S    0.060931
     5  S   -0.043268
     7  Mo   0.150155
     8  S   -0.047622
    10  S    0.037170
    12  Mo  -0.283898
    13  S    0.021857
    15  S    0.082861
 APT charges:
               1
     1  Mo  -1.964379
     2  S   -0.023877
     3  S    0.641395
     4  S   -0.010715
     5  S    1.033718
     6  H   -0.915532
     7  Mo   0.152065
     8  S    0.294558
     9  H   -0.694152
    10  S   -0.270203
    11  H    1.146933
    12  Mo   1.105579
    13  S   -2.019731
    14  H    1.674193
    15  S    0.673737
    16  H   -0.723778
    17  H   -0.099814
 Sum of APT charges =  -0.00000
 APT charges with hydrogens summed into heavy atoms:
               1
     1  Mo  -1.964379
     2  S   -0.023877
     3  S    0.641395
     4  S   -0.010715
     5  S    0.118186
     7  Mo   0.152065
     8  S   -0.399593
    10  S    0.876730
    12  Mo   1.105579
    13  S   -0.345538
    15  S   -0.149854
 Electronic spatial extent (au):  <R**2>=          74999.5931
 Charge=             -0.0000 electrons
 Dipole moment (field-independent basis, Debye):
    X=             -0.8335    Y=             -2.3118    Z=             -0.0302  Tot=              2.4577
 Quadrupole moment (field-independent basis, Debye-Ang):
   XX=           -181.9271   YY=           -190.0299   ZZ=           -177.9811
   XY=             -4.5090   XZ=             -3.8994   YZ=            -16.9049
 Traceless Quadrupole moment (field-independent basis, Debye-Ang):
   XX=              1.3856   YY=             -6.7172   ZZ=              5.3316
   XY=             -4.5090   XZ=             -3.8994   YZ=            -16.9049
 Octapole moment (field-independent basis, Debye-Ang**2):
  XXX=            543.3696  YYY=          -1285.7799  ZZZ=          -5486.7419  XYY=            175.7346
  XXY=           -405.3808  XXZ=          -1880.0026  XZZ=            159.9602  YZZ=           -523.2105
  YYZ=          -1897.1759  XYZ=            -26.2533
 Hexadecapole moment (field-independent basis, Debye-Ang**3):
 XXXX=          -3924.6989 YYYY=          -8381.7417 ZZZZ=        -115925.4006 XXXY=            819.4081
 XXXZ=           5380.7333 YYYX=            876.8161 YYYZ=         -12450.7192 ZZZX=           5076.2654
 ZZZY=         -12733.3448 XXYY=          -1997.4743 XXZZ=         -20545.8303 YYZZ=         -20908.6695
 XXYZ=          -4036.7714 YYXZ=           1790.7364 ZZXY=            175.5703
 N-N= 2.108382092776D+03 E-N=-1.220843612269D+04  KE= 3.249813679512D+03
  Exact polarizability:       0.000       0.000       0.000       0.000       0.000       0.000
 Approx polarizability:     796.428     149.321     782.744      68.883    -110.270     813.601
   1 Symmetry operations used in ECPInt.
 ECPInt:  NShTT=    3403 NPrTT=   23974 LenC2=    3157 LenP2D=   15371.
 LDataN:  DoStor=T MaxTD1= 7 Len=  274
 Calling FoFJK, ICntrl=    100127 FMM=F ISym2X=0 I1Cent= 0 IOpClX= 0 NMat=1 NMatS=1 NMatT=0.
 Defaulting to unpruned grid for atomic number  42.
 Defaulting to unpruned grid for atomic number  42.
 Defaulting to unpruned grid for atomic number  42.
 Defaulting to unpruned grid for atomic number  42.
 Defaulting to unpruned grid for atomic number  42.
 Defaulting to unpruned grid for atomic number  42.
 Defaulting to unpruned grid for atomic number  42.
 Defaulting to unpruned grid for atomic number  42.
 Defaulting to unpruned grid for atomic number  42.
 Defaulting to unpruned grid for atomic number  42.
 Defaulting to unpruned grid for atomic number  42.
 Defaulting to unpruned grid for atomic number  42.
 Defaulting to unpruned grid for atomic number  42.
 Defaulting to unpruned grid for atomic number  42.
 Defaulting to unpruned grid for atomic number  42.
 Defaulting to unpruned grid for atomic number  42.
 Defaulting to unpruned grid for atomic number  42.
 Defaulting to unpruned grid for atomic number  42.
 Defaulting to unpruned grid for atomic number  42.
 Defaulting to unpruned grid for atomic number  42.
 Defaulting to unpruned grid for atomic number  42.
 Defaulting to unpruned grid for atomic number  42.
 Defaulting to unpruned grid for atomic number  42.
 Defaulting to unpruned grid for atomic number  42.
 Defaulting to unpruned grid for atomic number  42.
 Defaulting to unpruned grid for atomic number  42.
 Defaulting to unpruned grid for atomic number  42.
 Defaulting to unpruned grid for atomic number  42.
 Defaulting to unpruned grid for atomic number  42.
 Defaulting to unpruned grid for atomic number  42.
 Defaulting to unpruned grid for atomic number  42.
 Defaulting to unpruned grid for atomic number  42.
 Defaulting to unpruned grid for atomic number  42.
 Defaulting to unpruned grid for atomic number  42.
 Defaulting to unpruned grid for atomic number  42.
 Defaulting to unpruned grid for atomic number  42.
 Defaulting to unpruned grid for atomic number  42.
 Defaulting to unpruned grid for atomic number  42.
 Defaulting to unpruned grid for atomic number  42.
 Defaulting to unpruned grid for atomic number  42.
 Defaulting to unpruned grid for atomic number  42.
 Defaulting to unpruned grid for atomic number  42.
 Defaulting to unpruned grid for atomic number  42.
 Defaulting to unpruned grid for atomic number  42.
 Defaulting to unpruned grid for atomic number  42.
 Defaulting to unpruned grid for atomic number  42.
 Defaulting to unpruned grid for atomic number  42.
 Defaulting to unpruned grid for atomic number  42.
 -------------------------------------------------------------------
 Center     Atomic                   Forces (Hartrees/Bohr)
 Number     Number              X              Y              Z
 -------------------------------------------------------------------
      1       42           0.000185904    0.001563378    0.003445436
      2       16           0.001303830   -0.001893995    0.000595587
      3       16           0.000324583   -0.001380769    0.001889114
      4       16           0.001951363   -0.000941945   -0.002508467
      5       16           0.000562106    0.000006975   -0.000650603
      6        1          -0.000435266   -0.000242565    0.000180944
      7       42           0.000125291   -0.008945153    0.002982094
      8       16          -0.001276099   -0.001075385   -0.000098864
      9        1           0.000401503   -0.000314154   -0.000221786
     10       16          -0.006790475    0.017416915    0.008888057
     11        1           0.010054276   -0.005284576   -0.023884377
     12       42           0.000788112   -0.001644319    0.025507744
     13       16           0.001571646    0.002550805    0.000571304
     14        1          -0.000714130    0.000371757   -0.000391542
     15       16           0.016311112   -0.008586489   -0.022990904
     16        1          -0.024765006    0.008508384    0.007400337
     17        1           0.000401250   -0.000108863   -0.000714074
 -------------------------------------------------------------------
 Cartesian Forces:  Max     0.025507744 RMS     0.008320923
 FormGI is forming the generalized inverse of G from B-inverse, IUseBI=4.

 GradGradGradGradGradGradGradGradGradGradGradGradGradGradGradGradGradGrad
 Berny optimization.
 Internal  Forces:  Max     0.024750107 RMS     0.003508393
 Search for a saddle point.
 Step number   1 out of a maximum of  102
 All quantities printed in internal units (Hartrees-Bohrs-Radians)
 Swapping is turned off.
 Second derivative matrix not updated -- analytic derivatives used.
 ITU=  0
     Eigenvalues ---   -0.00747   0.00135   0.00222   0.00241   0.00322
     Eigenvalues ---    0.00344   0.00447   0.00541   0.00910   0.01091
     Eigenvalues ---    0.01213   0.01333   0.01448   0.01858   0.02316
     Eigenvalues ---    0.02671   0.03939   0.04345   0.04707   0.05577
     Eigenvalues ---    0.05842   0.05986   0.06488   0.06811   0.07018
     Eigenvalues ---    0.07672   0.07702   0.08197   0.09301   0.09477
     Eigenvalues ---    0.10036   0.10963   0.11061   0.12921   0.13609
     Eigenvalues ---    0.14103   0.14263   0.14868   0.15347   0.15918
     Eigenvalues ---    0.16532   0.25882   0.25895   0.26647   0.26649
 Eigenvectors required to have negative eigenvalues:
                          R22       R16       R18       D49       D48
   1                    0.62758   0.61283  -0.29691  -0.10856  -0.10174
                          A40       R14       D30       A20       R13
   1                    0.09663   0.09144   0.09070   0.07278  -0.06758
 RFO step:  Lambda0=1.700830604D-02 Lambda=-8.84627501D-03.
 Linear search not attempted -- option 19 set.
 Maximum step size (   0.300) exceeded in Quadratic search.
    -- Step size scaled by   0.375
 Iteration  1 RMS(Cart)=  0.02873353 RMS(Int)=  0.00069129
 Iteration  2 RMS(Cart)=  0.00060091 RMS(Int)=  0.00032484
 Iteration  3 RMS(Cart)=  0.00000062 RMS(Int)=  0.00032484
 Variable       Old X    -DE/DX   Delta X   Delta X   Delta X     New X
                                 (Linear)    (Quad)   (Total)
    R1        4.20607  -0.00061   0.00000   0.00322   0.00277   4.20884
    R2        4.44546  -0.00021   0.00000  -0.00030  -0.00037   4.44509
    R3        4.45738   0.00154   0.00000   0.01147   0.01155   4.46893
    R4        4.41855   0.00005   0.00000   0.00154   0.00154   4.42009
    R5        5.15416   0.00076   0.00000  -0.00069  -0.00089   5.15327
    R6        5.29699   0.00066   0.00000  -0.01404  -0.01368   5.28331
    R7        4.59381   0.00054   0.00000  -0.01011  -0.01003   4.58377
    R8        4.30105   0.00194   0.00000   0.00341   0.00328   4.30434
    R9        4.46428   0.00090   0.00000   0.00358   0.00344   4.46772
   R10        4.62613  -0.00006   0.00000  -0.00499  -0.00475   4.62139
   R11        2.54835   0.00007   0.00000  -0.00002  -0.00002   2.54833
   R12        4.41645   0.00145   0.00000   0.00354   0.00354   4.41999
   R13        4.27108   0.01219   0.00000   0.05234   0.05206   4.32315
   R14        5.23369   0.00069   0.00000  -0.04500  -0.04489   5.18880
   R15        2.55785   0.00006   0.00000   0.00060   0.00060   2.55845
   R16        3.56331   0.01568   0.00000  -0.16897  -0.16857   3.39474
   R17        4.34007   0.00666   0.00000   0.02069   0.02070   4.36076
   R18        1.64904  -0.01333   0.00000   0.06678   0.06728   1.71632
   R19        4.56672   0.00283   0.00000   0.00231   0.00231   4.56903
   R20        4.35464   0.02475   0.00000   0.08702   0.08658   4.44122
   R21        2.54808  -0.00030   0.00000  -0.00045  -0.00045   2.54764
   R22        3.52716   0.01561   0.00000  -0.18412  -0.18384   3.34332
   R23        2.55529   0.00015   0.00000  -0.00107  -0.00107   2.55422
    A1        1.80810   0.00092   0.00000  -0.00913  -0.00877   1.79933
    A2        1.91858  -0.00033   0.00000  -0.00128  -0.00144   1.91714
    A3        2.07124  -0.00008   0.00000   0.01078   0.01036   2.08160
    A4        1.79374   0.00041   0.00000  -0.00727  -0.00697   1.78676
    A5        1.82048   0.00028   0.00000   0.00162   0.00165   1.82213
    A6        2.16656  -0.00067   0.00000   0.00117   0.00113   2.16769
    A7        1.76260   0.00054   0.00000  -0.00952  -0.00957   1.75302
    A8        1.64582  -0.00026   0.00000  -0.00368  -0.00345   1.64237
    A9        2.36737  -0.00048   0.00000  -0.00370  -0.00360   2.36377
   A10        2.30337  -0.00007   0.00000   0.00641   0.00655   2.30992
   A11        1.86389  -0.00014   0.00000   0.00167   0.00167   1.86556
   A12        2.65592  -0.00049   0.00000   0.01844   0.01836   2.67429
   A13        1.76469   0.00122   0.00000   0.01449   0.01461   1.77930
   A14        1.86115  -0.00018   0.00000   0.00292   0.00304   1.86419
   A15        2.07715  -0.00032   0.00000   0.01505   0.01465   2.09179
   A16        1.81289   0.00136   0.00000   0.00362   0.00398   1.81688
   A17        1.81550   0.00001   0.00000  -0.00204  -0.00205   1.81345
   A18        1.96180  -0.00017   0.00000   0.00168   0.00182   1.96362
   A19        1.87709   0.00019   0.00000   0.01012   0.00970   1.88679
   A20        1.85967  -0.00072   0.00000  -0.03353  -0.03360   1.82607
   A21        2.38162   0.00043   0.00000  -0.01615  -0.01604   2.36558
   A22        1.72557  -0.00006   0.00000   0.01108   0.01108   1.73664
   A23        1.89293  -0.00022   0.00000  -0.02050  -0.02049   1.87244
   A24        1.67996   0.00104   0.00000   0.00928   0.00891   1.68887
   A25        2.15840   0.00144   0.00000   0.00920   0.00985   2.16825
   A26        1.71037   0.00252   0.00000   0.02469   0.02478   1.73515
   A27        2.34819  -0.00025   0.00000   0.00270   0.00221   2.35040
   A28        2.49432  -0.00020   0.00000  -0.00035  -0.00077   2.49355
   A29        1.75618  -0.00013   0.00000   0.00698   0.00668   1.76286
   A30        1.68225   0.00014   0.00000   0.00712   0.00722   1.68947
   A31        1.76750   0.00157   0.00000   0.01191   0.01264   1.78014
   A32        1.50803  -0.00008   0.00000   0.00527   0.00510   1.51313
   A33        2.81901   0.00027   0.00000   0.01672   0.01620   2.83521
   A34        1.80793   0.00212   0.00000   0.02123   0.02079   1.82872
   A35        2.63709  -0.00029   0.00000  -0.02835  -0.02819   2.60890
   A36        1.57182  -0.00047   0.00000  -0.00542  -0.00539   1.56643
   A37        2.69360   0.00020   0.00000   0.01689   0.01662   2.71022
   A38        1.78178  -0.00042   0.00000  -0.02333  -0.02333   1.75844
   A39        1.78749  -0.00215   0.00000  -0.00137  -0.00139   1.78610
   A40        1.58244  -0.00191   0.00000  -0.03934  -0.03949   1.54295
   A41        1.34745   0.00052   0.00000  -0.00084  -0.00003   1.34742
   A42        1.79699   0.00042   0.00000   0.00310   0.00310   1.80009
   A43        1.62824  -0.00267   0.00000  -0.01166  -0.01264   1.61560
   A44        1.83010   0.00093   0.00000  -0.00144  -0.00169   1.82841
   A45        1.60932   0.00103   0.00000   0.00127   0.00185   1.61117
   A46        2.37386   0.00217   0.00000   0.03412   0.03456   2.40842
    D1       -2.34716   0.00008   0.00000  -0.00131  -0.00123  -2.34839
    D2        1.59757  -0.00057   0.00000  -0.00183  -0.00177   1.59580
    D3       -0.33115  -0.00050   0.00000  -0.00149  -0.00161  -0.33276
    D4        0.39086  -0.00039   0.00000  -0.00292  -0.00284   0.38802
    D5       -1.14036   0.00010   0.00000   0.00772   0.00761  -1.13274
    D6        3.06254   0.00003   0.00000  -0.01328  -0.01343   3.04911
    D7        0.03128  -0.00009   0.00000   0.00071   0.00085   0.03213
    D8        0.28204   0.00050   0.00000  -0.01470  -0.01476   0.26727
    D9       -2.74922   0.00038   0.00000  -0.00072  -0.00049  -2.74970
   D10        0.01910   0.00082   0.00000   0.00004  -0.00050   0.01860
   D11        2.04868   0.00028   0.00000   0.02847   0.02825   2.07693
   D12       -1.75852   0.00069   0.00000   0.03340   0.03315  -1.72536
   D13        2.82312   0.00008   0.00000  -0.00688  -0.00727   2.81585
   D14       -1.43048  -0.00046   0.00000   0.02155   0.02147  -1.40901
   D15        1.04551  -0.00006   0.00000   0.02648   0.02638   1.07188
   D16        1.33415  -0.00002   0.00000  -0.00120  -0.00114   1.33301
   D17       -2.47578  -0.00009   0.00000   0.00532   0.00541  -2.47037
   D18        2.59131   0.00110   0.00000  -0.01948  -0.01966   2.57165
   D19       -1.49903   0.00039   0.00000   0.00004   0.00020  -1.49883
   D20        0.55286   0.00008   0.00000  -0.00755  -0.00764   0.54521
   D21       -0.38068  -0.00007   0.00000   0.00965   0.00966  -0.37101
   D22        2.30967  -0.00067   0.00000   0.00060   0.00061   2.31028
   D23       -2.98576  -0.00069   0.00000   0.00304   0.00311  -2.98265
   D24        1.32884  -0.00118   0.00000  -0.00592  -0.00608   1.32277
   D25       -0.77828  -0.00070   0.00000   0.00497   0.00486  -0.77342
   D26        0.04084   0.00002   0.00000   0.00196   0.00248   0.04332
   D27       -1.61722  -0.00015   0.00000  -0.03023  -0.03075  -1.64798
   D28       -3.11064  -0.00048   0.00000   0.01911   0.01896  -3.09169
   D29        3.02969   0.00104   0.00000  -0.02287  -0.02228   3.00741
   D30        1.37163   0.00087   0.00000  -0.05506  -0.05551   1.31612
   D31       -0.12179   0.00054   0.00000  -0.00571  -0.00580  -0.12759
   D32       -1.29141   0.00166   0.00000   0.00026  -0.00010  -1.29150
   D33        0.03648  -0.00133   0.00000  -0.02491  -0.02506   0.01142
   D34       -2.55560   0.00126   0.00000   0.02775   0.02819  -2.52742
   D35        2.84848   0.00113   0.00000   0.02084   0.02129   2.86977
   D36       -1.61998   0.00203   0.00000   0.03745   0.03817  -1.58180
   D37        1.29931   0.00129   0.00000   0.01304   0.01352   1.31282
   D38       -0.04532   0.00111   0.00000   0.02263   0.02244  -0.02287
   D39        0.00843   0.00102   0.00000   0.01300   0.01281   0.02124
   D40       -0.35267  -0.00044   0.00000  -0.01738  -0.01758  -0.37025
   D41       -0.11085  -0.00085   0.00000   0.00816   0.00741  -0.10344
   D42       -1.95323  -0.00030   0.00000  -0.00398  -0.00331  -1.95654
   D43        1.58678  -0.00065   0.00000   0.03909   0.03944   1.62621
   D44        1.64772   0.00078   0.00000   0.02150   0.02146   1.66918
   D45       -3.10245  -0.00059   0.00000  -0.01971  -0.01974  -3.12219
   D46        1.86447   0.00071   0.00000  -0.03150  -0.03115   1.83332
   D47        0.23848   0.00029   0.00000  -0.02958  -0.02958   0.20890
   D48       -2.23519  -0.00043   0.00000   0.04436   0.04528  -2.18992
   D49        2.42200  -0.00085   0.00000   0.04628   0.04685   2.46885
   D50        1.85296   0.00123   0.00000   0.00162   0.00195   1.85490
   D51        0.22696   0.00081   0.00000   0.00354   0.00352   0.23048
   D52        0.93740   0.00116   0.00000  -0.00792  -0.00741   0.92998
   D53       -0.68860   0.00074   0.00000  -0.00600  -0.00584  -0.69444
   D54        0.04500  -0.00088   0.00000  -0.01940  -0.01905   0.02595
   D55       -1.58100  -0.00130   0.00000  -0.01748  -0.01747  -1.59847
   D56       -1.74540   0.00090   0.00000  -0.02708  -0.02690  -1.77230
   D57        2.91179   0.00049   0.00000  -0.02516  -0.02532   2.88647
   D58       -0.04736   0.00015   0.00000   0.00852   0.00908  -0.03828
   D59        1.78567   0.00101   0.00000   0.00653   0.00681   1.79248
         Item               Value     Threshold  Converged?
 Maximum Force            0.024750     0.000450     NO 
 RMS     Force            0.003508     0.000300     NO 
 Maximum Displacement     0.120089     0.001800     NO 
 RMS     Displacement     0.028575     0.001200     NO 
 Predicted change in Energy= 3.249681D-03
 GradGradGradGradGradGradGradGradGradGradGradGradGradGradGradGradGradGrad

                          Input orientation:                          
 ---------------------------------------------------------------------
 Center     Atomic      Atomic             Coordinates (Angstroms)
 Number     Number       Type             X           Y           Z
 ---------------------------------------------------------------------
      1         42           0       -0.401057    1.674342   11.936171
      2         16           0        0.210766    3.815020   11.875432
      3         16           0       -2.705571    1.791507   12.392811
      4         16           0       -0.278117    0.742403    9.766165
      5         16           0        1.047268    0.097396   12.877743
      6          1           0        1.079087   -0.956461   12.036986
      7         42           0       -2.449478    1.600761   10.137548
      8         16           0       -4.076984    0.498162    8.870177
      9          1           0       -3.987878    1.211326    7.722818
     10         16           0       -2.497999    3.761117    9.386463
     11          1           0       -2.573382    3.700926    7.592635
     12         42           0       -0.273254    3.181186    9.584657
     13         16           0        0.851964    5.218852    8.930670
     14          1           0        1.102815    5.822358   10.109808
     15         16           0       -0.180713    2.996467    7.243566
     16          1           0       -1.871785    3.482519    7.058823
     17          1           0       -0.468259    1.700588    6.988750
 ---------------------------------------------------------------------
                    Distance matrix (angstroms):
                    1          2          3          4          5
     1  Mo   0.000000
     2  S    2.227223   0.000000
     3  S    2.352240   3.587103   0.000000
     4  S    2.364857   3.758855   3.727254   0.000000
     5  S    2.339008   3.940190   4.145958   3.443051   0.000000
     6  H    3.020284   4.852537   4.690584   3.144006   1.348518
     7  Mo   2.726993   3.872994   2.277757   2.364215   4.689990
     8  S    4.929114   6.198218   3.995306   3.910733   6.517603
     9  H    5.552658   6.453839   4.877474   4.261160   7.291556
    10  S    3.905485   3.679032   3.600081   3.766256   6.179062
    11  H    5.262352   5.109486   5.167692   4.329588   7.350299
    12  Mo   2.795806   2.425628   3.966497   2.445533   4.700846
    13  S    4.813174   3.324680   6.032343   4.691879   6.468913
    14  H    4.775277   2.818259   5.996971   5.275510   6.359225
    15  S    4.880278   4.719901   5.860168   3.384346   6.454185
    16  H    5.405652   5.258070   5.657398   4.168658   7.337558
    17  H    4.947947   5.367640   5.849590   2.944199   6.288663
                    6          7          8          9         10
     6  H    0.000000
     7  Mo   4.753738   0.000000
     8  S    6.223317   2.338959   0.000000
     9  H    6.998963   2.889508   1.353874   0.000000
    10  S    6.486630   2.287712   3.661506   3.389526   0.000000
    11  H    7.401624   3.301913   3.761732   2.866331   1.796419
    12  Mo   4.996286   2.745794   4.709295   4.598394   2.307616
    13  S    6.916305   5.044468   6.825181   6.398690   3.681710
    14  H    7.047480   5.517376   7.530874   7.271485   4.211627
    15  S    6.339528   3.933247   4.905947   4.232129   3.247540
    16  H    7.293442   3.654216   4.129200   3.174438   2.426452
    17  H    5.910911   3.721576   4.243641   3.628492   3.756947
                   11         12         13         14         15
    11  H    0.000000
    12  Mo   3.086887   0.000000
    13  S    3.978370   2.417828   0.000000
    14  H    4.934679   3.024093   1.348152   0.000000
    15  S    2.518527   2.350190   2.975186   4.224743   0.000000
    16  H    0.908238   3.004320   3.733292   4.861235   1.769209
    17  H    2.966070   2.994817   4.229919   5.403542   1.351634
                   16         17
    16  H    0.000000
    17  H    2.269377   0.000000
 Symmetry turned off by external request.
 Stoichiometry    H6Mo3S8
 Framework group  C1[X(H6Mo3S8)]
 Deg. of freedom    45
 Full point group                 C1      NOp   1
 Rotational constants (GHZ):           0.2868562           0.2547136           0.1749837
 Basis read from rwf:  (5D, 7F)
 Pseudo-potential data read from rwf file.
   240 basis functions,   605 primitive gaussians,   254 cartesian basis functions
    88 alpha electrons       88 beta electrons
       nuclear repulsion energy      2106.4864715093 Hartrees.
 NAtoms=   17 NActive=   17 NUniq=   17 SFac= 1.00D+00 NAtFMM=   60 NAOKFM=F Big=F
 Integral buffers will be    131072 words long.
 Raffenetti 2 integral format.
 Two-electron integral symmetry is turned off.
 One-electron integrals computed using PRISM.
   1 Symmetry operations used in ECPInt.
 ECPInt:  NShTT=    3403 NPrTT=   23974 LenC2=    3157 LenP2D=   15377.
 LDataN:  DoStor=T MaxTD1= 5 Len=  102
 NBasis=   240 RedAO= T EigKep=  1.32D-03  NBF=   240
 NBsUse=   240 1.00D-06 EigRej= -1.00D+00 NBFU=   240
 Defaulting to unpruned grid for atomic number  42.
 Defaulting to unpruned grid for atomic number  42.
 Defaulting to unpruned grid for atomic number  42.
 Initial guess from the checkpoint file:  "/home/chesagar/scratch/Gau-107850.chk"
 B after Tr=     0.048647    0.017763    0.001364
         Rot=    0.999999   -0.000210    0.000975   -0.001326 Ang=  -0.19 deg.
 ExpMin= 2.47D-02 ExpMax= 2.19D+04 ExpMxC= 3.30D+03 IAcc=3 IRadAn=         5 AccDes= 0.00D+00
 Harris functional with IExCor=  402 and IRadAn=       5 diagonalized for initial guess.
 HarFok:  IExCor=  402 AccDes= 0.00D+00 IRadAn=         5 IDoV= 1 UseB2=F ITyADJ=14
 ICtDFT=  3500011 ScaDFX=  1.000000  1.000000  1.000000  1.000000
 Defaulting to unpruned grid for atomic number  42.
 FoFCou: FMM=F IPFlag=           0 FMFlag=      100000 FMFlg1=           0
         NFxFlg=           0 DoJE=T BraDBF=F KetDBF=T FulRan=T
         wScrn=  0.000000 ICntrl=       500 IOpCl=  0 I1Cent=   200000004 NGrid=           0
         NMat0=    1 NMatS0=      1 NMatT0=    0 NMatD0=    1 NMtDS0=    0 NMtDT0=    0
 Symmetry not used in FoFCou.
 Requested convergence on RMS density matrix=1.00D-08 within 128 cycles.
 Requested convergence on MAX density matrix=1.00D-06.
 Requested convergence on             energy=1.00D-06.
 No special actions if energy rises.
 Defaulting to unpruned grid for atomic number  42.
 Defaulting to unpruned grid for atomic number  42.
 Defaulting to unpruned grid for atomic number  42.
 Defaulting to unpruned grid for atomic number  42.
 Defaulting to unpruned grid for atomic number  42.
 Defaulting to unpruned grid for atomic number  42.
 Defaulting to unpruned grid for atomic number  42.
 Defaulting to unpruned grid for atomic number  42.
 Defaulting to unpruned grid for atomic number  42.
 Defaulting to unpruned grid for atomic number  42.
 Defaulting to unpruned grid for atomic number  42.
 Defaulting to unpruned grid for atomic number  42.
 Defaulting to unpruned grid for atomic number  42.
 Defaulting to unpruned grid for atomic number  42.
 Defaulting to unpruned grid for atomic number  42.
 Defaulting to unpruned grid for atomic number  42.
 Defaulting to unpruned grid for atomic number  42.
 Defaulting to unpruned grid for atomic number  42.
 Defaulting to unpruned grid for atomic number  42.
 Defaulting to unpruned grid for atomic number  42.
 Defaulting to unpruned grid for atomic number  42.
 Defaulting to unpruned grid for atomic number  42.
 Defaulting to unpruned grid for atomic number  42.
 Defaulting to unpruned grid for atomic number  42.
 Defaulting to unpruned grid for atomic number  42.
 Defaulting to unpruned grid for atomic number  42.
 Defaulting to unpruned grid for atomic number  42.
 Defaulting to unpruned grid for atomic number  42.
 Defaulting to unpruned grid for atomic number  42.
 Defaulting to unpruned grid for atomic number  42.
 Defaulting to unpruned grid for atomic number  42.
 Defaulting to unpruned grid for atomic number  42.
 Defaulting to unpruned grid for atomic number  42.
 Defaulting to unpruned grid for atomic number  42.
 Defaulting to unpruned grid for atomic number  42.
 Defaulting to unpruned grid for atomic number  42.
 Defaulting to unpruned grid for atomic number  42.
 Defaulting to unpruned grid for atomic number  42.
 Defaulting to unpruned grid for atomic number  42.
 Defaulting to unpruned grid for atomic number  42.
 Defaulting to unpruned grid for atomic number  42.
 Defaulting to unpruned grid for atomic number  42.
 Defaulting to unpruned grid for atomic number  42.
 Defaulting to unpruned grid for atomic number  42.
 Defaulting to unpruned grid for atomic number  42.
 Defaulting to unpruned grid for atomic number  42.
 Defaulting to unpruned grid for atomic number  42.
 Defaulting to unpruned grid for atomic number  42.
 EnCoef did     8 forward-backward iterations
 SCF Done:  E(RB3LYP) =  -3391.99981126     A.U. after   17 cycles
            NFock= 17  Conv=0.59D-08     -V/T= 2.0438
   1 Symmetry operations used in ECPInt.
 ECPInt:  NShTT=    3403 NPrTT=   23974 LenC2=    3157 LenP2D=   15377.
 LDataN:  DoStor=T MaxTD1= 6 Len=  172
 Calling FoFJK, ICntrl=      2127 FMM=F ISym2X=0 I1Cent= 0 IOpClX= 0 NMat=1 NMatS=1 NMatT=0.
 Defaulting to unpruned grid for atomic number  42.
 Defaulting to unpruned grid for atomic number  42.
 Defaulting to unpruned grid for atomic number  42.
 Defaulting to unpruned grid for atomic number  42.
 Defaulting to unpruned grid for atomic number  42.
 Defaulting to unpruned grid for atomic number  42.
 Defaulting to unpruned grid for atomic number  42.
 Defaulting to unpruned grid for atomic number  42.
 Defaulting to unpruned grid for atomic number  42.
 Defaulting to unpruned grid for atomic number  42.
 Defaulting to unpruned grid for atomic number  42.
 Defaulting to unpruned grid for atomic number  42.
 Defaulting to unpruned grid for atomic number  42.
 Defaulting to unpruned grid for atomic number  42.
 Defaulting to unpruned grid for atomic number  42.
 Defaulting to unpruned grid for atomic number  42.
 Defaulting to unpruned grid for atomic number  42.
 Defaulting to unpruned grid for atomic number  42.
 Defaulting to unpruned grid for atomic number  42.
 Defaulting to unpruned grid for atomic number  42.
 Defaulting to unpruned grid for atomic number  42.
 Defaulting to unpruned grid for atomic number  42.
 Defaulting to unpruned grid for atomic number  42.
 Defaulting to unpruned grid for atomic number  42.
 Defaulting to unpruned grid for atomic number  42.
 Defaulting to unpruned grid for atomic number  42.
 Defaulting to unpruned grid for atomic number  42.
 Defaulting to unpruned grid for atomic number  42.
 Defaulting to unpruned grid for atomic number  42.
 Defaulting to unpruned grid for atomic number  42.
 Defaulting to unpruned grid for atomic number  42.
 Defaulting to unpruned grid for atomic number  42.
 Defaulting to unpruned grid for atomic number  42.
 Defaulting to unpruned grid for atomic number  42.
 Defaulting to unpruned grid for atomic number  42.
 Defaulting to unpruned grid for atomic number  42.
 Defaulting to unpruned grid for atomic number  42.
 Defaulting to unpruned grid for atomic number  42.
 Defaulting to unpruned grid for atomic number  42.
 Defaulting to unpruned grid for atomic number  42.
 Defaulting to unpruned grid for atomic number  42.
 Defaulting to unpruned grid for atomic number  42.
 Defaulting to unpruned grid for atomic number  42.
[...]
 Unable to Open any file for archive entry.
 1\1\GINC-NODE6-IB\Freq\RB3LYP\Gen\H6Mo3S8\CHESAGAR\01-Nov-2022\0\\#N G
 eom=AllCheck Guess=TCheck SCRF=Check GenChk RB3LYP/ChkBas Freq\\Title 
 Card Required\\0,1\Mo,-0.3768846203,1.665861692,11.959857583\S,0.25766
 99964,3.8080648692,11.8954114156\S,-2.6677975392,1.807621755,12.448280
 6546\S,-0.2849282737,0.7506462132,9.7697174741\S,1.0454300776,0.037843
 3928,12.8573140415\H,1.0175112084,-1.0159455629,12.0163926003\Mo,-2.43
 55824206,1.6398460825,10.1782915807\S,-4.0350194428,0.5373927473,8.866
 7583649\H,-3.9379216637,1.2284026172,7.7060510734\S,-2.5219737474,3.82
 60950073,9.3172583944\H,-2.5665558212,3.6808841308,7.6368409091\Mo,-0.
 2942493699,3.1912677514,9.6405149134\S,0.7840918018,5.2476457579,8.935
 9518427\H,1.0040709695,5.8999600778,10.094283261\S,-0.1962178406,2.955
 4217226,7.1656652255\H,-1.7719178072,3.4229503951,7.0677517916\H,-0.49
 23035071,1.6545093509,6.9548828742\\Version=ES64L-G16RevC.01\HF=-3391.
 9992499\RMSD=6.735e-09\RMSF=1.469e-05\ZeroPoint=0.0603096\Thermal=0.07
 96832\ETot=-3391.9195667\HTot=-3391.9186226\GTot=-3391.9879704\Dipole=
 -0.2664232,-0.7636801,-0.4037766\DipoleDeriv=0.7233469,-0.3819021,0.35
 65223,-0.3293151,1.1663998,-0.4756676,0.0346526,-0.2343464,0.2216198,-
 0.0769021,-0.1987865,-0.0944893,-0.1754057,-0.397831,-0.1216349,-0.133
 4604,-0.0520731,-0.3610728,-0.3115371,0.0796937,0.0448849,0.0032919,0.
 0530152,-0.0191562,0.2361228,0.0761518,-0.5481185,-0.0602929,0.0605066
 ,0.0240562,-0.0030204,-0.3035014,-0.0226773,0.1266203,-0.209384,0.1164
 521,-0.4533143,0.4848227,-0.3272369,0.4329729,-0.6130056,0.4913447,-0.
 1922417,0.3751426,-0.228244,0.0782907,-0.0334848,-0.06364,0.0101513,0.
 0977519,-0.0130002,-0.0182946,-0.1019064,-0.0003306,0.6531452,0.127675
 2,0.2168795,0.2346387,0.0869369,0.3115258,0.3285994,0.2831019,0.722393
 1,-0.5671732,-0.158888,-0.3986967,-0.3452169,-0.2107256,-0.368105,-0.4
 741782,-0.3601132,-0.2956237,0.021319,-0.1120535,0.1017895,0.0256341,0
 .0322074,0.1084722,-0.0132077,0.002572,0.0449442,-0.2091563,-0.0432797
 ,0.2862347,0.0324533,-0.0427546,-0.0816203,0.1426713,-0.245173,0.73474
 6,-0.0863147,-0.0364579,0.139514,0.0563228,0.0484773,-0.1212329,-0.043
 9538,0.2851626,-0.7509534,0.2717619,0.4179126,-0.1149815,0.5197151,0.6
 096398,0.1268893,0.0498564,0.0965898,0.2627936,-0.3709481,-0.2385113,0
 .0518539,-0.3577458,-0.7449373,0.2140591,0.099095,0.2127104,0.0644151,
 0.1173378,-0.0205599,0.0556279,-0.0269482,0.0676279,0.030075,-0.013018
 1,-0.0615091,-0.0679123,-0.0866064,-0.0576037,0.6923809,0.0552226,0.18
 6321,-0.2752741,-0.0636887,-0.1777162,-0.0896613,0.3005522,0.1707464,-
 0.9010039,-0.111571,-0.0218952,0.2264222,-0.0601418,0.016376,0.1143942
 ,0.0564914,-0.0598299,-0.0696954,-0.0211795,-0.0137265,-0.0104198,-0.0
 054329,0.0944144,0.0601585\Polar=290.294722,38.7047734,290.7329291,34.
 7860334,-46.6539029,310.5260396\Quadrupole=4.4176181,0.4952643,-4.9128
 825,-3.8514002,-1.2081276,-12.0019164\PG=C01 [X(H6Mo3S8)]\NImag=1\\0.2
 2085183,-0.01701629,0.28458956,0.01538906,-0.00690790,0.24959891,-0.02
 414636,-0.04216365,0.00084019,0.04162325,-0.03268131,-0.15056327,-0.00
 836327,0.05594963,0.17812719,0.00160488,-0.00952760,-0.01062219,0.0178
 8775,0.03463813,0.08538838,-0.09609714,0.01237692,0.03667345,-0.003115
 05,-0.00939160,0.00263355,0.11606021,0.01040107,-0.01375735,-0.0062771
 6,-0.00389496,0.00136179,0.00584816,-0.00995715,0.02114111,0.04128527,
 -0.00296365,-0.01658806,-0.00325944,-0.00088004,0.00319928,-0.05609428
 ,0.01417639,0.14832402,-0.00621782,0.00457496,0.00430393,0.00285383,-0
 .00433235,-0.00448640,-0.00331001,0.00149098,0.00196463,0.10935504,0.0
 0531217,-0.01817919,-0.03286704,0.00015005,-0.00532761,0.00152212,-0.0
 0173472,0.00326967,0.00099171,-0.04395726,0.13134388,0.00534130,-0.034
 18763,-0.09712251,-0.00103501,-0.00208335,-0.00118625,0.00227495,-0.00
 329333,-0.00142939,-0.02150830,0.03548731,0.11680890,-0.05040936,0.036
 25048,-0.02041769,0.00458395,0.00563728,-0.00181575,-0.00192525,0.0004
 7998,-0.00242925,-0.00053909,-0.00045765,-0.00344765,0.04902145,0.0404
 4206,-0.06334163,0.02347811,0.00205938,-0.00035944,0.00111087,0.005527
 21,0.00161584,-0.00079326,-0.00031341,0.00152602,0.00118892,-0.0394501
 0,0.22003840,-0.01757231,0.00951200,-0.03426171,0.00389744,0.00392790,
 -0.00094247,-0.00409211,-0.00199517,0.00226368,-0.00598600,0.00334984,
 -0.00345786,0.03055853,0.10486806,0.14568681,-0.00135505,0.00712930,0.
 00014458,-0.00118311,-0.00207132,0.00041844,0.00023800,-0.00010692,0.0
 0129776,-0.00003024,0.00010751,0.00026135,-0.00291550,-0.00786059,-0.0
 0649117,0.00540141,0.00335197,-0.01008789,-0.00270660,0.00050899,0.000
 18263,-0.00017114,-0.00020699,-0.00033360,0.00074182,-0.00060840,0.000
 55302,0.00063160,-0.00439146,-0.15763432,-0.12330955,0.00103480,0.1657
 1801,-0.00176822,0.00769595,0.00433516,-0.00051089,0.00007836,0.000192
 11,-0.00075919,0.00023822,-0.00085736,0.00011750,0.00086280,-0.0008131
 9,-0.00444389,-0.13251735,-0.11320811,0.00708756,0.12525067,0.11029308
 ,-0.03339074,-0.00407237,-0.03302005,-0.00433073,-0.00268315,-0.000134
 62,-0.01501173,0.00344041,0.01478046,-0.09925581,0.04006080,0.01865835
 ,0.00029082,0.00030448,0.00128223,0.00024326,0.00056967,-0.00086063,0.
 26076171,0.00961856,-0.00536066,0.01263921,-0.00342014,-0.00291033,-0.
 00345777,0.00218903,-0.01359573,-0.01915799,0.04128601,-0.02072001,-0.
 00844626,-0.00088974,0.00005632,0.00231002,0.00108870,0.00056002,-0.00
 106889,0.01174340,0.19792535,-0.05376249,0.00003342,-0.04171021,-0.004
 25350,-0.00080436,-0.00167975,0.02042747,-0.01239179,-0.13125050,0.025
 19681,-0.00822174,-0.00659683,0.00047470,-0.00116483,0.00250400,0.0003
 1942,0.00055342,-0.00060939,0.03490593,0.00074406,0.27483941,-0.002376
 94,-0.00097487,-0.00285431,0.00014208,-0.00077961,0.00067382,0.0014986
 0,0.00146452,-0.00590791,0.00067578,-0.00084824,-0.00084994,-0.0002225
 3,0.00061401,0.00032034,0.00004614,0.00035793,-0.00021964,-0.06055869,
 -0.03421021,-0.02900778,0.06746763,-0.00704054,0.00307245,-0.00726150,
 -0.00033020,-0.00054968,0.00107729,0.00010919,-0.00041927,-0.00085014,
 -0.00030180,0.00096485,0.00053642,0.00024184,0.00035170,0.00041911,-0.
 00011106,0.00039781,-0.00037293,-0.02917089,-0.03422921,-0.01112695,0.
 04837989,0.10471479,-0.00258502,-0.00331489,-0.00015624,-0.00005498,0.
 00048843,-0.00037472,0.00143323,0.00023573,0.00082213,-0.00137252,-0.0
 0018578,0.00107835,0.00014350,0.00054496,-0.00035788,-0.00029116,-0.00
 002849,0.00020748,-0.03547914,-0.02252638,-0.04469115,0.02325715,-0.08
 723526,0.22447026,0.00024656,-0.00074312,-0.00008936,-0.00032048,0.000
 54827,-0.00032888,0.00024861,0.00006601,0.00159700,-0.00050417,-0.0002
 6546,0.00022200,0.00001377,-0.00002101,-0.00017769,-0.00005710,-0.0000
 9492,0.00009303,0.00186559,0.00041446,-0.00922388,-0.00785837,-0.01181
 007,0.01835538,0.00833221,0.00081096,-0.00085806,0.00215613,0.00029230
 ,-0.00017277,-0.00008413,0.00061145,0.00030418,-0.00066948,-0.00001023
 ,-0.00001089,-0.00033470,0.00006469,-0.00003617,-0.00014872,-0.0000450
 1,-0.00007313,0.00014991,-0.00126773,0.00199598,-0.00482594,-0.0112081
 6,-0.07177594,0.11303601,0.01169782,0.06993106,0.00102815,-0.00020032,
 0.00117148,0.00021080,0.00004741,-0.00031864,0.00004123,-0.00010484,-0
 .00003082,-0.00030462,-0.00010141,-0.00015335,-0.00004856,-0.00001542,
 -0.00005742,-0.00001369,-0.00005634,0.00006750,-0.00493921,-0.00115936
 ,-0.00883233,0.01647635,0.11002673,-0.18439230,-0.01221183,-0.10883557
 ,0.19124466,-0.00338355,0.00274233,0.00161425,-0.00158358,0.00076600,-
 0.00574859,0.00384069,-0.00164719,0.00357506,-0.00004241,0.00091385,-0
 .00568205,-0.00007214,-0.00024795,0.00022176,-0.00001820,-0.00002104,-
 0.00000918,-0.00633426,0.00690276,-0.00798816,0.00171277,-0.00360954,0
 .00083509,-0.00153534,0.00069543,0.00026813,0.12807278,0.00116509,-0.0
 0255711,-0.00366072,-0.00207137,0.00431181,-0.00154350,-0.00114078,0.0
 0158136,0.00554778,0.00158227,-0.00071770,0.00403290,-0.00029631,0.000
 24029,0.00004865,0.00001778,0.00010160,-0.00007011,0.00752137,-0.10100
 738,0.02236287,-0.00057849,-0.00233475,-0.00172409,-0.00142007,0.00003
 874,0.00072947,-0.04004222,0.13748554,-0.00138585,0.00435490,-0.002615
 00,-0.00041143,0.00056759,-0.00096664,-0.00204153,0.00285875,-0.001297
 56,-0.00152138,-0.00201142,-0.00064362,0.00006123,-0.00067765,0.000262
 24,0.00011255,-0.00006197,0.00000259,0.01077429,0.02880279,-0.01704556
 ,0.00081650,-0.00035404,-0.00181978,-0.00208048,-0.00173498,-0.0005178
 7,-0.01088681,-0.01336121,0.06390307,0.00056694,0.00041271,-0.00040854
 ,-0.00018430,-0.00001073,-0.00097078,0.00034340,0.00010060,0.00009123,
 -0.00001618,-0.00090275,-0.00078524,0.00000262,-0.00015467,0.00000659,
 0.00001285,-0.00001200,-0.00000047,0.00217448,-0.00151337,0.00308006,0
 .00054343,0.00064436,0.00011492,-0.00011960,0.00075650,-0.00064101,-0.
 01265175,0.00048876,-0.01675261,0.05622807,0.00082162,0.00035454,0.000
 84024,-0.00014143,-0.00042844,0.00102849,0.00019136,-0.00054025,-0.000
 95672,-0.00060623,0.00035726,0.00044983,0.00010690,0.00002965,-0.00001
 576,-0.00002572,0.00002485,0.00003013,-0.00295833,0.00109583,0.0060927
 7,-0.00005114,0.00048135,0.00074030,0.00066526,0.00005846,-0.00047055,
 0.00034216,-0.01768626,0.00137027,-0.00745415,0.02834776,-0.00022000,-
 0.00185243,0.00016491,0.00209556,0.00010292,-0.00072261,-0.00030011,-0
 .00189807,-0.00110711,-0.00048122,0.00224368,0.00337461,-0.00009145,0.
 00077608,-0.00029186,-0.00019704,-0.00004063,0.00005439,-0.01164442,0.
 01270961,-0.00988496,0.00009705,-0.00096913,0.00211690,0.00136048,-0.0
 0002566,0.00080819,0.01143855,-0.01699945,0.01727592,0.00908202,-0.005
 17636,0.00013095,-0.00532262,0.00285522,-0.00027518,-0.01864771,-0.009
 39096,-0.01451942,-0.00184509,-0.00124027,0.00388036,-0.00293694,0.006
 93801,0.00226469,0.00205944,-0.00100502,-0.00207444,-0.00032632,-0.000
 56876,0.00130314,-0.04482289,-0.03548117,0.02145039,-0.00074446,0.0038
 2880,-0.00460281,-0.00028877,-0.00208654,-0.00007984,-0.09832530,0.033
 26659,-0.02592635,-0.00738467,0.00394883,-0.01018486,0.23050395,-0.015
 18635,-0.02649892,0.03080441,-0.00578914,-0.02279656,-0.03861819,0.000
 59866,-0.00076223,0.00420488,0.00180089,-0.09173461,-0.00391790,0.0032
 8756,-0.00227777,0.00094260,0.00083755,0.00068821,-0.00036014,-0.01652
 872,-0.01468516,0.00363839,-0.00376433,-0.00257050,0.00055019,0.001667
 43,0.00036021,0.00129514,0.02952408,-0.02253060,-0.00263789,0.00059441
 ,0.00337442,0.01081299,0.02051376,0.26450146,0.01307036,0.04043808,-0.
 04938158,-0.01644976,-0.04239607,-0.05701231,0.00044654,0.00110117,-0.
 00296122,0.00414681,-0.00599224,-0.00203932,0.00343571,0.00373306,0.00
 225547,-0.00374179,-0.00094793,0.00070067,-0.00373317,0.00251148,-0.01
 617245,-0.00390231,-0.00435095,0.00321980,0.00313318,0.00041178,0.0010
 3156,0.00894715,0.00304645,-0.00684376,0.00433497,-0.00647928,-0.02355
 934,0.01272456,-0.00824446,0.22192999,-0.00083007,-0.00118938,-0.00168
 314,0.00265210,-0.00079286,0.00052697,0.00013836,0.00005556,0.00063965
 ,-0.00058560,-0.00574340,0.00169004,0.00010094,0.00005385,0.00016120,-
 0.00011458,-0.00000530,0.00003032,0.00213117,-0.00371188,0.00036147,0.
 00050477,0.00040738,-0.00038898,-0.00039908,0.00014463,-0.00015178,-0.
 00068223,-0.00320886,0.00201072,0.00033097,-0.00003443,-0.00100613,-0.
 02683913,-0.01708917,0.01144914,0.03680527,-0.00036890,0.00085434,0.00
 022123,-0.00245670,-0.00261451,0.00466881,0.00068097,-0.00013652,0.000
 15557,-0.00030859,-0.00071417,0.00204201,0.00061997,-0.00050890,0.0001
 6964,-0.00018096,-0.00006432,0.00017978,-0.00801355,-0.00581208,0.0020
 5248,0.00079929,0.00075401,-0.00026774,-0.00033634,-0.00014754,-0.0006
 2413,-0.00160969,-0.00028513,0.00193125,0.00054644,-0.00015268,-0.0019
 3962,-0.02120931,-0.05444976,0.01814269,0.05609183,0.13421398,0.000499
 19,0.00026070,0.00046097,0.00412656,0.00889214,-0.00425619,-0.00079631
 ,0.00049403,-0.00006150,-0.00030987,0.00421424,0.00001517,-0.00115601,
 -0.00041639,-0.00019034,0.00075360,0.00010193,-0.00027440,0.00264637,0
 .00156890,0.00183831,0.00041470,-0.00006832,-0.00024076,-0.00037951,0.
 00011938,0.00008500,0.00031796,-0.00015324,0.00047753,-0.00009858,0.00
 061186,0.00063119,0.00402746,0.00267679,-0.03271487,0.02600121,0.08891
 171,0.24216351,-0.00036894,-0.00048286,0.00024876,-0.00098351,0.000532
 81,0.00126290,0.00015922,0.00007015,-0.00007156,-0.00014030,0.00128435
 ,0.00020161,0.00002622,-0.00034878,0.00007667,0.00019611,0.00010293,-0
 .00005369,-0.00012807,0.00068013,-0.00027470,-0.00029931,-0.00029211,0
 .00035167,0.00029954,-0.00003222,-0.00001095,0.00024649,-0.00015379,0.
 00010944,0.00014019,0.00005330,-0.00037278,-0.00122059,-0.00635779,-0.
 00358018,-0.01157077,-0.01970599,-0.03234797,0.01298619,-0.00025446,0.
 00040738,-0.00027828,0.00069802,-0.00001735,0.00195763,-0.00025258,0.0
 0003469,0.00016625,0.00014855,0.00009140,-0.00008397,-0.00038520,-0.00
 012256,-0.00021816,0.00021668,-0.00001676,-0.00006100,0.00029227,-0.00
 058472,0.00079336,0.00015467,0.00021348,-0.00026985,-0.00019179,-0.000
 03291,-0.00000587,0.00007531,0.00023567,-0.00009519,-0.00012538,-0.000
 03272,0.00022530,-0.00307975,-0.00716407,-0.00777429,-0.02098547,-0.06
 347933,-0.09778044,0.02449591,0.07170115,0.00041098,0.00036006,-0.0008
 8232,0.00074127,0.00235214,-0.00021156,0.00003474,0.00008039,-0.000023
 34,-0.00027410,-0.00020794,-0.00025192,-0.00000793,0.00006560,0.000057
 13,-0.00007287,0.00001693,0.00000120,0.00055173,0.00037084,-0.00053112
 ,-0.00018147,-0.00013016,0.00008341,0.00010599,0.00001061,0.00005600,-
 0.00027369,0.00009653,-0.00043484,-0.00013999,0.00004338,0.00053490,0.
 00134449,0.00282953,0.00428096,-0.03636561,-0.10863103,-0.20646485,0.0
 3380751,0.10312281,0.20431688,0.00275861,0.00236642,-0.00208260,-0.000
 01639,-0.00055702,0.00277946,-0.00061832,0.00094169,-0.00002302,0.0024
 5588,-0.00377177,-0.00135443,-0.00004414,-0.00053271,0.00024123,0.0001
 1923,0.00000249,-0.00007909,0.00570653,-0.00228339,0.00350358,-0.00009
 088,-0.00055997,-0.00120838,-0.00102631,0.00045820,0.00005509,-0.01606
 688,0.01214879,-0.02079171,-0.04551873,0.01758516,0.05401570,-0.017450
 79,-0.00328501,0.00325777,0.00062512,-0.00322440,-0.00401842,-0.000173
 56,-0.00029573,-0.00007820,0.09234648,-0.00016525,0.00090159,-0.002817
 89,0.00142205,0.00240933,0.00115798,0.00012160,-0.00014665,0.00041215,
 -0.00115017,-0.00123438,0.00812169,-0.00083606,0.00066810,-0.00000239,
 -0.00006933,-0.00003676,-0.00002691,-0.00156517,0.00050301,-0.00062969
 ,0.00052636,0.00053321,0.00008380,-0.00018404,-0.00002532,-0.00014871,
 0.00673860,-0.00128163,0.00496620,0.01386793,-0.00016727,-0.01601217,0
 .00128374,-0.02161892,-0.00102400,-0.00436028,-0.00823078,-0.00817633,
 -0.00008908,-0.00115044,-0.00027700,0.05132523,0.28656232,-0.00210365,
 -0.00372128,-0.00094654,-0.00447425,0.00321807,-0.01140647,0.00087021,
 0.00053990,0.00167819,0.00070562,0.00132386,-0.00752863,-0.00060961,-0
 .00033307,-0.00033761,0.00045316,0.00005246,-0.00009293,0.00450858,-0.
 00061047,-0.00030787,0.00093587,0.00059398,-0.00045441,-0.00070850,0.0
 0048039,-0.00013725,0.00585464,-0.00281344,-0.01716856,-0.00851603,0.0
 0478707,0.01015257,0.01568551,0.00502204,-0.03283948,-0.00342798,-0.00
 731939,-0.00029397,0.00056545,0.00067363,-0.00048574,-0.00952593,0.039
 45513,0.08568220,0.00001149,-0.00142002,0.00088513,0.00230071,-0.00010
 928,0.00080449,-0.00057695,-0.00173562,-0.00115123,-0.00135229,0.00270
 543,0.00329674,-0.00001539,0.00075346,-0.00032108,-0.00017864,-0.00001
 023,0.00004005,-0.00968306,0.00768403,-0.00627767,-0.00026219,-0.00028
 644,0.00174489,0.00128723,-0.00091449,0.00032456,0.00788577,-0.0073103
 9,0.06772593,0.00531890,-0.01148901,-0.05420237,-0.00629513,0.00896205
 ,-0.03293947,-0.00144983,-0.00185177,0.00072824,-0.00006683,0.00001325
 ,0.00077576,0.00606907,-0.00600477,0.01154194,-0.00677896,0.00035309,0
 .00086808,0.00007772,-0.00080651,-0.00027945,-0.00004428,0.00027280,0.
 00044442,-0.00006706,0.00017305,-0.00060873,-0.00080068,0.00006450,-0.
 00024994,0.00010903,0.00004166,0.00001214,-0.00000067,0.00242093,-0.00
 373200,0.00343182,0.00028582,0.00045444,-0.00020190,-0.00008869,0.0004
 5525,-0.00042763,-0.00124743,0.00434709,-0.02377934,-0.00733787,-0.015
 51097,0.01792810,0.00222712,-0.00097062,0.00878226,0.00014033,0.000859
 88,-0.00022077,0.00038014,-0.00019297,-0.00020294,-0.02062453,-0.01439
 503,-0.00637379,0.01230018,0.03254739,0.00076856,-0.00006955,-0.000380
 68,0.00021907,-0.00023095,0.00036549,-0.00068312,0.00044590,-0.0006951
 7,-0.00007782,-0.00145387,-0.00003045,0.00001875,-0.00005894,0.0000152
 9,0.00002641,0.00000768,-0.00001514,0.00122287,-0.00503508,0.00059027,
 0.00008173,0.00003800,0.00039526,0.00021695,0.00031297,-0.00009190,-0.
 00246192,0.00410614,-0.03164616,0.01189088,-0.00298577,-0.00036840,-0.
 00384531,0.00204338,-0.00710136,0.00003035,0.00045493,0.00014293,0.000
 30860,-0.00014157,-0.00012160,-0.01405401,0.00183320,-0.01022317,0.005
 18105,0.00065507,0.04980663,-0.00053684,-0.00064578,0.00073151,0.00035
 531,-0.00063380,-0.00058782,-0.00002754,0.00007115,-0.00017471,-0.0004
 0967,0.00020909,0.00045159,0.00004419,0.00017978,-0.00005119,-0.000078
 24,-0.00000968,0.00003330,0.00034243,-0.00009717,0.00106836,-0.0001778
 3,-0.00009883,-0.00025284,-0.00018429,0.00003241,-0.00000284,-0.001062
 84,0.00003162,0.00018749,0.00021336,-0.00095414,0.00061103,-0.00011299
 ,0.00021412,-0.00059950,-0.00081742,0.00052771,-0.00040861,0.00089793,
 -0.00052430,-0.00037862,-0.02907491,-0.06086134,-0.01175504,0.00378610
 ,0.01144542,0.00115695,0.02684325,0.00043651,0.00015614,0.00092330,-0.
 00000633,-0.00037335,0.00043713,0.00000462,-0.00006147,-0.00005821,0.0
 0053175,0.00114119,0.00065713,-0.00004667,0.00000441,0.00003292,-0.000
 00310,0.00000849,-0.00000782,-0.00009343,0.00050075,-0.00053730,-0.000
 16743,-0.00005876,0.00007496,0.00009626,-0.00001116,0.00005138,-0.0002
 7545,0.00005844,-0.00013805,0.00009923,0.00039448,0.00011485,-0.000800
 27,-0.00086457,-0.00095777,0.00022747,-0.00008649,-0.00103621,-0.00013
 709,0.00011007,0.00010024,-0.04969345,-0.24329038,-0.03497510,-0.00128
 636,-0.00404899,0.00007847,0.05111375,0.24642119,-0.00000021,0.0000901
 5,-0.00106438,0.00043064,0.00044495,0.00055455,-0.00006869,-0.00005828
 ,0.00001473,-0.00011306,0.00104588,-0.00002371,-0.00022464,0.00021125,
 0.00006064,-0.00006710,-0.00003387,0.00001635,0.00048043,-0.00019472,-
 0.00045984,-0.00015015,0.00002784,0.00009365,0.00011613,-0.00001801,0.
 00006749,-0.00002221,0.00035495,-0.00092202,-0.00028741,0.00009009,0.0
 0068976,-0.00117238,-0.01104177,-0.00279277,0.00012254,-0.00014819,-0.
 00131772,-0.00022078,-0.00023035,0.00007681,-0.01063704,-0.02691505,-0
 .01529035,0.00184303,0.00113507,-0.00064185,0.00997092,0.03524006,0.02
 093866\\-0.00000899,-0.00000432,0.00000308,-0.00000133,0.00000245,0.00
 000137,-0.00000184,0.00000071,0.00000005,0.00000060,0.00000109,-0.0000
 0261,0.00000505,0.00000168,-0.00000472,-0.00000545,-0.00000377,0.00000
 125,0.00000128,-0.00000456,0.00000156,-0.00000192,-0.00000479,0.000003
 22,-0.00000199,0.00000439,0.00000190,-0.00000248,0.00000790,0.00001315
 ,-0.00002343,0.00001100,-0.00000749,0.00002010,-0.00001235,-0.00005271
 ,0.00000817,-0.00000605,0.00000470,-0.00000180,0.00000088,0.00000027,-
 0.00003175,0.00001853,0.00004500,0.00005032,-0.00001579,-0.00000829,-0
 .00000454,0.00000299,0.00000028\\\@
 The archive entry for this job was punched.


 CHARLIE BROWN -- WHICH DO YOU THINK LASTS LONGER IN LIFE, THE GOOD THINGS 
                  OR THE BAD THINGS?
 LINUS --         GOOD THINGS LAST EIGHT SECONDS ..
                  BAD THINGS LAST THREE WEEKS
 CHARLIE BROWN -- WHAT ABOUT IN BETWEEN?
 SNOOPY --        IN BETWEEN YOU SHOULD TAKE A NAP ...
 Job cpu time:       0 days  0 hours 33 minutes 53.0 seconds.
 Elapsed time:       0 days  0 hours  0 minutes 43.3 seconds.
 File lengths (MBytes):  RWF=    235 Int=      0 D2E=      0 Chk=      7 Scr=      2
 Normal termination of Gaussian 16 at Tue Nov  1 10:23:10 2022.
