 Entering Gaussian System, Link 0=g16
 Initial command:
 /home/chesagar/softwares/G16_AVX2//g16/l1.exe "/home/chesagar/scratch/Gau-138791.inp" -scrdir="/home/chesagar/scratch/"
 Entering Link 1 = /home/chesagar/softwares/G16_AVX2//g16/l1.exe PID=    138793.
  
 Copyright (c) 1988-2019, Gaussian, Inc.  All Rights Reserved.
  
 This is part of the Gaussian(R) 16 program.  It is based on
 the Gaussian(R) 09 system (copyright 2009, Gaussian, Inc.),
 the Gaussian(R) 03 system (copyright 2003, Gaussian, Inc.),
 the Gaussian(R) 98 system (copyright 1998, Gaussian, Inc.),
 the Gaussian(R) 94 system (copyright 1995, Gaussian, Inc.),
 the Gaussian 92(TM) system (copyright 1992, Gaussian, Inc.),
 the Gaussian 90(TM) system (copyright 1990, Gaussian, Inc.),
 the Gaussian 88(TM) system (copyright 1988, Gaussian, Inc.),
 the Gaussian 86(TM) system (copyright 1986, Carnegie Mellon
 University), and the Gaussian 82(TM) system (copyright 1983,
 Carnegie Mellon University). Gaussian is a federally registered
 trademark of Gaussian, Inc.
  
 This software contains proprietary and confidential information,
 including trade secrets, belonging to Gaussian, Inc.
  
 This software is provided under written license and may be
 used, copied, transmitted, or stored only in accord with that
 written license.
  
 The following legend is applicable only to US Government
 contracts under FAR:
  
                    RESTRICTED RIGHTS LEGEND
  
 Use, reproduction and disclosure by the US Government is
 subject to restrictions as set forth in subparagraphs (a)
 and (c) of the Commercial Computer Software - Restricted
 Rights clause in FAR 52.227-19.
  
 Gaussian, Inc.
 340 Quinnipiac St., Bldg. 40, Wallingford CT 06492
  
  
 ---------------------------------------------------------------
 Warning -- This program may not be used in any manner that
 competes with the business of Gaussian, Inc. or will provide
 assistance to any competitor of Gaussian, Inc.  The licensee
 of this program is prohibited from giving any competitor of
 Gaussian, Inc. access to this program.  By using this program,
 the user acknowledges that Gaussian, Inc. is engaged in the
 business of creating and licensing software in the field of
 computational chemistry and represents and warrants to the
 licensee that it is not a competitor of Gaussian, Inc. and that
 it will not use this program in any manner prohibited above.
 ---------------------------------------------------------------
  

 Cite this work as:
 Gaussian 16, Revision C.01,
 M. J. Frisch, G. W. Trucks, H. B. Schlegel, G. E. Scuseria, 
 M. A. Robb, J. R. Cheeseman, G. Scalmani, V. Barone, 
 G. A. Petersson, H. Nakatsuji, X. Li, M. Caricato, A. V. Marenich, 
 J. Bloino, B. G. Janesko, R. Gomperts, B. Mennucci, H. P. Hratchian, 
 J. V. Ortiz, A. F. Izmaylov, J. L. Sonnenberg, D. Williams-Young, 
 F. Ding, F. Lipparini, F. Egidi, J. Goings, B. Peng, A. Petrone, 
 T. Henderson, D. Ranasinghe, V. G. Zakrzewski, J. Gao, N. Rega, 
 G. Zheng, W. Liang, M. Hada, M. Ehara, K. Toyota, R. Fukuda, 
 J. Hasegawa, M. Ishida, T. Nakajima, Y. Honda, O. Kitao, H. Nakai, 
 T. Vreven, K. Throssell, J. A. Montgomery, Jr., J. E. Peralta, 
 F. Ogliaro, M. J. Bearpark, J. J. Heyd, E. N. Brothers, K. N. Kudin, 
 V. N. Staroverov, T. A. Keith, R. Kobayashi, J. Normand, 
 K. Raghavachari, A. P. Rendell, J. C. Burant, S. S. Iyengar, 
 J. Tomasi, M. Cossi, J. M. Millam, M. Klene, C. Adamo, R. Cammi, 
 J. W. Ochterski, R. L. Martin, K. Morokuma, O. Farkas, 
 J. B. Foresman, and D. J. Fox, Gaussian, Inc., Wallingford CT, 2019.
 
 ******************************************
 Gaussian 16:  ES64L-G16RevC.01  3-Jul-2019
                19-Mar-2022 
 ******************************************
 %nprocshared=48
 Will use up to   48 processors via shared memory.
 %mem=32GB
 -----------------------------------------------------------
 # opt=(calcfc,ts,noeigen) freq b3lyp/gen nosymm pseudo=read
 -----------------------------------------------------------
 1/5=1,10=4,11=1,18=20,26=3,38=1/1,3;
 2/9=110,12=2,15=1,17=6,18=5,40=1/2;
 3/5=7,11=2,16=1,17=8,25=1,30=1,71=2,74=-5,140=1/1,2,3;
 4//1;
 5/5=2,38=5/2;
 8/6=4,10=90,11=11/1;
 11/6=1,8=1,9=11,15=111,16=1,31=1/1,2,10;
 10/6=1,13=1,31=1/2;
 6/7=2,8=2,9=2,10=2,28=1/1;
 7/10=1,25=1,30=1/1,2,3,16;
 1/5=1,10=4,11=1,18=20,26=3/3(2);
 2/9=110,15=1/2;
 99//99;
 2/9=110,15=1/2;
 3/5=7,6=1,11=2,16=1,17=8,25=1,30=1,71=1,74=-5,82=7/1,2,3;
 4/5=5,16=3,69=1/1;
 5/5=2,38=5/2;
 7/30=1/1,2,3,16;
 1/5=1,11=1,18=20,26=3/3(-5);
 2/9=110,15=1/2;
 6/7=2,8=2,9=2,10=2,19=2,28=1/1;
 99/9=1/99;
 -------------------
 Title Card Required
 -------------------
 Symbolic Z-matrix:
 Charge =  0 Multiplicity = 1
 42                   -0.37483   1.65283   10.96191 
 16                   -0.30185   3.76346   11.8469 
 16                   -2.32625   0.57874   11.65432 
 16                   -0.91907   1.95878   8.70334 
 16                    1.67077   0.75631   10.12362 
 1                     1.66265   1.09091   8.8133 
 42                   -3.02148   1.68906   9.74315 
 16                   -5.22183   0.77602   10.41532 
 1                    -5.95207   1.1636    9.34828 
 16                   -3.79634   3.80898   10.21547 
 42                   -1.54312   4.13121   9.89027 
 16                   -3.69516   0.68487   7.70642 
 1                    -2.68169   0.98091   6.85837 
 16                    0.50108   0.64471   13.0124 
 1                     1.8245    0.82265   12.81235 
 16                   -0.91069   4.98564   7.82762 
 16                   -1.87956   6.33855   10.56361 
 1                     0.43128   4.94628   7.98965 
 1                    -0.96081   6.7312    8.38575 
 1                    -0.70976   6.69639   11.14371 
 1                    -1.22319   7.02679   9.03084 
 
 Add virtual bond connecting atoms H19        and S16        Dist= 3.46D+00.
 Add virtual bond connecting atoms H21        and S17        Dist= 3.41D+00.

 GradGradGradGradGradGradGradGradGradGradGradGradGradGradGradGradGradGrad
 Berny optimization.
 Initialization pass.
                           ----------------------------
                           !    Initial Parameters    !
                           ! (Angstroms and Degrees)  !
 --------------------------                            --------------------------
 ! Name  Definition              Value          Derivative Info.                !
 --------------------------------------------------------------------------------
 ! R1    R(1,2)                  2.2898         calculate D2E/DX2 analytically  !
 ! R2    R(1,3)                  2.3326         calculate D2E/DX2 analytically  !
 ! R3    R(1,4)                  2.3433         calculate D2E/DX2 analytically  !
 ! R4    R(1,5)                  2.3856         calculate D2E/DX2 analytically  !
 ! R5    R(1,7)                  2.914          calculate D2E/DX2 analytically  !
 ! R6    R(1,11)                 2.9421         calculate D2E/DX2 analytically  !
 ! R7    R(1,14)                 2.447          calculate D2E/DX2 analytically  !
 ! R8    R(2,11)                 2.3461         calculate D2E/DX2 analytically  !
 ! R9    R(3,7)                  2.317          calculate D2E/DX2 analytically  !
 ! R10   R(4,7)                  2.3609         calculate D2E/DX2 analytically  !
 ! R11   R(4,11)                 2.553          calculate D2E/DX2 analytically  !
 ! R12   R(5,6)                  1.3524         calculate D2E/DX2 analytically  !
 ! R13   R(7,8)                  2.4753         calculate D2E/DX2 analytically  !
 ! R14   R(7,10)                 2.306          calculate D2E/DX2 analytically  !
 ! R15   R(7,11)                 2.8586         calculate D2E/DX2 analytically  !
 ! R16   R(7,12)                 2.3686         calculate D2E/DX2 analytically  !
 ! R17   R(8,9)                  1.3498         calculate D2E/DX2 analytically  !
 ! R18   R(10,11)                2.2993         calculate D2E/DX2 analytically  !
 ! R19   R(11,16)                2.3205         calculate D2E/DX2 analytically  !
 ! R20   R(11,17)                2.3321         calculate D2E/DX2 analytically  !
 ! R21   R(12,13)                1.3542         calculate D2E/DX2 analytically  !
 ! R22   R(14,15)                1.3502         calculate D2E/DX2 analytically  !
 ! R23   R(16,18)                1.3523         calculate D2E/DX2 analytically  !
 ! R24   R(16,19)                1.8333         calculate D2E/DX2 analytically  !
 ! R25   R(17,20)                1.3539         calculate D2E/DX2 analytically  !
 ! R26   R(17,21)                1.8039         calculate D2E/DX2 analytically  !
 ! R27   R(19,21)                0.7565         calculate D2E/DX2 analytically  !
 ! A1    A(2,1,3)              109.6557         calculate D2E/DX2 analytically  !
 ! A2    A(2,1,4)              105.0445         calculate D2E/DX2 analytically  !
 ! A3    A(2,1,5)              117.0573         calculate D2E/DX2 analytically  !
 ! A4    A(2,1,7)              100.3192         calculate D2E/DX2 analytically  !
 ! A5    A(2,1,14)              92.5488         calculate D2E/DX2 analytically  !
 ! A6    A(3,1,4)               98.7384         calculate D2E/DX2 analytically  !
 ! A7    A(3,1,5)              130.4376         calculate D2E/DX2 analytically  !
 ! A8    A(3,1,11)              99.428          calculate D2E/DX2 analytically  !
 ! A9    A(3,1,14)              82.0112         calculate D2E/DX2 analytically  !
 ! A10   A(4,1,5)               84.8092         calculate D2E/DX2 analytically  !
 ! A11   A(4,1,14)             160.8356         calculate D2E/DX2 analytically  !
 ! A12   A(5,1,7)              129.5324         calculate D2E/DX2 analytically  !
 ! A13   A(5,1,11)             121.944          calculate D2E/DX2 analytically  !
 ! A14   A(5,1,14)              80.369          calculate D2E/DX2 analytically  !
 ! A15   A(7,1,14)             132.8977         calculate D2E/DX2 analytically  !
 ! A16   A(11,1,14)            142.5993         calculate D2E/DX2 analytically  !
 ! A17   A(1,5,6)              104.0247         calculate D2E/DX2 analytically  !
 ! A18   A(1,7,8)              133.5675         calculate D2E/DX2 analytically  !
 ! A19   A(1,7,10)             103.3532         calculate D2E/DX2 analytically  !
 ! A20   A(1,7,12)             127.7836         calculate D2E/DX2 analytically  !
 ! A21   A(3,7,4)               98.6746         calculate D2E/DX2 analytically  !
 ! A22   A(3,7,8)               82.298          calculate D2E/DX2 analytically  !
 ! A23   A(3,7,10)             111.864          calculate D2E/DX2 analytically  !
 ! A24   A(3,7,11)             102.2256         calculate D2E/DX2 analytically  !
 ! A25   A(3,7,12)             126.2585         calculate D2E/DX2 analytically  !
 ! A26   A(4,7,8)              162.4257         calculate D2E/DX2 analytically  !
 ! A27   A(4,7,10)             106.5233         calculate D2E/DX2 analytically  !
 ! A28   A(4,7,12)              85.5838         calculate D2E/DX2 analytically  !
 ! A29   A(8,7,10)              89.128          calculate D2E/DX2 analytically  !
 ! A30   A(8,7,11)             139.5423         calculate D2E/DX2 analytically  !
 ! A31   A(8,7,12)              79.8806         calculate D2E/DX2 analytically  !
 ! A32   A(10,7,12)            118.0537         calculate D2E/DX2 analytically  !
 ! A33   A(11,7,12)            123.6102         calculate D2E/DX2 analytically  !
 ! A34   A(7,8,9)               99.2256         calculate D2E/DX2 analytically  !
 ! A35   A(1,11,10)            102.684          calculate D2E/DX2 analytically  !
 ! A36   A(1,11,16)            121.7179         calculate D2E/DX2 analytically  !
 ! A37   A(1,11,17)            138.5414         calculate D2E/DX2 analytically  !
 ! A38   A(2,11,4)              97.1823         calculate D2E/DX2 analytically  !
 ! A39   A(2,11,7)             100.5229         calculate D2E/DX2 analytically  !
 ! A40   A(2,11,10)            112.2439         calculate D2E/DX2 analytically  !
 ! A41   A(2,11,16)            130.9077         calculate D2E/DX2 analytically  !
 ! A42   A(2,11,17)             89.0772         calculate D2E/DX2 analytically  !
 ! A43   A(4,11,10)            100.7222         calculate D2E/DX2 analytically  !
 ! A44   A(4,11,16)             80.4124         calculate D2E/DX2 analytically  !
 ! A45   A(7,11,16)            114.1912         calculate D2E/DX2 analytically  !
 ! A46   A(7,11,17)            138.4918         calculate D2E/DX2 analytically  !
 ! A47   A(10,11,16)           116.3858         calculate D2E/DX2 analytically  !
 ! A48   A(10,11,17)            87.1588         calculate D2E/DX2 analytically  !
 ! A49   A(16,11,17)            86.9878         calculate D2E/DX2 analytically  !
 ! A50   A(7,12,13)            103.4705         calculate D2E/DX2 analytically  !
 ! A51   A(1,14,15)             99.9274         calculate D2E/DX2 analytically  !
 ! A52   A(11,16,18)            98.8144         calculate D2E/DX2 analytically  !
 ! A53   A(11,16,19)            94.1589         calculate D2E/DX2 analytically  !
 ! A54   A(18,16,19)            91.0523         calculate D2E/DX2 analytically  !
 ! A55   A(11,17,20)           104.4316         calculate D2E/DX2 analytically  !
 ! A56   A(11,17,21)            93.629          calculate D2E/DX2 analytically  !
 ! A57   A(20,17,21)            87.0673         calculate D2E/DX2 analytically  !
 ! A58   A(16,19,21)           129.873          calculate D2E/DX2 analytically  !
 ! A59   A(17,21,19)           134.5606         calculate D2E/DX2 analytically  !
 ! A60   L(4,11,17,2,-1)       186.2595         calculate D2E/DX2 analytically  !
 ! A61   L(4,11,17,2,-2)       168.7259         calculate D2E/DX2 analytically  !
 ! D1    D(2,1,5,6)            -92.4123         calculate D2E/DX2 analytically  !
 ! D2    D(3,1,5,6)            108.9105         calculate D2E/DX2 analytically  !
 ! D3    D(4,1,5,6)             11.8445         calculate D2E/DX2 analytically  !
 ! D4    D(7,1,5,6)             40.6151         calculate D2E/DX2 analytically  !
 ! D5    D(11,1,5,6)           -32.8089         calculate D2E/DX2 analytically  !
 ! D6    D(14,1,5,6)           179.6524         calculate D2E/DX2 analytically  !
 ! D7    D(2,1,7,8)           -101.3194         calculate D2E/DX2 analytically  !
 ! D8    D(2,1,7,10)             0.4633         calculate D2E/DX2 analytically  !
 ! D9    D(2,1,7,12)           143.1767         calculate D2E/DX2 analytically  !
 ! D10   D(5,1,7,8)            120.1119         calculate D2E/DX2 analytically  !
 ! D11   D(5,1,7,10)          -138.1054         calculate D2E/DX2 analytically  !
 ! D12   D(5,1,7,12)             4.608          calculate D2E/DX2 analytically  !
 ! D13   D(14,1,7,8)             2.0299         calculate D2E/DX2 analytically  !
 ! D14   D(14,1,7,10)          103.8125         calculate D2E/DX2 analytically  !
 ! D15   D(14,1,7,12)         -113.4741         calculate D2E/DX2 analytically  !
 ! D16   D(3,1,11,10)           -0.8554         calculate D2E/DX2 analytically  !
 ! D17   D(3,1,11,16)         -133.2794         calculate D2E/DX2 analytically  !
 ! D18   D(3,1,11,17)           99.3992         calculate D2E/DX2 analytically  !
 ! D19   D(5,1,11,10)          150.5913         calculate D2E/DX2 analytically  !
 ! D20   D(5,1,11,16)           18.1673         calculate D2E/DX2 analytically  !
 ! D21   D(5,1,11,17)         -109.1541         calculate D2E/DX2 analytically  !
 ! D22   D(14,1,11,10)         -90.0092         calculate D2E/DX2 analytically  !
 ! D23   D(14,1,11,16)         137.5668         calculate D2E/DX2 analytically  !
 ! D24   D(14,1,11,17)          10.2454         calculate D2E/DX2 analytically  !
 ! D25   D(2,1,14,15)          -83.9851         calculate D2E/DX2 analytically  !
 ! D26   D(3,1,14,15)          166.5182         calculate D2E/DX2 analytically  !
 ! D27   D(4,1,14,15)           72.877          calculate D2E/DX2 analytically  !
 ! D28   D(5,1,14,15)           33.034          calculate D2E/DX2 analytically  !
 ! D29   D(7,1,14,15)          169.3884         calculate D2E/DX2 analytically  !
 ! D30   D(11,1,14,15)         -98.3882         calculate D2E/DX2 analytically  !
 ! D31   D(1,4,7,11)            77.1467         calculate D2E/DX2 analytically  !
 ! D32   D(1,7,8,9)           -178.849          calculate D2E/DX2 analytically  !
 ! D33   D(3,7,8,9)           -174.362          calculate D2E/DX2 analytically  !
 ! D34   D(4,7,8,9)            -79.9424         calculate D2E/DX2 analytically  !
 ! D35   D(10,7,8,9)            73.4345         calculate D2E/DX2 analytically  !
 ! D36   D(11,7,8,9)            85.8076         calculate D2E/DX2 analytically  !
 ! D37   D(12,7,8,9)           -45.2837         calculate D2E/DX2 analytically  !
 ! D38   D(3,7,11,2)             1.7802         calculate D2E/DX2 analytically  !
 ! D39   D(3,7,11,16)          146.2304         calculate D2E/DX2 analytically  !
 ! D40   D(3,7,11,17)          -98.8913         calculate D2E/DX2 analytically  !
 ! D41   D(8,7,11,2)            94.2298         calculate D2E/DX2 analytically  !
 ! D42   D(8,7,11,16)         -121.32           calculate D2E/DX2 analytically  !
 ! D43   D(8,7,11,17)           -6.4417         calculate D2E/DX2 analytically  !
 ! D44   D(12,7,11,2)         -148.7534         calculate D2E/DX2 analytically  !
 ! D45   D(12,7,11,16)          -4.3032         calculate D2E/DX2 analytically  !
 ! D46   D(12,7,11,17)         110.5752         calculate D2E/DX2 analytically  !
 ! D47   D(1,7,12,13)          -43.4694         calculate D2E/DX2 analytically  !
 ! D48   D(3,7,12,13)         -109.2831         calculate D2E/DX2 analytically  !
 ! D49   D(4,7,12,13)          -11.7584         calculate D2E/DX2 analytically  !
 ! D50   D(8,7,12,13)          178.1587         calculate D2E/DX2 analytically  !
 ! D51   D(10,7,12,13)          94.6256         calculate D2E/DX2 analytically  !
 ! D52   D(11,7,12,13)          34.1179         calculate D2E/DX2 analytically  !
 ! D53   D(1,11,16,18)         -49.7799         calculate D2E/DX2 analytically  !
 ! D54   D(1,11,16,19)        -141.4938         calculate D2E/DX2 analytically  !
 ! D55   D(2,11,16,18)          12.2386         calculate D2E/DX2 analytically  !
 ! D56   D(2,11,16,19)         -79.4753         calculate D2E/DX2 analytically  !
 ! D57   D(4,11,16,18)         -78.9886         calculate D2E/DX2 analytically  !
 ! D58   D(4,11,16,19)        -170.7025         calculate D2E/DX2 analytically  !
 ! D59   D(7,11,16,18)        -118.6169         calculate D2E/DX2 analytically  !
 ! D60   D(7,11,16,19)         149.6691         calculate D2E/DX2 analytically  !
 ! D61   D(10,11,16,18)       -176.2749         calculate D2E/DX2 analytically  !
 ! D62   D(10,11,16,19)         92.0111         calculate D2E/DX2 analytically  !
 ! D63   D(17,11,16,18)         98.4006         calculate D2E/DX2 analytically  !
 ! D64   D(17,11,16,19)          6.6867         calculate D2E/DX2 analytically  !
 ! D65   D(1,11,17,20)          43.733          calculate D2E/DX2 analytically  !
 ! D66   D(1,11,17,21)         131.6347         calculate D2E/DX2 analytically  !
 ! D67   D(2,11,17,20)          37.4218         calculate D2E/DX2 analytically  !
 ! D68   D(2,11,17,21)         125.3235         calculate D2E/DX2 analytically  !
 ! D69   D(7,11,17,20)         142.338          calculate D2E/DX2 analytically  !
 ! D70   D(7,11,17,21)        -129.7603         calculate D2E/DX2 analytically  !
 ! D71   D(10,11,17,20)        149.7471         calculate D2E/DX2 analytically  !
 ! D72   D(10,11,17,21)       -122.3512         calculate D2E/DX2 analytically  !
 ! D73   D(16,11,17,20)        -93.6254         calculate D2E/DX2 analytically  !
 ! D74   D(16,11,17,21)         -5.7237         calculate D2E/DX2 analytically  !
 ! D75   D(11,16,19,21)         -9.4347         calculate D2E/DX2 analytically  !
 ! D76   D(18,16,19,21)       -108.3515         calculate D2E/DX2 analytically  !
 ! D77   D(11,17,21,19)          2.4436         calculate D2E/DX2 analytically  !
 ! D78   D(20,17,21,19)        106.732          calculate D2E/DX2 analytically  !
 ! D79   D(16,19,21,17)          5.3271         calculate D2E/DX2 analytically  !
 --------------------------------------------------------------------------------
 Trust Radius=3.00D-01 FncErr=1.00D-07 GrdErr=1.00D-06 EigMax=2.50D+02 EigMin=1.00D-04
 Number of steps in this run=    126 maximum allowed number of steps=    126.
 Search for a saddle point of order  1.
 GradGradGradGradGradGradGradGradGradGradGradGradGradGradGradGradGradGrad

                          Input orientation:                          
 ---------------------------------------------------------------------
 Center     Atomic      Atomic             Coordinates (Angstroms)
 Number     Number       Type             X           Y           Z
 ---------------------------------------------------------------------
      1         42           0       -0.374827    1.652825   10.961912
      2         16           0       -0.301848    3.763461   11.846904
      3         16           0       -2.326252    0.578740   11.654316
      4         16           0       -0.919073    1.958781    8.703340
      5         16           0        1.670772    0.756310   10.123618
      6          1           0        1.662652    1.090912    8.813304
      7         42           0       -3.021483    1.689055    9.743145
      8         16           0       -5.221829    0.776018   10.415320
      9          1           0       -5.952068    1.163595    9.348281
     10         16           0       -3.796341    3.808982   10.215472
     11         42           0       -1.543119    4.131209    9.890268
     12         16           0       -3.695155    0.684866    7.706418
     13          1           0       -2.681692    0.980910    6.858373
     14         16           0        0.501081    0.644708   13.012396
     15          1           0        1.824498    0.822647   12.812351
     16         16           0       -0.910691    4.985644    7.827615
     17         16           0       -1.879562    6.338546   10.563610
     18          1           0        0.431283    4.946281    7.989652
     19          1           0       -0.960811    6.731201    8.385755
     20          1           0       -0.709759    6.696390   11.143712
     21          1           0       -1.223187    7.026789    9.030839
 ---------------------------------------------------------------------
                    Distance matrix (angstroms):
                    1          2          3          4          5
     1  Mo   0.000000
     2  S    2.289830   0.000000
     3  S    2.332625   3.778591   0.000000
     4  S    2.343280   3.676932   3.548651   0.000000
     5  S    2.385571   3.987970   4.283780   3.189110   0.000000
     6  H    3.013898   4.494942   4.923924   2.725911   1.352386
     7  Mo   2.914017   4.015642   2.317050   2.360948   4.799170
     8  S    4.955904   5.931312   3.155693   4.779489   6.898799
     9  H    5.826557   6.702791   4.336634   5.136079   7.672986
    10  S    4.112535   3.856828   3.829608   3.740115   6.262313
    11  Mo   2.942060   2.346149   4.042920   2.552974   4.666207
    12  S    4.749712   6.175427   4.179839   3.212996   5.885672
    13  H    4.755221   6.188028   4.825883   2.732574   5.445752
    14  S    2.447039   3.424863   3.137283   4.723514   3.118601
    15  H    2.991714   3.755239   4.316163   5.069709   2.693941
    16  S    4.606371   4.244892   6.005685   3.151010   5.461030
    17  S    4.937495   3.281324   5.879161   4.854429   6.630220
    18  H    4.508990   4.100602   6.333181   3.355290   4.862715
    19  H    5.724497   4.606654   7.099345   4.783157   6.756088
    20  H    5.057942   3.043508   6.348181   5.333307   6.480129
    21  H    5.773062   4.407766   7.048171   5.087676   6.992001
                    6          7          8          9         10
     6  H    0.000000
     7  Mo   4.812847   0.000000
     8  S    7.075429   2.475273   0.000000
     9  H    7.633835   3.003390   1.349829   0.000000
    10  S    6.257362   2.305990   3.357205   3.520973   0.000000
    11  Mo   4.547552   2.858552   5.006585   5.342220   2.299260
    12  S    5.485997   2.368647   3.110819   2.831705   4.008203
    13  H    4.765205   2.989789   4.375631   4.114411   4.528857
    14  S    4.379580   4.918040   6.285996   7.438959   6.025218
    15  H    4.011301   5.801226   7.443027   8.520036   6.874286
    16  S    4.771018   4.358004   6.557673   6.506609   3.925987
    17  S    6.568753   4.857460   6.491106   6.696450   3.192794
    18  H    4.130199   5.060223   7.431866   7.543325   4.911265
    19  H    6.235240   5.613565   7.598659   7.539054   4.464018
    20  H    6.517708   5.690260   7.479314   7.830530   4.327325
    21  H    6.603789   5.677381   7.548382   7.539239   4.287045
                   11         12         13         14         15
    11  Mo   0.000000
    12  S    4.612780   0.000000
    13  H    4.518088   1.354227   0.000000
    14  S    5.107066   6.764866   6.936503   0.000000
    15  H    5.552116   7.520379   7.468644   1.350227   0.000000
    16  S    2.320466   5.124902   4.484838   6.907878   7.046942
    17  S    2.332149   6.589691   6.563266   6.639564   7.014416
    18  H    2.859186   5.938634   5.166679   6.613347   6.496448
    19  H    3.059837   6.670555   6.193559   7.783851   7.890736
    20  H    2.974183   7.540955   7.410760   6.448331   6.611178
    21  H    3.037327   6.934314   6.587830   7.717309   7.879061
                   16         17         18         19         20
    16  S    0.000000
    17  S    3.202300   0.000000
    18  H    1.352294   3.728762   0.000000
    19  H    1.833303   2.396108   2.297991   0.000000
    20  H    3.736780   1.353887   3.783246   2.769579   0.000000
    21  H    2.389911   1.803855   2.854795   0.756536   2.199319
                   21
    21  H    0.000000
 Symmetry turned off by external request.
 Stoichiometry    H8Mo3S10
 Framework group  C1[X(H8Mo3S10)]
 Deg. of freedom    57
 Full point group                 C1      NOp   1
 Rotational constants (GHZ):           0.2004244           0.1910710           0.1354526
 General basis read from cards:  (5D, 7F)
 ======================================================================================================
                                       Pseudopotential Parameters
 ======================================================================================================
  Center     Atomic      Valence      Angular      Power
  Number     Number     Electrons     Momentum     of R      Exponent        Coefficient   SO-Coeffient
 ======================================================================================================
    1         42           14
                                      F and up 
                                                     0      537.9667807       -0.04694920    0.00000000
                                                     1      147.8982938      -20.20800840    0.00000000
                                                     2       45.7358898     -106.21163020    0.00000000
                                                     2       13.2911467      -41.81073680    0.00000000
                                                     2        4.7059961       -4.20541030    0.00000000
                                      S - F
                                                     0      110.2991760        2.80637170    0.00000000
                                                     1       23.2014645       44.51620120    0.00000000
                                                     2        5.3530131       82.77852270    0.00000000
                                      P - F
                                                     0       63.2901397        4.94208760    0.00000000
                                                     1       23.3315302       25.86049760    0.00000000
                                                     2       24.6759423      132.47087420    0.00000000
                                                     2        4.6493040       57.31497940    0.00000000
                                      D - F
                                                     0      104.4839977        3.00545910    0.00000000
                                                     1       66.2307245       26.36378510    0.00000000
                                                     2       39.1283176      183.38491990    0.00000000
                                                     2       13.1164437       98.44530680    0.00000000
                                                     2        3.6280263       22.49013770    0.00000000
    2         16
                                   No pseudopotential on this center.
    3         16
                                   No pseudopotential on this center.
    4         16
                                   No pseudopotential on this center.
    5         16
                                   No pseudopotential on this center.
    6          1
                                   No pseudopotential on this center.
    7         42           14
                                      F and up 
                                                     0      537.9667807       -0.04694920    0.00000000
                                                     1      147.8982938      -20.20800840    0.00000000
                                                     2       45.7358898     -106.21163020    0.00000000
                                                     2       13.2911467      -41.81073680    0.00000000
                                                     2        4.7059961       -4.20541030    0.00000000
                                      S - F
                                                     0      110.2991760        2.80637170    0.00000000
                                                     1       23.2014645       44.51620120    0.00000000
                                                     2        5.3530131       82.77852270    0.00000000
                                      P - F
                                                     0       63.2901397        4.94208760    0.00000000
                                                     1       23.3315302       25.86049760    0.00000000
                                                     2       24.6759423      132.47087420    0.00000000
                                                     2        4.6493040       57.31497940    0.00000000
                                      D - F
                                                     0      104.4839977        3.00545910    0.00000000
                                                     1       66.2307245       26.36378510    0.00000000
                                                     2       39.1283176      183.38491990    0.00000000
                                                     2       13.1164437       98.44530680    0.00000000
                                                     2        3.6280263       22.49013770    0.00000000
    8         16
                                   No pseudopotential on this center.
    9          1
                                   No pseudopotential on this center.
   10         16
                                   No pseudopotential on this center.
   11         42           14
                                      F and up 
                                                     0      537.9667807       -0.04694920    0.00000000
                                                     1      147.8982938      -20.20800840    0.00000000
                                                     2       45.7358898     -106.21163020    0.00000000
                                                     2       13.2911467      -41.81073680    0.00000000
                                                     2        4.7059961       -4.20541030    0.00000000
                                      S - F
                                                     0      110.2991760        2.80637170    0.00000000
                                                     1       23.2014645       44.51620120    0.00000000
                                                     2        5.3530131       82.77852270    0.00000000
                                      P - F
                                                     0       63.2901397        4.94208760    0.00000000
                                                     1       23.3315302       25.86049760    0.00000000
                                                     2       24.6759423      132.47087420    0.00000000
                                                     2        4.6493040       57.31497940    0.00000000
                                      D - F
                                                     0      104.4839977        3.00545910    0.00000000
                                                     1       66.2307245       26.36378510    0.00000000
                                                     2       39.1283176      183.38491990    0.00000000
                                                     2       13.1164437       98.44530680    0.00000000
                                                     2        3.6280263       22.49013770    0.00000000
   12         16
                                   No pseudopotential on this center.
   13          1
                                   No pseudopotential on this center.
   14         16
                                   No pseudopotential on this center.
   15          1
                                   No pseudopotential on this center.
   16         16
                                   No pseudopotential on this center.
   17         16
                                   No pseudopotential on this center.
   18          1
                                   No pseudopotential on this center.
   19          1
                                   No pseudopotential on this center.
   20          1
                                   No pseudopotential on this center.
   21          1
                                   No pseudopotential on this center.
 ======================================================================================================
   286 basis functions,   723 primitive gaussians,   302 cartesian basis functions
   105 alpha electrons      105 beta electrons
       nuclear repulsion energy      2859.0576238422 Hartrees.
 NAtoms=   21 NActive=   21 NUniq=   21 SFac= 1.00D+00 NAtFMM=   60 NAOKFM=F Big=F
 Integral buffers will be    131072 words long.
 Raffenetti 2 integral format.
 Two-electron integral symmetry is turned off.
 One-electron integrals computed using PRISM.
   1 Symmetry operations used in ECPInt.
 ECPInt:  NShTT=    4851 NPrTT=   34584 LenC2=    4342 LenP2D=   20154.
 LDataN:  DoStor=T MaxTD1= 5 Len=  102
 NBasis=   286 RedAO= T EigKep=  1.26D-03  NBF=   286
 NBsUse=   286 1.00D-06 EigRej= -1.00D+00 NBFU=   286
 Defaulting to unpruned grid for atomic number  42.
 Defaulting to unpruned grid for atomic number  42.
 Defaulting to unpruned grid for atomic number  42.
 ExpMin= 2.47D-02 ExpMax= 2.19D+04 ExpMxC= 3.30D+03 IAcc=3 IRadAn=         5 AccDes= 0.00D+00
 Harris functional with IExCor=  402 and IRadAn=       5 diagonalized for initial guess.
 HarFok:  IExCor=  402 AccDes= 0.00D+00 IRadAn=         5 IDoV= 1 UseB2=F ITyADJ=14
 ICtDFT=  3500011 ScaDFX=  1.000000  1.000000  1.000000  1.000000
 Defaulting to unpruned grid for atomic number  42.
 FoFCou: FMM=F IPFlag=           0 FMFlag=      100000 FMFlg1=           0
         NFxFlg=           0 DoJE=T BraDBF=F KetDBF=T FulRan=T
         wScrn=  0.000000 ICntrl=       500 IOpCl=  0 I1Cent=   200000004 NGrid=           0
         NMat0=    1 NMatS0=      1 NMatT0=    0 NMatD0=    1 NMtDS0=    0 NMtDT0=    0
 Symmetry not used in FoFCou.
 Requested convergence on RMS density matrix=1.00D-08 within 128 cycles.
 Requested convergence on MAX density matrix=1.00D-06.
 Requested convergence on             energy=1.00D-06.
 No special actions if energy rises.
 Defaulting to unpruned grid for atomic number  42.
 Defaulting to unpruned grid for atomic number  42.
 Defaulting to unpruned grid for atomic number  42.
 Defaulting to unpruned grid for atomic number  42.
 Defaulting to unpruned grid for atomic number  42.
 Defaulting to unpruned grid for atomic number  42.
 Defaulting to unpruned grid for atomic number  42.
 Defaulting to unpruned grid for atomic number  42.
 Defaulting to unpruned grid for atomic number  42.
 Defaulting to unpruned grid for atomic number  42.
 Defaulting to unpruned grid for atomic number  42.
 Defaulting to unpruned grid for atomic number  42.
 Defaulting to unpruned grid for atomic number  42.
 Defaulting to unpruned grid for atomic number  42.
 Defaulting to unpruned grid for atomic number  42.
 Defaulting to unpruned grid for atomic number  42.
 Defaulting to unpruned grid for atomic number  42.
 Defaulting to unpruned grid for atomic number  42.
 Defaulting to unpruned grid for atomic number  42.
 Defaulting to unpruned grid for atomic number  42.
 Defaulting to unpruned grid for atomic number  42.
 Defaulting to unpruned grid for atomic number  42.
 Defaulting to unpruned grid for atomic number  42.
 Defaulting to unpruned grid for atomic number  42.
 Defaulting to unpruned grid for atomic number  42.
 Defaulting to unpruned grid for atomic number  42.
 Defaulting to unpruned grid for atomic number  42.
 Defaulting to unpruned grid for atomic number  42.
 Defaulting to unpruned grid for atomic number  42.
 Defaulting to unpruned grid for atomic number  42.
 Defaulting to unpruned grid for atomic number  42.
 Defaulting to unpruned grid for atomic number  42.
 Defaulting to unpruned grid for atomic number  42.
 Defaulting to unpruned grid for atomic number  42.
 Defaulting to unpruned grid for atomic number  42.
 Defaulting to unpruned grid for atomic number  42.
 Defaulting to unpruned grid for atomic number  42.
 Defaulting to unpruned grid for atomic number  42.
 Defaulting to unpruned grid for atomic number  42.
 Defaulting to unpruned grid for atomic number  42.
 Defaulting to unpruned grid for atomic number  42.
 Defaulting to unpruned grid for atomic number  42.
 Defaulting to unpruned grid for atomic number  42.
 Defaulting to unpruned grid for atomic number  42.
 Defaulting to unpruned grid for atomic number  42.
 Defaulting to unpruned grid for atomic number  42.
 Defaulting to unpruned grid for atomic number  42.
 Defaulting to unpruned grid for atomic number  42.
 EnCoef did     2 forward-backward iterations
 EnCoef did   100 forward-backward iterations
 EnCoef did     2 forward-backward iterations
 EnCoef did     5 forward-backward iterations
 EnCoef did     2 forward-backward iterations
 EnCoef did     9 forward-backward iterations
 EnCoef did     2 forward-backward iterations
 EnCoef did     3 forward-backward iterations
 EnCoef did     2 forward-backward iterations
 EnCoef did     3 forward-backward iterations
 Restarting incremental Fock formation.
 SCF Done:  E(RB3LYP) =  -4189.58560979     A.U. after   25 cycles
            NFock= 25  Conv=0.41D-08     -V/T= 2.0356
 DoSCS=F DFT=T ScalE2(SS,OS)=  1.000000  1.000000
 Range of M.O.s used for correlation:     1   286
 NBasis=   286 NAE=   105 NBE=   105 NFC=     0 NFV=     0
 NROrb=    286 NOA=   105 NOB=   105 NVA=   181 NVB=   181

 **** Warning!!: The smallest alpha delta epsilon is  0.58659753D-01

   1 Symmetry operations used in ECPInt.
 ECPInt:  NShTT=    4851 NPrTT=   34584 LenC2=    4342 LenP2D=   20154.
 LDataN:  DoStor=T MaxTD1= 6 Len=  172
 Number of processors reduced to  36 by ecpmxn.
 Symmetrizing basis deriv contribution to polar:
 IMax=3 JMax=2 DiffMx= 0.00D+00
 G2DrvN: will do    22 centers at a time, making    1 passes.
 Calling FoFCou, ICntrl=  3107 FMM=F I1Cent=   0 AccDes= 0.00D+00.
 Defaulting to unpruned grid for atomic number  42.
 Defaulting to unpruned grid for atomic number  42.
 Defaulting to unpruned grid for atomic number  42.
 Defaulting to unpruned grid for atomic number  42.
 Defaulting to unpruned grid for atomic number  42.
 Defaulting to unpruned grid for atomic number  42.
 Defaulting to unpruned grid for atomic number  42.
 Defaulting to unpruned grid for atomic number  42.
 Defaulting to unpruned grid for atomic number  42.
 Defaulting to unpruned grid for atomic number  42.
 Defaulting to unpruned grid for atomic number  42.
 Defaulting to unpruned grid for atomic number  42.
 Defaulting to unpruned grid for atomic number  42.
 Defaulting to unpruned grid for atomic number  42.
 Defaulting to unpruned grid for atomic number  42.
 Defaulting to unpruned grid for atomic number  42.
 Defaulting to unpruned grid for atomic number  42.
 Defaulting to unpruned grid for atomic number  42.
 Defaulting to unpruned grid for atomic number  42.
 Defaulting to unpruned grid for atomic number  42.
 Defaulting to unpruned grid for atomic number  42.
 Defaulting to unpruned grid for atomic number  42.
 Defaulting to unpruned grid for atomic number  42.
 Defaulting to unpruned grid for atomic number  42.
 Defaulting to unpruned grid for atomic number  42.
 Defaulting to unpruned grid for atomic number  42.
 Defaulting to unpruned grid for atomic number  42.
 Defaulting to unpruned grid for atomic number  42.
 Defaulting to unpruned grid for atomic number  42.
 Defaulting to unpruned grid for atomic number  42.
 Defaulting to unpruned grid for atomic number  42.
 Defaulting to unpruned grid for atomic number  42.
 Defaulting to unpruned grid for atomic number  42.
 Defaulting to unpruned grid for atomic number  42.
 Defaulting to unpruned grid for atomic number  42.
 Defaulting to unpruned grid for atomic number  42.
 Defaulting to unpruned grid for atomic number  42.
 Defaulting to unpruned grid for atomic number  42.
 Defaulting to unpruned grid for atomic number  42.
 Defaulting to unpruned grid for atomic number  42.
 Defaulting to unpruned grid for atomic number  42.
 Defaulting to unpruned grid for atomic number  42.
 Defaulting to unpruned grid for atomic number  42.
 Defaulting to unpruned grid for atomic number  42.
 Defaulting to unpruned grid for atomic number  42.
 Defaulting to unpruned grid for atomic number  42.
 Defaulting to unpruned grid for atomic number  42.
 Defaulting to unpruned grid for atomic number  42.
 End of G2Drv F.D. properties file   721 does not exist.
 End of G2Drv F.D. properties file   722 does not exist.
 End of G2Drv F.D. properties file   788 does not exist.
          IDoAtm=111111111111111111111
          Differentiating once with respect to nuclear coordinates.
 Defaulting to unpruned grid for atomic number  42.
 Defaulting to unpruned grid for atomic number  42.
 Defaulting to unpruned grid for atomic number  42.
 Keep R1 ints in memory in canonical form, NReq=896495482.
 Defaulting to unpruned grid for atomic number  42.
 Defaulting to unpruned grid for atomic number  42.
 Defaulting to unpruned grid for atomic number  42.
 Defaulting to unpruned grid for atomic number  42.
 Defaulting to unpruned grid for atomic number  42.
 Defaulting to unpruned grid for atomic number  42.
 Defaulting to unpruned grid for atomic number  42.
 Defaulting to unpruned grid for atomic number  42.
 Defaulting to unpruned grid for atomic number  42.
 Defaulting to unpruned grid for atomic number  42.
 Defaulting to unpruned grid for atomic number  42.
 Defaulting to unpruned grid for atomic number  42.
 Defaulting to unpruned grid for atomic number  42.
 Defaulting to unpruned grid for atomic number  42.
 Defaulting to unpruned grid for atomic number  42.
 Defaulting to unpruned grid for atomic number  42.
 Defaulting to unpruned grid for atomic number  42.
 Defaulting to unpruned grid for atomic number  42.
 Defaulting to unpruned grid for atomic number  42.
 Defaulting to unpruned grid for atomic number  42.
 Defaulting to unpruned grid for atomic number  42.
 Defaulting to unpruned grid for atomic number  42.
 Defaulting to unpruned grid for atomic number  42.
 Defaulting to unpruned grid for atomic number  42.
 Defaulting to unpruned grid for atomic number  42.
 Defaulting to unpruned grid for atomic number  42.
 Defaulting to unpruned grid for atomic number  42.
 Defaulting to unpruned grid for atomic number  42.
 Defaulting to unpruned grid for atomic number  42.
 Defaulting to unpruned grid for atomic number  42.
 Defaulting to unpruned grid for atomic number  42.
 Defaulting to unpruned grid for atomic number  42.
 Defaulting to unpruned grid for atomic number  42.
 Defaulting to unpruned grid for atomic number  42.
 Defaulting to unpruned grid for atomic number  42.
 Defaulting to unpruned grid for atomic number  42.
 Defaulting to unpruned grid for atomic number  42.
 Defaulting to unpruned grid for atomic number  42.
 Defaulting to unpruned grid for atomic number  42.
 Defaulting to unpruned grid for atomic number  42.
 Defaulting to unpruned grid for atomic number  42.
 Defaulting to unpruned grid for atomic number  42.
 Defaulting to unpruned grid for atomic number  42.
 Defaulting to unpruned grid for atomic number  42.
 Defaulting to unpruned grid for atomic number  42.
 Defaulting to unpruned grid for atomic number  42.
 Defaulting to unpruned grid for atomic number  42.
 Defaulting to unpruned grid for atomic number  42.
          There are    66 degrees of freedom in the 1st order CPHF.  IDoFFX=6 NUNeed=     0.
     60 vectors produced by pass  0 Test12= 2.88D-14 1.52D-09 XBig12= 2.95D-01 1.76D-01.
 AX will form    60 AO Fock derivatives at one time.
     60 vectors produced by pass  1 Test12= 2.88D-14 1.52D-09 XBig12= 1.70D-01 7.38D-02.
     60 vectors produced by pass  2 Test12= 2.88D-14 1.52D-09 XBig12= 8.40D-03 1.29D-02.
     60 vectors produced by pass  3 Test12= 2.88D-14 1.52D-09 XBig12= 1.68D-04 2.02D-03.
     60 vectors produced by pass  4 Test12= 2.88D-14 1.52D-09 XBig12= 2.00D-06 2.40D-04.
     60 vectors produced by pass  5 Test12= 2.88D-14 1.52D-09 XBig12= 1.18D-08 1.41D-05.
     59 vectors produced by pass  6 Test12= 2.88D-14 1.52D-09 XBig12= 5.05D-11 9.48D-07.
     32 vectors produced by pass  7 Test12= 2.88D-14 1.52D-09 XBig12= 1.61D-13 4.64D-08.
      3 vectors produced by pass  8 Test12= 2.88D-14 1.52D-09 XBig12= 4.59D-16 2.35D-09.
 InvSVY:  IOpt=1 It=  1 EMax= 3.33D-16
 Solved reduced A of dimension   454 with    66 vectors.
 End of Minotr F.D. properties file   721 does not exist.
 End of Minotr F.D. properties file   722 does not exist.
 End of Minotr F.D. properties file   788 does not exist.

 **********************************************************************

            Population analysis using the SCF Density.

 **********************************************************************

 Alpha  occ. eigenvalues --  -88.93874 -88.92302 -88.91271 -88.90243 -88.90114
 Alpha  occ. eigenvalues --  -88.88625 -88.87477 -88.87459 -88.86260 -88.85219
 Alpha  occ. eigenvalues --   -8.01747  -8.00033  -7.98862  -7.98009  -7.97913
 Alpha  occ. eigenvalues --   -7.96370  -7.95133  -7.95129  -7.93917  -7.92857
 Alpha  occ. eigenvalues --   -5.97925  -5.97683  -5.97441  -5.96220  -5.96039
 Alpha  occ. eigenvalues --   -5.95680  -5.95001  -5.94818  -5.94643  -5.94043
 Alpha  occ. eigenvalues --   -5.93971  -5.93950  -5.93865  -5.93864  -5.93729
 Alpha  occ. eigenvalues --   -5.92474  -5.92317  -5.92153  -5.91416  -5.91409
 Alpha  occ. eigenvalues --   -5.91033  -5.91028  -5.90824  -5.90801  -5.90192
 Alpha  occ. eigenvalues --   -5.89824  -5.89604  -5.89146  -5.88793  -5.88508
 Alpha  occ. eigenvalues --   -2.56094  -2.55886  -2.55457  -1.59541  -1.59049
 Alpha  occ. eigenvalues --   -1.58653  -1.58264  -1.57932  -1.57757  -1.57458
 Alpha  occ. eigenvalues --   -1.56997  -1.56541  -0.80718  -0.77787  -0.75420
 Alpha  occ. eigenvalues --   -0.73215  -0.73116  -0.72333  -0.72148  -0.71301
 Alpha  occ. eigenvalues --   -0.70664  -0.69863  -0.54869  -0.48330  -0.47051
 Alpha  occ. eigenvalues --   -0.44365  -0.43882  -0.41813  -0.41775  -0.40987
 Alpha  occ. eigenvalues --   -0.40308  -0.39263  -0.38853  -0.38206  -0.38047
 Alpha  occ. eigenvalues --   -0.37210  -0.36671  -0.36362  -0.36028  -0.35514
 Alpha  occ. eigenvalues --   -0.35090  -0.33685  -0.32788  -0.31121  -0.30493
 Alpha  occ. eigenvalues --   -0.30164  -0.29805  -0.29116  -0.28794  -0.28300
 Alpha  occ. eigenvalues --   -0.27045  -0.27008  -0.26114  -0.24295  -0.23442
 Alpha virt. eigenvalues --   -0.17576  -0.15806  -0.14044  -0.13696  -0.11981
 Alpha virt. eigenvalues --   -0.11377  -0.11146  -0.10439  -0.10100  -0.09639
 Alpha virt. eigenvalues --   -0.05673  -0.05576  -0.04470  -0.02461  -0.01111
 Alpha virt. eigenvalues --    0.00334   0.00882   0.02372   0.02708   0.03945
 Alpha virt. eigenvalues --    0.04199   0.04539   0.05381   0.05986   0.06043
 Alpha virt. eigenvalues --    0.06297   0.06993   0.08446   0.08831   0.12470
 Alpha virt. eigenvalues --    0.13538   0.14163   0.14944   0.16415   0.17391
 Alpha virt. eigenvalues --    0.18045   0.18644   0.21675   0.21879   0.23347
 Alpha virt. eigenvalues --    0.26231   0.26439   0.28091   0.29181   0.29259
 Alpha virt. eigenvalues --    0.29991   0.30481   0.31597   0.31733   0.32283
 Alpha virt. eigenvalues --    0.33422   0.33969   0.34471   0.35010   0.35467
 Alpha virt. eigenvalues --    0.35733   0.36326   0.36738   0.37220   0.37909
 Alpha virt. eigenvalues --    0.38674   0.39316   0.39487   0.40368   0.41129
 Alpha virt. eigenvalues --    0.41577   0.42071   0.42180   0.42835   0.43882
 Alpha virt. eigenvalues --    0.44724   0.45045   0.45899   0.46826   0.47167
 Alpha virt. eigenvalues --    0.48114   0.49741   0.50854   0.52892   0.53126
 Alpha virt. eigenvalues --    0.54341   0.55173   0.56307   0.56777   0.58206
 Alpha virt. eigenvalues --    0.59324   0.59781   0.60873   0.62050   0.63003
 Alpha virt. eigenvalues --    0.63976   0.64181   0.66022   0.67419   0.68211
 Alpha virt. eigenvalues --    0.69898   0.71108   0.71325   0.72182   0.73087
 Alpha virt. eigenvalues --    0.73372   0.73945   0.74176   0.74525   0.75097
 Alpha virt. eigenvalues --    0.75596   0.76359   0.76791   0.77530   0.78121
 Alpha virt. eigenvalues --    0.78973   0.79245   0.79613   0.80269   0.81252
 Alpha virt. eigenvalues --    0.82585   0.83837   0.84127   0.84913   0.85190
 Alpha virt. eigenvalues --    0.86718   0.87657   0.89214   0.90444   0.91300
 Alpha virt. eigenvalues --    0.91711   0.93490   0.94460   0.94531   0.95154
 Alpha virt. eigenvalues --    0.96532   0.97349   0.98470   0.98905   0.99930
 Alpha virt. eigenvalues --    1.01639   1.03631   1.04021   1.06453   1.07740
 Alpha virt. eigenvalues --    1.08958   1.10356   1.10744   1.12083   1.13597
 Alpha virt. eigenvalues --    1.13974   1.14177   1.14780   1.15845   1.16427
 Alpha virt. eigenvalues --    1.18639   1.19189   1.22243   1.24279   1.65636
 Alpha virt. eigenvalues --    1.82484   2.02900   2.04205   2.05305   2.06582
 Alpha virt. eigenvalues --    2.07746   2.08227   2.09544   2.10161   2.10715
 Alpha virt. eigenvalues --    2.11068   2.11583   2.13035   2.36870   2.53826
 Alpha virt. eigenvalues --    2.67257   2.69661   2.73177   2.73302   2.73367
 Alpha virt. eigenvalues --    2.74384   2.74994   4.00615   6.74130   7.68040
 Alpha virt. eigenvalues --   10.00149
          Condensed to atoms (all electrons):
               1          2          3          4          5          6
     1  Mo  13.516830   0.291324   0.216483   0.088267   0.283328  -0.028881
     2  S    0.291324  15.559805   0.014265  -0.036423   0.011061   0.000050
     3  S    0.216483   0.014265  15.611817  -0.058680   0.008138  -0.000072
     4  S    0.088267  -0.036423  -0.058680  15.911069  -0.032430  -0.005159
     5  S    0.283328   0.011061   0.008138  -0.032430  15.568879   0.256194
     6  H   -0.028881   0.000050  -0.000072  -0.005159   0.256194   0.707941
     7  Mo  -0.096408  -0.042204   0.227051   0.097916  -0.000845   0.002671
     8  S   -0.000406   0.000239  -0.023676  -0.008925  -0.000006  -0.000000
     9  H    0.000133  -0.000000   0.001176   0.000299  -0.000000   0.000000
    10  S   -0.028387   0.014615   0.013651  -0.027525  -0.000122   0.000001
    11  Mo  -0.279728   0.199175  -0.035026   0.089611  -0.000528   0.000083
    12  S   -0.000592  -0.000171   0.011214  -0.032464   0.000190  -0.000035
    13  H    0.003046  -0.000001  -0.000101  -0.005128  -0.000039   0.000001
    14  S    0.286498  -0.006909  -0.025993  -0.009826  -0.049142   0.002172
    15  H   -0.032003  -0.001153   0.001196   0.000364  -0.001872   0.000169
    16  S   -0.013750   0.004631  -0.000257  -0.022309   0.000163   0.000037
    17  S   -0.000873  -0.011729   0.000262  -0.009685   0.000008  -0.000001
    18  H    0.002688  -0.000036   0.000002  -0.002172   0.000092  -0.000004
    19  H    0.001462  -0.000107   0.000000   0.000128  -0.000000   0.000000
    20  H    0.001661  -0.004265  -0.000001   0.000126   0.000001  -0.000000
    21  H    0.000650   0.000260  -0.000000   0.000144   0.000000   0.000000
               7          8          9         10         11         12
     1  Mo  -0.096408  -0.000406   0.000133  -0.028387  -0.279728  -0.000592
     2  S   -0.042204   0.000239  -0.000000   0.014615   0.199175  -0.000171
     3  S    0.227051  -0.023676   0.001176   0.013651  -0.035026   0.011214
     4  S    0.097916  -0.008925   0.000299  -0.027525   0.089611  -0.032464
     5  S   -0.000845  -0.000006  -0.000000  -0.000122  -0.000528   0.000190
     6  H    0.002671  -0.000000   0.000000   0.000001   0.000083  -0.000035
     7  Mo  13.528257   0.275775  -0.031552   0.251966  -0.231251   0.282052
     8  S    0.275775  15.581012   0.268394  -0.014923  -0.002760  -0.047678
     9  H   -0.031552   0.268394   0.685073  -0.002307   0.000959  -0.003678
    10  S    0.251966  -0.014923  -0.002307  15.528648   0.209830   0.009639
    11  Mo  -0.231251  -0.002760   0.000959   0.209830  14.003706  -0.000312
    12  S    0.282052  -0.047678  -0.003678   0.009639  -0.000312  15.554192
    13  H   -0.027228   0.002441   0.000115   0.000187  -0.000879   0.245414
    14  S   -0.002074   0.000050  -0.000000   0.000170  -0.004604  -0.000006
    15  H    0.000305  -0.000000  -0.000000  -0.000000  -0.000008  -0.000000
    16  S   -0.015784   0.000007   0.000000   0.007915   0.266980   0.000618
    17  S   -0.003499   0.000066  -0.000001  -0.012357   0.174226  -0.000006
    18  H    0.001126  -0.000000   0.000000  -0.000199  -0.031785  -0.000002
    19  H    0.002075   0.000000  -0.000000   0.000064  -0.055474  -0.000001
    20  H   -0.000590  -0.000000  -0.000000   0.000618  -0.027557  -0.000000
    21  H    0.000961  -0.000000  -0.000000   0.000083  -0.043798   0.000000
              13         14         15         16         17         18
     1  Mo   0.003046   0.286498  -0.032003  -0.013750  -0.000873   0.002688
     2  S   -0.000001  -0.006909  -0.001153   0.004631  -0.011729  -0.000036
     3  S   -0.000101  -0.025993   0.001196  -0.000257   0.000262   0.000002
     4  S   -0.005128  -0.009826   0.000364  -0.022309  -0.009685  -0.002172
     5  S   -0.000039  -0.049142  -0.001872   0.000163   0.000008   0.000092
     6  H    0.000001   0.002172   0.000169   0.000037  -0.000001  -0.000004
     7  Mo  -0.027228  -0.002074   0.000305  -0.015784  -0.003499   0.001126
     8  S    0.002441   0.000050  -0.000000   0.000007   0.000066  -0.000000
     9  H    0.000115  -0.000000  -0.000000   0.000000  -0.000001   0.000000
    10  S    0.000187   0.000170  -0.000000   0.007915  -0.012357  -0.000199
    11  Mo  -0.000879  -0.004604  -0.000008   0.266980   0.174226  -0.031785
    12  S    0.245414  -0.000006  -0.000000   0.000618  -0.000006  -0.000002
    13  H    0.718856  -0.000000   0.000000   0.000320  -0.000000   0.000001
    14  S   -0.000000  15.546241   0.269267   0.000000   0.000043   0.000001
    15  H    0.000000   0.269267   0.680889  -0.000000  -0.000000   0.000000
    16  S    0.000320   0.000000  -0.000000  15.652373  -0.109894   0.268234
    17  S   -0.000000   0.000043  -0.000000  -0.109894  15.670604   0.002787
    18  H    0.000001   0.000001   0.000000   0.268234   0.002787   0.624531
    19  H    0.000000   0.000000  -0.000000   0.079312  -0.100208  -0.007557
    20  H    0.000000   0.000001  -0.000000   0.002157   0.260281  -0.000211
    21  H    0.000000  -0.000000  -0.000000  -0.103917   0.109295   0.000205
              19         20         21
     1  Mo   0.001462   0.001661   0.000650
     2  S   -0.000107  -0.004265   0.000260
     3  S    0.000000  -0.000001  -0.000000
     4  S    0.000128   0.000126   0.000144
     5  S   -0.000000   0.000001   0.000000
     6  H    0.000000  -0.000000   0.000000
     7  Mo   0.002075  -0.000590   0.000961
     8  S    0.000000  -0.000000  -0.000000
     9  H   -0.000000  -0.000000  -0.000000
    10  S    0.000064   0.000618   0.000083
    11  Mo  -0.055474  -0.027557  -0.043798
    12  S   -0.000001  -0.000000   0.000000
    13  H    0.000000   0.000000   0.000000
    14  S    0.000000   0.000001  -0.000000
    15  H   -0.000000  -0.000000  -0.000000
    16  S    0.079312   0.002157  -0.103917
    17  S   -0.100208   0.260281   0.109295
    18  H   -0.007557  -0.000211   0.000205
    19  H    0.732359  -0.000452   0.326750
    20  H   -0.000452   0.664744  -0.011256
    21  H    0.326750  -0.011256   0.704727
 Mulliken charges:
               1
     1  Mo  -0.211340
     2  S    0.007575
     3  S    0.038554
     4  S    0.062802
     5  S   -0.043070
     6  H    0.064835
     7  Mo  -0.218722
     8  S   -0.029609
     9  H    0.081387
    10  S    0.048431
    11  Mo  -0.230860
    12  S   -0.018372
    13  H    0.062996
    14  S   -0.005888
    15  H    0.082847
    16  S   -0.016835
    17  S    0.030683
    18  H    0.142301
    19  H    0.021646
    20  H    0.114745
    21  H    0.015896
 Sum of Mulliken charges =  -0.00000
 Mulliken charges with hydrogens summed into heavy atoms:
               1
     1  Mo  -0.211340
     2  S    0.007575
     3  S    0.038554
     4  S    0.062802
     5  S    0.021765
     7  Mo  -0.218722
     8  S    0.051778
    10  S    0.048431
    11  Mo  -0.230860
    12  S    0.044624
    14  S    0.076960
    16  S    0.147111
    17  S    0.161324
 APT charges:
               1
     1  Mo  -1.556956
     2  S    0.805804
     3  S    0.589095
     4  S    0.361518
     5  S    0.908890
     6  H   -0.936264
     7  Mo  -0.096062
     8  S    0.444162
     9  H   -0.462643
    10  S    0.543266
    11  Mo  -0.142785
    12  S    0.459437
    13  H   -0.601330
    14  S   -0.027269
    15  H    0.029433
    16  S   -0.144681
    17  S   -1.290810
    18  H    0.496034
    19  H   -1.132695
    20  H    0.736295
    21  H    1.017562
 Sum of APT charges =  -0.00000
 APT charges with hydrogens summed into heavy atoms:
               1
     1  Mo  -1.556956
     2  S    0.805804
     3  S    0.589095
     4  S    0.361518
     5  S   -0.027374
     7  Mo  -0.096062
     8  S   -0.018481
    10  S    0.543266
    11  Mo  -0.142785
    12  S   -0.141893
    14  S    0.002164
    16  S   -0.781342
    17  S    0.463048
 Electronic spatial extent (au):  <R**2>=          91929.5545
 Charge=              0.0000 electrons
 Dipole moment (field-independent basis, Debye):
    X=              3.7032    Y=              7.0515    Z=             -3.9459  Tot=              8.8886
 Quadrupole moment (field-independent basis, Debye-Ang):
   XX=           -220.9385   YY=           -166.8984   ZZ=           -286.3905
   XY=              3.0791   XZ=             40.7091   YZ=             61.9311
 Traceless Quadrupole moment (field-independent basis, Debye-Ang):
   XX=              3.8040   YY=             57.8441   ZZ=            -61.6480
   XY=              3.0791   XZ=             40.7091   YZ=             61.9311
 Octapole moment (field-independent basis, Debye-Ang**2):
  XXX=           1083.9779  YYY=          -1288.6844  ZZZ=          -7547.0425  XYY=            361.9280
  XXY=           -510.8540  XXZ=          -2266.6619  XZZ=            801.1552  YZZ=             35.2222
  YYZ=          -1736.3419  XYZ=             39.8779
 Hexadecapole moment (field-independent basis, Debye-Ang**3):
 XXXX=          -7784.8813 YYYY=         -10511.0178 ZZZZ=        -148589.3851 XXXY=           2443.9607
 XXXZ=          10708.5398 YYYX=           2585.2936 YYYZ=         -12977.1548 ZZZX=          15266.4478
 ZZZY=         -10479.1490 XXYY=          -3320.2746 XXZZ=         -24976.5877 YYZZ=         -20417.5146
 XXYZ=          -5170.9540 YYXZ=           3552.1243 ZZXY=           1333.2897
 N-N= 2.859057623842D+03 E-N=-1.560532965318D+04  KE= 4.045573722075D+03
  Exact polarizability:       0.000       0.000       0.000       0.000       0.000       0.000
 Approx polarizability:    1069.718      56.427    1125.593      82.132    -160.612     954.002
   1 Symmetry operations used in ECPInt.
 ECPInt:  NShTT=    4851 NPrTT=   34584 LenC2=    4342 LenP2D=   20154.
 LDataN:  DoStor=T MaxTD1= 7 Len=  274
 Calling FoFJK, ICntrl=    100127 FMM=F ISym2X=0 I1Cent= 0 IOpClX= 0 NMat=1 NMatS=1 NMatT=0.
 Defaulting to unpruned grid for atomic number  42.
 Defaulting to unpruned grid for atomic number  42.
 Defaulting to unpruned grid for atomic number  42.
 Defaulting to unpruned grid for atomic number  42.
 Defaulting to unpruned grid for atomic number  42.
 Defaulting to unpruned grid for atomic number  42.
 Defaulting to unpruned grid for atomic number  42.
 Defaulting to unpruned grid for atomic number  42.
 Defaulting to unpruned grid for atomic number  42.
 Defaulting to unpruned grid for atomic number  42.
 Defaulting to unpruned grid for atomic number  42.
 Defaulting to unpruned grid for atomic number  42.
 Defaulting to unpruned grid for atomic number  42.
 Defaulting to unpruned grid for atomic number  42.
 Defaulting to unpruned grid for atomic number  42.
 Defaulting to unpruned grid for atomic number  42.
 Defaulting to unpruned grid for atomic number  42.
 Defaulting to unpruned grid for atomic number  42.
 Defaulting to unpruned grid for atomic number  42.
 Defaulting to unpruned grid for atomic number  42.
 Defaulting to unpruned grid for atomic number  42.
 Defaulting to unpruned grid for atomic number  42.
 Defaulting to unpruned grid for atomic number  42.
 Defaulting to unpruned grid for atomic number  42.
 Defaulting to unpruned grid for atomic number  42.
 Defaulting to unpruned grid for atomic number  42.
 Defaulting to unpruned grid for atomic number  42.
 Defaulting to unpruned grid for atomic number  42.
 Defaulting to unpruned grid for atomic number  42.
 Defaulting to unpruned grid for atomic number  42.
 Defaulting to unpruned grid for atomic number  42.
 Defaulting to unpruned grid for atomic number  42.
 Defaulting to unpruned grid for atomic number  42.
 Defaulting to unpruned grid for atomic number  42.
 Defaulting to unpruned grid for atomic number  42.
 Defaulting to unpruned grid for atomic number  42.
 Defaulting to unpruned grid for atomic number  42.
 Defaulting to unpruned grid for atomic number  42.
 Defaulting to unpruned grid for atomic number  42.
 Defaulting to unpruned grid for atomic number  42.
 Defaulting to unpruned grid for atomic number  42.
 Defaulting to unpruned grid for atomic number  42.
 Defaulting to unpruned grid for atomic number  42.
 Defaulting to unpruned grid for atomic number  42.
 Defaulting to unpruned grid for atomic number  42.
 Defaulting to unpruned grid for atomic number  42.
 Defaulting to unpruned grid for atomic number  42.
 Defaulting to unpruned grid for atomic number  42.
 -------------------------------------------------------------------
 Center     Atomic                   Forces (Hartrees/Bohr)
 Number     Number              X              Y              Z
 -------------------------------------------------------------------
      1       42           0.001385798   -0.002657138    0.005036398
      2       16           0.000970245    0.000156042   -0.001039321
      3       16           0.000118470   -0.001149203   -0.000298473
      4       16           0.002553425   -0.003630271   -0.003625141
      5       16           0.000150378    0.000287933   -0.000436364
      6        1          -0.000187169    0.000013872    0.000100612
      7       42          -0.003425616   -0.000667170    0.003262659
      8       16           0.000423784    0.001144720   -0.000307504
      9        1           0.000001558   -0.000584573   -0.000123875
     10       16          -0.000856868   -0.000247378   -0.000643918
     11       42          -0.002269100   -0.011880613    0.008121650
     12       16           0.000674850   -0.000216261   -0.000826474
     13        1          -0.000120960    0.000168427    0.000036844
     14       16          -0.000968249    0.000871392   -0.000866647
     15        1           0.000242457   -0.000875898   -0.000249521
     16       16           0.007223139   -0.008216619   -0.023114612
     17       16          -0.009835043    0.011700399    0.022350250
     18        1           0.000072706   -0.000362145    0.000000526
     19        1           0.016253514   -0.008531286   -0.039399097
     20        1           0.000562804    0.000173881   -0.000973343
     21        1          -0.012970123    0.024501888    0.032995351
 -------------------------------------------------------------------
 Cartesian Forces:  Max     0.039399097 RMS     0.009300001
 FormGI is forming the generalized inverse of G from B-inverse, IUseBI=4.

 GradGradGradGradGradGradGradGradGradGradGradGradGradGradGradGradGradGrad
 Berny optimization.
 Internal  Forces:  Max     0.048727428 RMS     0.004717752
 Search for a saddle point.
 Step number   1 out of a maximum of  126
 All quantities printed in internal units (Hartrees-Bohrs-Radians)
 Swapping is turned off.
 Second derivative matrix not updated -- analytic derivatives used.
 ITU=  0
     Eigenvalues ---   -0.00457  -0.00108   0.00183   0.00210   0.00237
     Eigenvalues ---    0.00268   0.00426   0.00563   0.00597   0.00617
     Eigenvalues ---    0.00862   0.01172   0.01339   0.01369   0.01400
     Eigenvalues ---    0.01742   0.01882   0.02227   0.02300   0.02557
     Eigenvalues ---    0.02701   0.02937   0.03057   0.04031   0.04241
     Eigenvalues ---    0.05058   0.05361   0.05893   0.06312   0.06716
     Eigenvalues ---    0.07788   0.08344   0.08652   0.09339   0.09696
     Eigenvalues ---    0.10251   0.10711   0.11053   0.11609   0.12309
     Eigenvalues ---    0.12780   0.12783   0.13065   0.13389   0.13784
     Eigenvalues ---    0.14210   0.14693   0.15032   0.16150   0.16497
     Eigenvalues ---    0.25635   0.25651   0.25911   0.26234   0.26407
     Eigenvalues ---    0.26500   0.30530
 Eigenvectors required to have negative eigenvalues:
                          R26       R24       R27       R11       R6
   1                    0.60498   0.60495  -0.16191   0.15310   0.11650
                          D65       D56       A49       D55       A58
   1                    0.10248  -0.09954   0.09867  -0.09837  -0.09597
 RFO step:  Lambda0=5.462717305D-03 Lambda=-1.40151731D-02.
 Linear search not attempted -- option 19 set.
 Maximum step size (   0.300) exceeded in Quadratic search.
    -- Step size scaled by   0.358
 Iteration  1 RMS(Cart)=  0.04282448 RMS(Int)=  0.00118983
 Iteration  2 RMS(Cart)=  0.00098589 RMS(Int)=  0.00031367
 Iteration  3 RMS(Cart)=  0.00000117 RMS(Int)=  0.00031367
 Iteration  4 RMS(Cart)=  0.00000000 RMS(Int)=  0.00031367
 Variable       Old X    -DE/DX   Delta X   Delta X   Delta X     New X
                                 (Linear)    (Quad)   (Total)
    R1        4.32715   0.00096   0.00000  -0.00029  -0.00091   4.32624
    R2        4.40802   0.00052   0.00000   0.00630   0.00629   4.41431
    R3        4.42816   0.00127   0.00000   0.01122   0.01080   4.43896
    R4        4.50808  -0.00003   0.00000   0.00263   0.00263   4.51070
    R5        5.50669   0.00175   0.00000  -0.02307  -0.02297   5.48372
    R6        5.55969   0.00140   0.00000   0.01704   0.01738   5.57707
    R7        4.62423  -0.00119   0.00000  -0.01122  -0.01122   4.61301
    R8        4.43358  -0.00011   0.00000   0.01666   0.01683   4.45041
    R9        4.37859   0.00056   0.00000  -0.01260  -0.01251   4.36608
   R10        4.46154   0.00186   0.00000   0.02741   0.02737   4.48892
   R11        4.82442   0.00358   0.00000  -0.05733  -0.05713   4.76729
   R12        2.55564  -0.00009   0.00000  -0.00053  -0.00053   2.55511
   R13        4.67759  -0.00070   0.00000   0.01145   0.01145   4.68904
   R14        4.35769   0.00022   0.00000   0.01111   0.01114   4.36883
   R15        5.40188   0.00016   0.00000  -0.04741  -0.04743   5.35446
   R16        4.47609   0.00054   0.00000  -0.00257  -0.00257   4.47352
   R17        2.55081  -0.00007   0.00000  -0.00023  -0.00023   2.55058
   R18        4.34497   0.00048   0.00000  -0.01638  -0.01634   4.32863
   R19        4.38504   0.02131   0.00000   0.05938   0.05896   4.44400
   R20        4.40712   0.02070   0.00000   0.07149   0.07110   4.47822
   R21        2.55912  -0.00008   0.00000   0.00061   0.00061   2.55973
   R22        2.55156   0.00016   0.00000   0.00058   0.00058   2.55214
   R23        2.55547   0.00008   0.00000  -0.00040  -0.00040   2.55507
   R24        3.46444   0.01091   0.00000  -0.15710  -0.15669   3.30775
   R25        2.55848   0.00012   0.00000  -0.00031  -0.00031   2.55817
   R26        3.40879   0.01059   0.00000  -0.15885  -0.15844   3.25035
   R27        1.42965   0.04873   0.00000   0.09845   0.09904   1.52868
    A1        1.91385   0.00069   0.00000   0.00262   0.00259   1.91644
    A2        1.83337   0.00009   0.00000  -0.01916  -0.01915   1.81422
    A3        2.04304  -0.00030   0.00000  -0.00349  -0.00351   2.03952
    A4        1.75090  -0.00022   0.00000  -0.00846  -0.00851   1.74239
    A5        1.61528   0.00059   0.00000   0.01436   0.01441   1.62969
    A6        1.72331  -0.00043   0.00000   0.01074   0.01067   1.73398
    A7        2.27657  -0.00013   0.00000   0.00353   0.00356   2.28013
    A8        1.73535  -0.00014   0.00000  -0.00226  -0.00238   1.73296
    A9        1.43137   0.00013   0.00000  -0.00336  -0.00323   1.42813
   A10        1.48020  -0.00043   0.00000  -0.00179  -0.00185   1.47836
   A11        2.80711  -0.00068   0.00000   0.00191   0.00175   2.80886
   A12        2.26077   0.00007   0.00000   0.00495   0.00494   2.26571
   A13        2.12832   0.00001   0.00000  -0.00494  -0.00490   2.12342
   A14        1.40270   0.00005   0.00000  -0.00048  -0.00054   1.40216
   A15        2.31950  -0.00003   0.00000  -0.00324  -0.00312   2.31638
   A16        2.48883   0.00017   0.00000   0.01440   0.01445   2.50328
   A17        1.81557  -0.00047   0.00000  -0.00113  -0.00113   1.81445
   A18        2.33119   0.00008   0.00000   0.00842   0.00818   2.33938
   A19        1.80385   0.00026   0.00000   0.00914   0.00918   1.81303
   A20        2.23024  -0.00022   0.00000  -0.00969  -0.00984   2.22040
   A21        1.72220  -0.00060   0.00000   0.01137   0.01117   1.73337
   A22        1.43637   0.00028   0.00000   0.00394   0.00378   1.44015
   A23        1.95240   0.00063   0.00000   0.01008   0.01007   1.96247
   A24        1.78417   0.00018   0.00000   0.01970   0.01987   1.80404
   A25        2.20363  -0.00022   0.00000  -0.02428  -0.02436   2.17927
   A26        2.83486  -0.00042   0.00000   0.01532   0.01466   2.84952
   A27        1.85918   0.00073   0.00000  -0.00533  -0.00528   1.85390
   A28        1.49372  -0.00060   0.00000   0.00163   0.00198   1.49570
   A29        1.55558  -0.00030   0.00000  -0.01747  -0.01725   1.53832
   A30        2.43547  -0.00024   0.00000  -0.01131  -0.01137   2.42410
   A31        1.39418   0.00037   0.00000  -0.00226  -0.00199   1.39219
   A32        2.06043  -0.00023   0.00000   0.00972   0.00972   2.07015
   A33        2.15741  -0.00027   0.00000   0.00247   0.00241   2.15982
   A34        1.73181   0.00050   0.00000  -0.00341  -0.00341   1.72840
   A35        1.79217   0.00029   0.00000   0.00449   0.00444   1.79661
   A36        2.12438  -0.00268   0.00000   0.04484   0.04485   2.16923
   A37        2.41800  -0.00163   0.00000  -0.01187  -0.01155   2.40645
   A38        1.69615  -0.00022   0.00000  -0.00327  -0.00381   1.69234
   A39        1.75446   0.00045   0.00000  -0.00597  -0.00620   1.74825
   A40        1.95903   0.00074   0.00000  -0.00745  -0.00752   1.95150
   A41        2.28477  -0.00031   0.00000   0.03810   0.03736   2.32213
   A42        1.55469  -0.00143   0.00000  -0.00918  -0.00866   1.54603
   A43        1.75793   0.00014   0.00000   0.02565   0.02598   1.78391
   A44        1.40346  -0.00305   0.00000   0.01952   0.02054   1.42401
   A45        1.99301  -0.00252   0.00000   0.00252   0.00267   1.99568
   A46        2.41714  -0.00148   0.00000   0.00617   0.00606   2.42319
   A47        2.03132   0.00002   0.00000  -0.03579  -0.03584   1.99547
   A48        1.52121  -0.00122   0.00000  -0.00320  -0.00334   1.51786
   A49        1.51822   0.00540   0.00000  -0.02332  -0.02349   1.49473
   A50        1.80590  -0.00013   0.00000  -0.00239  -0.00239   1.80351
   A51        1.74406   0.00055   0.00000   0.00287   0.00287   1.74694
   A52        1.72464   0.00018   0.00000   0.01309   0.01330   1.73793
   A53        1.64338   0.00074   0.00000  -0.01258  -0.01337   1.63002
   A54        1.58916   0.00004   0.00000   0.00390   0.00394   1.59310
   A55        1.82268  -0.00013   0.00000  -0.00296  -0.00275   1.81992
   A56        1.63413   0.00060   0.00000  -0.01306  -0.01365   1.62048
   A57        1.51961  -0.00049   0.00000   0.01468   0.01483   1.53444
   A58        2.26671  -0.00308   0.00000   0.03350   0.03430   2.30101
   A59        2.34853  -0.00361   0.00000   0.01760   0.01831   2.36684
   A60        3.25084  -0.00165   0.00000  -0.01245  -0.01247   3.23837
   A61        2.94482   0.00171   0.00000  -0.01819  -0.01838   2.92644
    D1       -1.61290   0.00051   0.00000   0.00997   0.00999  -1.60291
    D2        1.90085  -0.00054   0.00000   0.00006   0.00001   1.90086
    D3        0.20673   0.00039   0.00000  -0.01259  -0.01254   0.19419
    D4        0.70887  -0.00030   0.00000  -0.00494  -0.00502   0.70385
    D5       -0.57262   0.00005   0.00000   0.00899   0.00903  -0.56360
    D6        3.13553  -0.00024   0.00000  -0.00679  -0.00676   3.12876
    D7       -1.76836  -0.00032   0.00000   0.00809   0.00790  -1.76046
    D8        0.00809  -0.00045   0.00000  -0.00416  -0.00416   0.00393
    D9        2.49890  -0.00081   0.00000   0.01513   0.01504   2.51394
   D10        2.09635   0.00046   0.00000   0.02059   0.02047   2.11682
   D11       -2.41039   0.00032   0.00000   0.00833   0.00842  -2.40197
   D12        0.08042  -0.00003   0.00000   0.02763   0.02762   0.10804
   D13        0.03543   0.00029   0.00000   0.01878   0.01864   0.05407
   D14        1.81187   0.00015   0.00000   0.00652   0.00659   1.81846
   D15       -1.98050  -0.00021   0.00000   0.02582   0.02579  -1.95471
   D16       -0.01493   0.00028   0.00000   0.01832   0.01845   0.00352
   D17       -2.32616   0.00228   0.00000   0.02698   0.02693  -2.29923
   D18        1.73484  -0.00200   0.00000   0.01350   0.01348   1.74832
   D19        2.62831  -0.00017   0.00000   0.01400   0.01413   2.64245
   D20        0.31708   0.00183   0.00000   0.02266   0.02262   0.33970
   D21       -1.90510  -0.00245   0.00000   0.00918   0.00916  -1.89593
   D22       -1.57096   0.00022   0.00000   0.02471   0.02496  -1.54600
   D23        2.40099   0.00222   0.00000   0.03337   0.03344   2.43444
   D24        0.17882  -0.00206   0.00000   0.01989   0.01999   0.19880
   D25       -1.46582  -0.00011   0.00000   0.00796   0.00801  -1.45781
   D26        2.90629  -0.00072   0.00000   0.00721   0.00732   2.91361
   D27        1.27194   0.00023   0.00000  -0.01593  -0.01611   1.25584
   D28        0.57655  -0.00052   0.00000   0.00202   0.00209   0.57864
   D29        2.95639  -0.00036   0.00000   0.00676   0.00683   2.96321
   D30       -1.71720  -0.00079   0.00000  -0.00124  -0.00135  -1.71854
   D31        1.34646  -0.00032   0.00000   0.01905   0.01932   1.36579
   D32       -3.12150   0.00022   0.00000  -0.06043  -0.06064   3.10104
   D33       -3.04319   0.00080   0.00000  -0.04581  -0.04612  -3.08931
   D34       -1.39526  -0.00033   0.00000   0.00596   0.00707  -1.38819
   D35        1.28167   0.00014   0.00000  -0.05839  -0.05867   1.22300
   D36        1.49763   0.00022   0.00000  -0.08005  -0.07998   1.41764
   D37       -0.79035   0.00036   0.00000  -0.07228  -0.07266  -0.86301
   D38        0.03107  -0.00008   0.00000  -0.00357  -0.00347   0.02760
   D39        2.55220  -0.00245   0.00000   0.04788   0.04778   2.59998
   D40       -1.72598   0.00222   0.00000   0.01536   0.01508  -1.71090
   D41        1.64462   0.00051   0.00000   0.02287   0.02242   1.66704
   D42       -2.11743  -0.00186   0.00000   0.07432   0.07367  -2.04376
   D43       -0.11243   0.00280   0.00000   0.04180   0.04097  -0.07146
   D44       -2.59624   0.00050   0.00000   0.00714   0.00725  -2.58899
   D45       -0.07510  -0.00187   0.00000   0.05859   0.05850  -0.01661
   D46        1.92990   0.00279   0.00000   0.02607   0.02580   1.95570
   D47       -0.75868   0.00010   0.00000   0.00022   0.00027  -0.75841
   D48       -1.90735   0.00054   0.00000   0.00986   0.00985  -1.89750
   D49       -0.20522  -0.00065   0.00000   0.02470   0.02444  -0.18079
   D50        3.10946  -0.00023   0.00000  -0.00356  -0.00337   3.10609
   D51        1.65153  -0.00015   0.00000   0.02026   0.02024   1.67177
   D52        0.59547  -0.00007   0.00000   0.01217   0.01221   0.60768
   D53       -0.86882  -0.00059   0.00000  -0.00522  -0.00584  -0.87467
   D54       -2.46953  -0.00076   0.00000  -0.00821  -0.00860  -2.47813
   D55        0.21360  -0.00238   0.00000   0.02880   0.03003   0.24363
   D56       -1.38711  -0.00255   0.00000   0.02581   0.02727  -1.35984
   D57       -1.37861   0.00050   0.00000   0.02204   0.02184  -1.35678
   D58       -2.97932   0.00033   0.00000   0.01905   0.01908  -2.96024
   D59       -2.07026   0.00105   0.00000  -0.01499  -0.01530  -2.08556
   D60        2.61222   0.00089   0.00000  -0.01798  -0.01806   2.59416
   D61       -3.07658   0.00181   0.00000  -0.01989  -0.01958  -3.09616
   D62        1.60590   0.00164   0.00000  -0.02288  -0.02234   1.58356
   D63        1.71742   0.00047   0.00000  -0.00794  -0.00835   1.70906
   D64        0.11671   0.00030   0.00000  -0.01094  -0.01111   0.10559
   D65        0.76328   0.00228   0.00000   0.03319   0.03324   0.79652
   D66        2.29746   0.00192   0.00000   0.04488   0.04496   2.34242
   D67        0.65313  -0.00001   0.00000   0.03992   0.03992   0.69305
   D68        2.18731  -0.00037   0.00000   0.05161   0.05164   2.23895
   D69        2.48427  -0.00141   0.00000   0.02181   0.02189   2.50616
   D70       -2.26474  -0.00177   0.00000   0.03350   0.03362  -2.23113
   D71        2.61358   0.00086   0.00000   0.03312   0.03307   2.64665
   D72       -2.13543   0.00050   0.00000   0.04481   0.04479  -2.09064
   D73       -1.63407   0.00054   0.00000  -0.00066  -0.00060  -1.63467
   D74       -0.09990   0.00018   0.00000   0.01103   0.01112  -0.08878
   D75       -0.16467   0.00070   0.00000   0.00964   0.00998  -0.15469
   D76       -1.89109   0.00050   0.00000  -0.00341  -0.00321  -1.89430
   D77        0.04265  -0.00031   0.00000  -0.00362  -0.00392   0.03873
   D78        1.86283  -0.00049   0.00000  -0.00535  -0.00555   1.85727
   D79        0.09298  -0.00021   0.00000  -0.00183  -0.00197   0.09101
         Item               Value     Threshold  Converged?
 Maximum Force            0.048727     0.000450     NO 
[...]
 .00088172,-0.00010611,0.00003938,-0.00019135,0.00013999,0.00002682,0.0
 0001711,0.00570511,-0.02126498,-0.01720682,0.00370560,0.00235667,-0.00
 036411,-0.00076931,-0.00016332,0.00045708,-0.02929681,0.02364079,0.023
 34142,-0.00429419,0.02441850,0.01320920,-0.02938316,-0.00555703,-0.034
 43092,-0.00152517,0.00008329,-0.00494303,-0.01468292,0.02520487,0.0097
 4492,-0.00036839,-0.00080807,-0.00230315,0.00059083,0.00085406,0.00001
 706,-0.02251186,-0.05308721,-0.00420219,-0.00323178,0.00079677,-0.0006
 4088,-0.00130945,0.00177143,0.00201768,-0.13774778,-0.00368651,0.01667
 348,0.25913690,0.00484293,-0.01163123,-0.00316958,0.00072811,-0.007312
 70,0.00853658,-0.00073214,-0.00275047,0.00281348,0.01789586,-0.0311535
 5,-0.02031429,0.00021244,-0.00093239,0.00090950,-0.00013705,0.00003935
 ,0.00009379,-0.02298315,-0.02526144,0.00269182,-0.00314388,-0.00091311
 ,-0.00002094,-0.00002054,0.00097966,0.00118736,-0.01610493,-0.01367046
 ,0.00174676,0.01552923,0.18667438,-0.00277131,0.02933389,0.01712698,-0
 .02755560,-0.01132743,-0.06814469,-0.00171872,0.00178978,0.00008058,0.
 01394663,-0.02120138,-0.02421237,0.00148372,-0.00127884,-0.00155200,-0
 .00018243,-0.00003075,0.00015209,0.00111047,0.00096362,-0.00511847,-0.
 00159266,0.00188990,0.00269785,0.00063833,-0.00048652,-0.00047153,0.02
 095693,-0.00167889,-0.01990123,-0.00890486,-0.01601223,0.19541185,0.00
 066193,-0.00105932,0.00037429,0.00006586,0.00009728,-0.00013814,-0.001
 02506,0.00192093,-0.00067248,-0.00637373,-0.00584816,-0.00947736,-0.00
 026324,0.00026269,0.00006048,-0.00014454,-0.00001547,-0.00012642,-0.03
 050367,-0.01048643,-0.01069353,-0.00483505,0.00197833,0.00479723,-0.00
 090597,0.00074367,0.00210580,0.00295897,-0.00408566,0.00149920,0.00116
 271,-0.00083483,-0.00106304,0.21454720,0.00219735,0.00105720,-0.000534
 71,-0.00002331,0.00008137,-0.00022979,-0.00175015,0.00602552,-0.003779
 89,-0.00368163,-0.00138986,-0.00536245,-0.00045630,0.00029538,0.000303
 80,-0.00023972,0.00004779,-0.00002567,-0.01772345,-0.03622108,-0.02796
 157,0.00173044,-0.00044527,-0.00070057,0.00104692,-0.00034423,-0.00074
 744,-0.00164016,-0.00079815,-0.00035684,0.00045700,-0.00113747,-0.0002
 6220,0.05195219,0.04785243,0.00081370,0.00165636,-0.00094277,0.0000445
 5,-0.00008469,0.00011850,-0.00243153,0.00163944,-0.00383068,-0.0000368
 8,-0.00172770,-0.00132298,-0.00060209,0.00042415,0.00048276,-0.0001804
 8,0.00005184,0.00003330,-0.03280888,-0.04065686,-0.07330868,0.00862263
 ,0.00277434,-0.00493091,0.00028608,-0.00114743,-0.00199250,0.00124575,
 -0.00688893,0.00086602,0.00310315,-0.00007781,-0.00001184,-0.08633313,
 0.02384968,0.16683879,-0.00019911,0.00052338,0.00036042,0.00001923,0.0
 0001890,0.00013456,0.00008431,0.00015344,-0.00040328,-0.00028575,-0.00
 104659,-0.00308925,-0.00014645,0.00011136,-0.00005857,-0.00003280,-0.0
 0001818,-0.00004595,0.00084552,-0.00087658,-0.00260571,-0.00014487,0.0
 0129146,0.00440396,0.00084301,-0.00086926,-0.00070913,-0.00036657,-0.0
 0039069,0.00049351,-0.00001055,-0.00002322,0.00012429,-0.17507383,-0.0
 3145950,0.10868982,0.17423691,-0.00069984,0.00050805,-0.00024020,0.000
 04415,-0.00021793,0.00010357,-0.00077414,-0.00015975,-0.00000470,-0.00
 034961,-0.00131710,-0.00055714,-0.00007645,0.00007763,0.00001401,0.000
 06584,0.00001745,-0.00001897,0.00452110,-0.00225446,-0.00559603,-0.001
 03954,0.00199686,0.00083176,-0.00045388,0.00036404,0.00007576,0.000517
 37,0.00009585,-0.00072204,0.00001465,0.00081977,0.00008465,-0.03429877
 ,-0.01555074,0.02029946,0.03244647,0.01593472,-0.00021036,0.00031787,-
 0.00038782,-0.00004256,0.00007289,-0.00006487,-0.00007046,-0.00004816,
 -0.00004704,-0.00214790,-0.00100661,0.00008415,-0.00010121,0.00008683,
 0.00001665,0.00001888,-0.00003941,-0.00002290,0.00953368,0.00049808,-0
 .00926651,0.00029034,-0.00149153,-0.00169955,0.00027494,-0.00025544,-0
 .00005736,-0.00056047,0.00019352,0.00051145,-0.00008626,0.00012082,0.0
 0015783,0.09989624,0.01597584,-0.08228062,-0.10727070,-0.01442541,0.09
 288588,-0.02376002,0.00970705,-0.00822610,-0.00002476,0.00212034,-0.00
 137903,-0.01432723,0.00339918,-0.01002535,-0.00052381,0.00014539,-0.00
 904332,0.00003533,-0.00104991,0.00756073,0.00006640,-0.00051136,0.0013
 3271,0.00238258,-0.00106725,0.00470311,-0.00061948,0.00038537,-0.00062
 146,-0.00008355,-0.00004595,0.00008043,-0.00011313,-0.00000890,-0.0007
 4857,0.00063688,0.00162844,-0.00021212,0.00015797,-0.00056986,-0.00017
 024,-0.00003849,0.00025826,0.00023986,0.28891689,0.00493424,-0.0261841
 2,0.02042167,0.00295682,-0.00628726,0.00714248,0.00105558,0.00177208,-
 0.00138236,0.00327499,0.00148192,0.00433258,-0.00391875,-0.00051221,0.
 00201912,0.00103667,0.00257765,-0.00030116,0.00167846,-0.00456846,0.00
 345242,-0.00001197,0.00030447,0.00000154,-0.00000211,-0.00015633,-0.00
 016900,0.00117843,0.00185508,-0.00008351,-0.00188996,-0.00044757,-0.00
 084752,-0.00016066,0.00022500,0.00024642,0.00002979,-0.00001929,-0.000
 05013,-0.00490074,0.03650032,-0.00106969,0.02168479,-0.05050397,0.0001
 8457,0.00419846,-0.00159472,-0.00937532,-0.00169934,-0.00112736,-0.002
 08627,0.00281806,-0.00364596,0.00714864,0.00289859,-0.01267301,-0.0003
 1691,0.00080348,-0.00088443,0.00280450,-0.00183872,0.00111157,-0.00072
 665,0.00012091,-0.00000415,-0.00006850,-0.00003552,0.00001990,-0.00007
 942,0.00010549,-0.00075478,-0.00296988,0.00549585,-0.00248592,-0.00020
 752,0.00012725,0.00004557,0.00000550,-0.00006400,0.00002763,-0.0245153
 2,-0.03943031,0.08956860,-0.00540857,0.00152862,-0.00298560,0.00014049
 ,0.00003407,0.00036144,0.00043717,0.00096065,-0.00119541,0.00033194,-0
 .00013564,0.00034019,-0.00002681,-0.00107798,0.00045188,0.00020994,0.0
 0019500,0.00091510,-0.00014377,0.00024312,-0.00015181,0.00003075,-0.00
 003476,0.00002995,0.00000715,0.00001458,-0.00000661,0.00010625,0.00010
 846,0.00006802,-0.00012278,-0.00032698,0.00016654,0.00000347,-0.000131
 65,-0.00006396,-0.00001603,0.00001826,-0.00000442,-0.25247301,-0.00503
 705,0.03130822,0.25691473,0.00781263,-0.00231201,0.00058450,0.00012854
 ,-0.00018199,-0.00016620,0.00013437,0.00111450,0.00003634,-0.00106385,
 -0.00083543,0.00268416,0.00066597,0.00117682,0.00003071,-0.00024660,-0
 .00090788,-0.00005997,-0.00225530,0.00255983,-0.00144358,0.00021234,-0
 .00017799,0.00002306,0.00002732,0.00008450,0.00005081,-0.00013310,-0.0
 0064551,0.00006522,0.00028258,-0.00075795,-0.00007286,0.00001634,-0.00
 024284,-0.00022261,-0.00001164,-0.00002653,0.00000459,-0.00932999,-0.0
 0573388,0.00487364,0.00369615,0.00662760,-0.01169302,0.00082979,0.0031
 5489,-0.00034241,-0.00061122,0.00008745,-0.00011459,0.00136652,-0.0003
 3310,-0.00056435,-0.00068606,-0.00118841,0.00030847,0.00060628,-0.0045
 8368,0.00081811,-0.00057495,0.00044198,-0.00034561,0.00196247,-0.00066
 201,0.00005902,-0.00005603,-0.00005774,-0.00000192,0.00002099,0.000044
 77,-0.00005156,-0.00038917,0.00011896,0.00064571,-0.00073089,-0.000366
 33,0.00012849,-0.00026978,-0.00011295,-0.00004067,0.00009364,0.0000536
 0,0.04047748,0.00472829,-0.01771821,-0.02918314,-0.00641546,0.02105206
 ,0.00135484,0.00230030,0.00257614,0.00516607,-0.00490947,0.00221111,-0
 .00076261,0.00012416,0.00000833,-0.00036202,0.00237702,-0.00038267,0.0
 0022914,-0.00019821,-0.00001494,-0.00001784,-0.00003121,0.00001835,0.0
 0205440,-0.00195723,0.00296359,0.00003163,0.00006116,-0.00032295,-0.00
 009916,-0.00004611,-0.00000704,0.00168474,0.00056615,0.00138868,-0.023
 18816,0.00163136,-0.00458417,-0.00050545,0.00025488,-0.00035900,0.0001
 9958,-0.00037184,0.00015310,-0.00011590,-0.00072974,-0.00033182,0.0000
 1036,0.00022886,0.00011403,0.27984783,0.00355707,-0.00301121,0.0006705
 6,0.00275177,-0.00105929,0.00002626,0.00065374,0.00003086,-0.00054209,
 0.00401505,-0.01421153,0.00767160,-0.00047900,0.00010843,-0.00014430,0
 .00013755,0.00002657,0.00016010,-0.00254786,0.00215003,-0.00108501,0.0
 0039482,-0.00019645,0.00005815,0.00006814,0.00019958,0.00016124,-0.000
 26539,-0.00068818,-0.00085679,-0.00717319,-0.01275699,0.02621971,0.000
 45318,0.00010208,0.00069389,0.00013442,0.00040791,-0.00017417,-0.00074
 803,0.00091165,0.00008660,-0.00003540,-0.00043155,-0.00061299,0.026810
 54,0.06280878,-0.00199450,-0.00001825,0.00004626,-0.00236057,0.0016884
 7,-0.00250746,0.00010094,0.00032375,-0.00000229,-0.00199931,0.00567755
 ,-0.00062226,-0.00015598,0.00005329,0.00013775,-0.00001413,-0.00000177
 ,0.00001738,0.00097203,-0.00101947,0.00031908,0.00015809,-0.00012143,-
 0.00022788,-0.00008729,0.00011348,0.00009884,0.00536307,0.00161301,0.0
 0179116,0.00215261,0.00938680,-0.06230032,-0.00016819,0.00009427,0.000
 25601,-0.00000496,0.00003381,0.00016335,0.00044856,-0.00041918,0.00024
 158,-0.00003067,-0.00002998,0.00007175,-0.00943736,-0.00768441,0.10203
 427,0.00221459,-0.00227576,-0.00314976,-0.00369694,0.00718186,-0.00261
 742,-0.00014058,-0.00082931,0.00026230,0.00462525,-0.00509367,-0.00018
 757,-0.00031911,0.00031386,0.00034313,-0.00011632,-0.00019534,0.000028
 90,0.00130235,0.00742552,-0.00134290,0.00023149,-0.00078414,0.00034383
 ,0.00017281,-0.00020176,-0.00026487,-0.00397239,-0.00887255,-0.0017227
 2,-0.02633865,0.00828763,0.00715567,-0.00006522,0.00010730,0.00021649,
 0.00015970,0.00007071,0.00009896,-0.00017264,0.00046620,0.00025586,0.0
 0000997,-0.00012050,-0.00017324,0.00395021,-0.00055348,0.00230837,0.27
 216401,0.00189726,-0.00388240,0.00259904,0.00660355,-0.01128192,0.0024
 7818,-0.00038722,0.00012057,-0.00001136,0.00198274,-0.00800420,0.00017
 757,-0.00033222,0.00034955,0.00012713,-0.00004128,-0.00001039,-0.00000
 385,0.00013481,-0.00262491,0.00076638,0.00019025,0.00047484,-0.0001914
 2,-0.00008607,-0.00003028,0.00004353,-0.00708230,-0.00481746,-0.001492
 27,0.01002354,-0.03103650,-0.02491633,0.00039811,0.00022952,0.00041882
 ,0.00010203,0.00013191,-0.00004800,-0.00037537,0.00053411,-0.00091138,
 0.00003579,-0.00015342,-0.00005792,0.00427479,-0.01592800,-0.01060008,
 0.05397467,0.09677847,-0.00348534,0.00255829,-0.00361720,-0.00225588,0
 .00816345,0.00199655,-0.00022249,0.00015496,0.00053234,-0.00326502,-0.
 00115686,0.00185112,0.00059593,-0.00027666,-0.00007584,0.00003302,0.00
 004720,-0.00009516,0.00250329,-0.00312196,-0.00038461,-0.00056510,0.00
 012449,0.00004807,-0.00003996,-0.00027691,-0.00022482,-0.00346788,-0.0
 0079653,0.00008761,0.00781032,-0.01360268,-0.02239844,-0.00062463,-0.0
 0012558,-0.00027324,-0.00003533,-0.00026780,0.00008188,0.00051058,-0.0
 0058607,0.00055398,-0.00003439,0.00038632,0.00033411,0.00243047,0.0166
 2391,-0.01206252,0.02448187,0.03056013,0.07880518,0.00009926,-0.000485
 23,-0.00006582,-0.00029173,0.00052571,-0.00035905,0.00006528,-0.000048
 42,0.00006917,0.00060532,0.00046034,0.00001399,-0.00008267,0.00000271,
 0.00001170,0.00002864,0.00003311,0.00003363,-0.00027940,0.00054455,0.0
 0000552,0.00007844,0.00010988,0.00002059,0.00000708,-0.00001742,-0.000
 01420,0.00023597,-0.00049954,0.00039571,-0.00196466,-0.00153014,0.0015
 2512,0.00003220,-0.00003725,0.00000899,-0.00001986,0.00006068,-0.00000
 004,-0.00004476,0.00009929,-0.00004125,-0.00000361,-0.00003519,-0.0000
 4855,-0.25738271,-0.02444620,0.00542347,0.00008199,-0.00015021,-0.0001
 6178,0.25933954,0.00086720,0.00163488,0.00110411,0.00095077,-0.0018999
 0,-0.00004732,-0.00003716,0.00020349,-0.00015713,-0.00138846,-0.000398
 51,-0.00042430,0.00002205,-0.00002319,0.00011452,-0.00003661,-0.000047
 05,-0.00006317,-0.00029509,-0.00098912,-0.00045095,0.00005158,-0.00000
 732,-0.00000367,0.00000608,-0.00002011,-0.00003924,0.00091922,0.000237
 91,0.00037691,-0.00466927,0.00196701,0.00079381,0.00020164,0.00003939,
 0.00009465,-0.00013420,-0.00005061,-0.00007673,-0.00006107,-0.00073157
 ,-0.00012008,-0.00001611,0.00024242,0.00015433,-0.02871633,-0.01633379
 ,0.00179463,-0.00124740,-0.00103641,-0.00044752,0.02527426,0.01530260,
 -0.00058238,-0.00088375,-0.00033246,-0.00173934,0.00090686,-0.00057683
 ,0.00024183,0.00000079,0.00000911,0.00000152,-0.00005380,-0.00018102,-
 0.00010495,0.00005113,0.00001298,-0.00000328,0.00003603,-0.00001047,-0
 .00027585,-0.00043823,0.00005601,-0.00003335,0.00006485,-0.00004109,-0
 .00000644,-0.00001323,-0.00000010,-0.00097339,-0.00022592,0.00000752,0
 .01083385,0.00091661,-0.00044366,0.00009923,-0.00000225,-0.00000643,-0
 .00004557,0.00003209,-0.00005133,0.00004894,0.00005201,0.00000552,0.00
 000799,0.00000215,0.00003654,-0.00297601,0.00256436,-0.00611244,-0.000
 65870,0.00006497,-0.00153236,-0.00663255,-0.00237352,0.00963900,0.0008
 8303,-0.00071463,0.00067686,0.00032488,-0.00073742,-0.00010464,0.00004
 611,-0.00000600,-0.00011438,0.00059474,-0.00041545,0.00042071,-0.00010
 119,0.00006302,-0.00000569,0.00001319,-0.00001269,0.00001011,-0.000760
 89,0.00064686,-0.00043366,0.00001785,-0.00003648,0.00004176,0.00002466
 ,0.00002485,0.00001738,-0.00001178,-0.00012149,-0.00028084,0.00115253,
 0.00392247,0.00058322,0.00025305,-0.00001619,0.00029172,-0.00003354,0.
 00015631,-0.00005463,-0.00009698,0.00020721,-0.00007026,-0.00000049,-0
 .00010061,-0.00008859,-0.01375607,-0.01423269,-0.00433559,0.00027738,-
 0.00793648,0.01406749,-0.00088599,0.00858933,0.00291189,0.03128469,-0.
 00545207,0.00555081,-0.00365433,-0.00069419,0.00356631,0.00246707,-0.0
 0051011,0.00025176,0.00047672,-0.00278359,0.00399973,-0.00258937,0.000
 93917,-0.00043449,-0.00004726,-0.00002563,0.00011476,-0.00006047,0.003
 10765,-0.00321070,0.00084883,-0.00027615,-0.00007573,0.00008051,-0.000
 05181,-0.00004702,-0.00007081,-0.00102153,0.00144811,0.00080567,0.0055
 2943,-0.03076867,0.01598776,-0.00110315,0.00008633,-0.00134683,0.00003
 049,-0.00068009,0.00033667,0.00085803,-0.00108473,0.00044409,-0.000002
 82,0.00050862,0.00057242,-0.00191280,0.01629345,0.00182882,0.00434688,
 0.01648939,-0.03539659,0.00007534,0.00045711,-0.00121216,0.00271912,0.
 00413369,-0.00338723,0.00403224,-0.00374359,-0.00133575,0.00311119,0.0
 0138671,-0.00027472,0.00008063,0.00034612,-0.00138388,0.00212540,-0.00
 204255,0.00058957,-0.00029297,0.00001313,-0.00004172,0.00005222,-0.000
 03824,0.00183976,-0.00176425,0.00059685,-0.00017342,-0.00001089,0.0000
 4827,-0.00003033,-0.00003528,-0.00004776,-0.00079138,0.00057133,0.0005
 6433,0.00444932,-0.01340375,0.00112307,-0.00063291,0.00000622,-0.00080
 366,0.00003167,-0.00038172,0.00020195,0.00055728,-0.00071803,0.0005713
 1,-0.00003166,0.00034665,0.00032560,-0.00143305,0.02207527,-0.00142248
 ,0.00865721,0.03076691,-0.05269385,-0.00033285,0.00021023,-0.00126922,
 -0.01169767,-0.00958121,0.07810540,-0.00001554,-0.00017344,0.00012845,
 0.00035016,0.00048371,0.00011410,0.00011443,0.00003197,0.00004100,-0.0
 0027666,0.00068190,-0.00002984,0.00001306,0.00000685,0.00003649,0.0000
 0204,-0.00000685,0.00000176,0.00001596,-0.00028713,0.00019726,0.000037
 54,0.00010556,-0.00001023,0.00000523,0.00000222,0.00000657,0.00100189,
 -0.00001856,-0.00032964,0.00126904,-0.00283982,-0.00038926,-0.00001270
 ,-0.00001510,-0.00005189,-0.00000959,0.00001459,-0.00000544,-0.0000406
 3,0.00002999,-0.00002183,0.00000620,-0.00002964,-0.00003807,-0.0003190
 2,0.00008930,0.00031932,-0.23727181,-0.06260397,-0.03624462,-0.0000082
 2,0.00019380,0.00012079,0.00056904,0.00000606,-0.00022916,0.23477624,0
 .00113904,0.00004338,-0.00147177,-0.00047049,0.00070527,0.00060581,0.0
 0000924,-0.00008774,0.00008149,0.00114898,-0.00240323,0.00038766,-0.00
 015966,0.00007131,0.00013787,-0.00004243,-0.00003921,-0.00002204,0.000
 66731,0.00180047,-0.00148452,-0.00014485,-0.00011391,0.00013170,0.0000
 2972,-0.00008861,-0.00008434,0.00059633,-0.00067003,-0.00040187,-0.012
 14793,-0.00505544,-0.00167190,0.00008762,0.00001824,0.00020340,0.00000
 090,0.00003891,-0.00006154,0.00005169,-0.00003131,0.00020029,-0.000018
 30,0.00000531,0.00001927,-0.00001641,-0.00111378,0.00001050,-0.0592104
 1,-0.02922225,-0.00528794,0.00007082,0.00015591,-0.00007211,0.00025356
 ,0.00042022,-0.00043842,0.06394240,0.03465207,-0.00031791,-0.00208266,
 0.00025630,0.00008457,-0.00013355,-0.00036263,0.00010160,0.00004603,-0
 .00010657,0.00179077,0.00104696,-0.00004116,0.00001233,0.00006363,0.00
 004615,0.00000666,-0.00000457,0.00003865,0.00043828,0.00074868,0.00191
 961,0.00018183,-0.00000271,-0.00014259,-0.00002466,0.00010550,0.000092
 11,-0.00002421,-0.00013083,0.00064279,-0.00522870,0.00006529,-0.001392
 64,0.00011936,0.00008257,-0.00024591,0.00004132,-0.00000745,0.00006544
 ,-0.00000631,0.00018096,-0.00009565,0.00001646,-0.00006158,-0.00003775
 ,0.00143582,-0.00125666,-0.00125687,-0.02482612,-0.00738505,-0.0147212
 8,0.00005506,-0.00099694,-0.00071820,-0.00136362,0.00216179,0.00416051
 ,0.03606995,0.00826986,0.01972661,-0.00128088,0.00162910,-0.00096680,0
 .00008305,0.00076007,0.00098506,-0.00006875,0.00010153,0.00004824,-0.0
 0051360,0.00098500,-0.00058730,0.00019415,-0.00011386,-0.00002035,-0.0
 0000308,0.00004325,-0.00001061,0.00040579,-0.00050297,0.00033485,-0.00
 004409,-0.00004586,-0.00000446,-0.00000918,0.00000125,-0.00000743,-0.0
 0025862,0.00037696,0.00019657,0.00273060,-0.00600177,0.00128323,-0.000
 13489,-0.00000180,-0.00028481,-0.00001082,-0.00012431,0.00004846,0.000
 23833,-0.00029669,0.00017334,-0.00001335,0.00012132,0.00013441,0.00198
 013,0.01141565,0.00334208,-0.01309608,-0.00062242,-0.00203053,0.000389
 88,-0.00047420,-0.00023424,-0.01979424,-0.00377830,0.00565089,-0.00020
 664,0.00421286,-0.00856248,0.02941229,-0.00111878,0.00182600,-0.001083
 75,-0.00044559,0.00115179,-0.00009076,0.00015655,0.00002952,-0.0000855
 8,-0.00075111,-0.00048210,-0.00103160,0.00011857,-0.00006904,-0.000055
 59,-0.00000840,0.00001484,-0.00001308,0.00047613,-0.00065041,-0.000744
 32,-0.00010385,-0.00005155,0.00014802,0.00003028,-0.00002104,-0.000045
 35,-0.00018348,0.00053409,0.00027858,0.00405382,-0.01489424,0.00272371
 ,-0.00021951,0.00006939,-0.00019958,-0.00001277,-0.00011659,0.00007003
 ,0.00011466,-0.00040555,0.00024184,-0.00001800,0.00008738,0.00005046,0
 .00026013,-0.01730858,-0.00272380,-0.00279031,-0.00708022,0.00272436,-
 0.00000708,0.00129684,0.00058313,0.00774743,-0.01701888,-0.03675178,0.
 00038614,0.00091440,-0.00070929,-0.00768482,0.05217394,0.00616892,-0.0
 0691027,0.00447356,0.00075343,-0.00468466,-0.00310051,0.00049599,-0.00
 017265,-0.00054761,0.00347458,-0.00469781,0.00286086,-0.00089934,0.000
 49388,0.00007176,0.00003067,-0.00013937,0.00007406,-0.00335545,0.00307
 700,-0.00094322,0.00027551,0.00014243,-0.00012941,0.00002762,0.0000722
 1,0.00011408,0.00209659,-0.00110678,-0.00108488,-0.00694743,0.03336750
 ,-0.00795080,0.00105701,-0.00008088,0.00142222,0.00002407,0.00071671,-
 0.00037183,-0.00101186,0.00140977,-0.00065751,0.00002187,-0.00061589,-
 0.00066153,0.00654937,-0.06465524,-0.01866290,-0.00920928,-0.02238498,
 0.02378848,0.00009313,0.00055739,0.00150893,-0.00047158,0.02794868,-0.
 02538188,0.00031429,0.00094859,-0.00782694,0.00051187,0.03671435,0.033
 00506\\0.00001766,0.00001247,-0.00001344,0.00000220,-0.00001744,-0.000
 01286,-0.00000009,0.00000362,-0.00000900,0.00000441,-0.00002208,0.0000
 3503,-0.00000405,-0.00000158,0.00000159,-0.00000003,0.00000101,0.00000
 036,0.00000777,0.00001253,-0.00001031,0.00000165,-0.00000193,-0.000000
 22,-0.00000161,0.00000136,0.00000369,0.00000771,0.00001001,0.00000149,
 -0.00002404,0.00002923,0.00000347,-0.00000070,0.00000204,-0.00000106,0
 .00000083,-0.00000369,-0.00000101,-0.00000181,-0.00000173,-0.00000376,
 0.00000024,0.00000501,0.00000140,-0.00000836,-0.00002067,0.00000990,-0
 .00001001,-0.00002202,0.00000174,-0.00000042,-0.00000420,-0.00000451,0
 .00003897,-0.00004391,-0.00013143,-0.00000077,0.00000284,-0.00000056,-
 0.00002954,0.00005912,0.00012949\\\@
 The archive entry for this job was punched.


 WE SHOULD BE CAREFUL TO GET OUT OF AN EXPERIENCE ONLY THE WISDOM
 THAT IS IN IT -- AND STOP THERE;
 LEST WE BE LIKE THE CAT THAT SITS DOWN ON A HOT STOVE-LID.
 SHE WILL NEVER SIT DOWN ON A HOT STOVE LID AGAIN;
 BUT ALSO SHE WILL NEVER SIT DOWN ON A COLD ONE ANY MORE.

                                                     -- MARK TWAIN
 Job cpu time:       0 days  0 hours 51 minutes 46.9 seconds.
 Elapsed time:       0 days  0 hours  1 minutes  5.9 seconds.
 File lengths (MBytes):  RWF=    331 Int=      0 D2E=      0 Chk=      9 Scr=      2
 Normal termination of Gaussian 16 at Sat Mar 19 12:05:49 2022.
