 Entering Gaussian System, Link 0=g16
 Initial command:
 /home/chesagar/softwares/G16_AVX2//g16/l1.exe "/home/chesagar/scratch/Gau-40229.inp" -scrdir="/home/chesagar/scratch/"
 Entering Link 1 = /home/chesagar/softwares/G16_AVX2//g16/l1.exe PID=     40230.
  
 Copyright (c) 1988-2019, Gaussian, Inc.  All Rights Reserved.
  
 This is part of the Gaussian(R) 16 program.  It is based on
 the Gaussian(R) 09 system (copyright 2009, Gaussian, Inc.),
 the Gaussian(R) 03 system (copyright 2003, Gaussian, Inc.),
 the Gaussian(R) 98 system (copyright 1998, Gaussian, Inc.),
 the Gaussian(R) 94 system (copyright 1995, Gaussian, Inc.),
 the Gaussian 92(TM) system (copyright 1992, Gaussian, Inc.),
 the Gaussian 90(TM) system (copyright 1990, Gaussian, Inc.),
 the Gaussian 88(TM) system (copyright 1988, Gaussian, Inc.),
 the Gaussian 86(TM) system (copyright 1986, Carnegie Mellon
 University), and the Gaussian 82(TM) system (copyright 1983,
 Carnegie Mellon University). Gaussian is a federally registered
 trademark of Gaussian, Inc.
  
 This software contains proprietary and confidential information,
 including trade secrets, belonging to Gaussian, Inc.
  
 This software is provided under written license and may be
 used, copied, transmitted, or stored only in accord with that
 written license.
  
 The following legend is applicable only to US Government
 contracts under FAR:
  
                    RESTRICTED RIGHTS LEGEND
  
 Use, reproduction and disclosure by the US Government is
 subject to restrictions as set forth in subparagraphs (a)
 and (c) of the Commercial Computer Software - Restricted
 Rights clause in FAR 52.227-19.
  
 Gaussian, Inc.
 340 Quinnipiac St., Bldg. 40, Wallingford CT 06492
  
  
 ---------------------------------------------------------------
 Warning -- This program may not be used in any manner that
 competes with the business of Gaussian, Inc. or will provide
 assistance to any competitor of Gaussian, Inc.  The licensee
 of this program is prohibited from giving any competitor of
 Gaussian, Inc. access to this program.  By using this program,
 the user acknowledges that Gaussian, Inc. is engaged in the
 business of creating and licensing software in the field of
 computational chemistry and represents and warrants to the
 licensee that it is not a competitor of Gaussian, Inc. and that
 it will not use this program in any manner prohibited above.
 ---------------------------------------------------------------
  

 Cite this work as:
 Gaussian 16, Revision C.01,
 M. J. Frisch, G. W. Trucks, H. B. Schlegel, G. E. Scuseria, 
 M. A. Robb, J. R. Cheeseman, G. Scalmani, V. Barone, 
 G. A. Petersson, H. Nakatsuji, X. Li, M. Caricato, A. V. Marenich, 
 J. Bloino, B. G. Janesko, R. Gomperts, B. Mennucci, H. P. Hratchian, 
 J. V. Ortiz, A. F. Izmaylov, J. L. Sonnenberg, D. Williams-Young, 
 F. Ding, F. Lipparini, F. Egidi, J. Goings, B. Peng, A. Petrone, 
 T. Henderson, D. Ranasinghe, V. G. Zakrzewski, J. Gao, N. Rega, 
 G. Zheng, W. Liang, M. Hada, M. Ehara, K. Toyota, R. Fukuda, 
 J. Hasegawa, M. Ishida, T. Nakajima, Y. Honda, O. Kitao, H. Nakai, 
 T. Vreven, K. Throssell, J. A. Montgomery, Jr., J. E. Peralta, 
 F. Ogliaro, M. J. Bearpark, J. J. Heyd, E. N. Brothers, K. N. Kudin, 
 V. N. Staroverov, T. A. Keith, R. Kobayashi, J. Normand, 
 K. Raghavachari, A. P. Rendell, J. C. Burant, S. S. Iyengar, 
 J. Tomasi, M. Cossi, J. M. Millam, M. Klene, C. Adamo, R. Cammi, 
 J. W. Ochterski, R. L. Martin, K. Morokuma, O. Farkas, 
 J. B. Foresman, and D. J. Fox, Gaussian, Inc., Wallingford CT, 2019.
 
 ******************************************
 Gaussian 16:  ES64L-G16RevC.01  3-Jul-2019
                 3-May-2022 
 ******************************************
 %nprocshared=48
 Will use up to   48 processors via shared memory.
 %mem=32GB
 -----------------------------------------------------------
 # opt=(calcfc,ts,noeigen) freq b3lyp/gen nosymm pseudo=read
 -----------------------------------------------------------
 1/5=1,10=4,11=1,18=20,26=3,38=1/1,3;
 2/9=110,12=2,15=1,17=6,18=5,40=1/2;
 3/5=7,11=2,16=1,17=8,25=1,30=1,71=2,74=-5,140=1/1,2,3;
 4//1;
 5/5=2,38=5/2;
 8/6=4,10=90,11=11/1;
 11/6=1,8=1,9=11,15=111,16=1,31=1/1,2,10;
 10/6=1,13=1,31=1/2;
 6/7=2,8=2,9=2,10=2,28=1/1;
 7/10=1,25=1,30=1/1,2,3,16;
 1/5=1,10=4,11=1,18=20,26=3/3(2);
 2/9=110,15=1/2;
 99//99;
 2/9=110,15=1/2;
 3/5=7,6=1,11=2,16=1,17=8,25=1,30=1,71=1,74=-5,82=7/1,2,3;
 4/5=5,16=3,69=1/1;
 5/5=2,38=5/2;
 7/30=1/1,2,3,16;
 1/5=1,11=1,18=20,26=3/3(-5);
 2/9=110,15=1/2;
 6/7=2,8=2,9=2,10=2,19=2,28=1/1;
 99/9=1/99;
 -------------------
 Title Card Required
 -------------------
 Symbolic Z-matrix:
 Charge =  0 Multiplicity = 1
 42                    0.15792   0.7752    9.80222 
 16                    0.40466   2.85209   10.98783 
 16                   -2.10538   0.83478   10.78604 
 16                   -0.05776   1.25538   7.50818 
 16                    0.44229  -1.54068   8.79323 
 1                     0.58037  -2.97965   9.3816 
 42                   -2.21901   1.47474   8.54406 
 16                   -4.32093   2.37468   7.67231 
 1                    -4.46175   1.62346   6.55798 
 16                   -2.2524    3.74675   9.64564 
 42                   -0.14419   3.37672   8.54462 
 16                   -2.75692  -0.66574   7.30849 
 1                    -1.69548  -0.91441   6.50995 
 16                    2.67969   1.09529   9.43442 
 1                     3.09362   0.71579   10.6612 
 16                   -0.77518   3.86421   6.03609 
 16                    2.03177   4.32485   7.61087 
 1                    -0.07804   5.00338   5.84367 
 42                   -1.74478  -1.18615   9.56867 
 6                    -1.33349  -1.81974   11.45633 
 8                    -1.13349  -2.22038   12.52114 
 42                   -2.6764    4.64229   7.43337 
 6                    -1.78216   6.40277   7.51613 
 6                    -4.21806   5.62196   8.35509 
 6                    -3.7598    4.97173   5.72045 
 8                    -1.26003   7.43695   7.5682 
 8                    -5.04405   6.2437    8.8613 
 8                    -4.37957   5.10271   4.76058 
 1                     2.41751   3.27465   6.84636 
 42                    2.41087   3.73641   9.96527 
 6                     2.12061   5.67993   10.34812 
 6                     3.06379   3.6714    11.90257 
 6                     4.42173   3.83855   9.51032 
 8                     1.96554   6.80076   10.59396 
 8                     5.53937   3.82679   9.24396 
 8                     3.43945   3.68542   12.99137 
 16                   -1.71166  -3.77014   9.23706 
 1                    -1.87102  -4.25342   10.48656 
 1                    -0.15163  -3.60822   9.38604 
 

 GradGradGradGradGradGradGradGradGradGradGradGradGradGradGradGradGradGrad
 Berny optimization.
 Initialization pass.
                           ----------------------------
                           !    Initial Parameters    !
                           ! (Angstroms and Degrees)  !
 --------------------------                            --------------------------
 ! Name  Definition              Value          Derivative Info.                !
 --------------------------------------------------------------------------------
 ! R1    R(1,2)                  2.4042         calculate D2E/DX2 analytically  !
 ! R2    R(1,3)                  2.4686         calculate D2E/DX2 analytically  !
 ! R3    R(1,4)                  2.3537         calculate D2E/DX2 analytically  !
 ! R4    R(1,5)                  2.5421         calculate D2E/DX2 analytically  !
 ! R5    R(1,7)                  2.7789         calculate D2E/DX2 analytically  !
 ! R6    R(1,11)                 2.9053         calculate D2E/DX2 analytically  !
 ! R7    R(1,14)                 2.5685         calculate D2E/DX2 analytically  !
 ! R8    R(1,19)                 2.7426         calculate D2E/DX2 analytically  !
 ! R9    R(2,11)                 2.5585         calculate D2E/DX2 analytically  !
 ! R10   R(2,30)                 2.4192         calculate D2E/DX2 analytically  !
 ! R11   R(3,7)                  2.3343         calculate D2E/DX2 analytically  !
 ! R12   R(3,19)                 2.3867         calculate D2E/DX2 analytically  !
 ! R13   R(4,7)                  2.4067         calculate D2E/DX2 analytically  !
 ! R14   R(4,11)                 2.3626         calculate D2E/DX2 analytically  !
 ! R15   R(5,6)                  1.5607         calculate D2E/DX2 analytically  !
 ! R16   R(5,19)                 2.3474         calculate D2E/DX2 analytically  !
 ! R17   R(7,8)                  2.447          calculate D2E/DX2 analytically  !
 ! R18   R(7,10)                 2.5252         calculate D2E/DX2 analytically  !
 ! R19   R(7,11)                 2.8147         calculate D2E/DX2 analytically  !
 ! R20   R(7,12)                 2.5294         calculate D2E/DX2 analytically  !
 ! R21   R(7,19)                 2.8905         calculate D2E/DX2 analytically  !
 ! R22   R(8,9)                  1.3513         calculate D2E/DX2 analytically  !
 ! R23   R(10,11)                2.407          calculate D2E/DX2 analytically  !
 ! R24   R(10,22)                2.424          calculate D2E/DX2 analytically  !
 ! R25   R(11,16)                2.6322         calculate D2E/DX2 analytically  !
 ! R26   R(11,17)                2.5506         calculate D2E/DX2 analytically  !
 ! R27   R(11,22)                3.0411         calculate D2E/DX2 analytically  !
 ! R28   R(11,30)                2.9455         calculate D2E/DX2 analytically  !
 ! R29   R(12,13)                1.3513         calculate D2E/DX2 analytically  !
 ! R30   R(12,19)                2.5305         calculate D2E/DX2 analytically  !
 ! R31   R(14,15)                1.3492         calculate D2E/DX2 analytically  !
 ! R32   R(14,30)                2.7073         calculate D2E/DX2 analytically  !
 ! R33   R(16,18)                1.3493         calculate D2E/DX2 analytically  !
 ! R34   R(16,22)                2.4844         calculate D2E/DX2 analytically  !
 ! R35   R(17,29)                1.3551         calculate D2E/DX2 analytically  !
 ! R36   R(17,30)                2.4563         calculate D2E/DX2 analytically  !
 ! R37   R(19,20)                2.0332         calculate D2E/DX2 analytically  !
 ! R38   R(19,37)                2.6054         calculate D2E/DX2 analytically  !
 ! R39   R(20,21)                1.1551         calculate D2E/DX2 analytically  !
 ! R40   R(22,23)                1.9763         calculate D2E/DX2 analytically  !
 ! R41   R(22,24)                2.046          calculate D2E/DX2 analytically  !
 ! R42   R(22,25)                2.0534         calculate D2E/DX2 analytically  !
 ! R43   R(23,26)                1.1597         calculate D2E/DX2 analytically  !
 ! R44   R(24,27)                1.1511         calculate D2E/DX2 analytically  !
 ! R45   R(25,28)                1.1501         calculate D2E/DX2 analytically  !
 ! R46   R(30,31)                2.002          calculate D2E/DX2 analytically  !
 ! R47   R(30,32)                2.0454         calculate D2E/DX2 analytically  !
 ! R48   R(30,33)                2.0642         calculate D2E/DX2 analytically  !
 ! R49   R(31,34)                1.1579         calculate D2E/DX2 analytically  !
 ! R50   R(32,36)                1.1519         calculate D2E/DX2 analytically  !
 ! R51   R(33,35)                1.149          calculate D2E/DX2 analytically  !
 ! R52   R(37,38)                1.3492         calculate D2E/DX2 analytically  !
 ! R53   R(37,39)                1.5755         calculate D2E/DX2 analytically  !
 ! A1    A(2,1,3)               82.9179         calculate D2E/DX2 analytically  !
 ! A2    A(2,1,4)              108.2893         calculate D2E/DX2 analytically  !
 ! A3    A(2,1,7)               95.3704         calculate D2E/DX2 analytically  !
 ! A4    A(2,1,14)              82.0791         calculate D2E/DX2 analytically  !
 ! A5    A(2,1,19)             136.9698         calculate D2E/DX2 analytically  !
 ! A6    A(3,1,4)              107.4274         calculate D2E/DX2 analytically  !
 ! A7    A(3,1,5)              106.4234         calculate D2E/DX2 analytically  !
 ! A8    A(3,1,11)              93.1849         calculate D2E/DX2 analytically  !
 ! A9    A(3,1,14)             162.5973         calculate D2E/DX2 analytically  !
 ! A10   A(4,1,5)               79.0037         calculate D2E/DX2 analytically  !
 ! A11   A(4,1,14)              85.6973         calculate D2E/DX2 analytically  !
 ! A12   A(4,1,19)              89.9614         calculate D2E/DX2 analytically  !
 ! A13   A(5,1,7)               98.3554         calculate D2E/DX2 analytically  !
 ! A14   A(5,1,11)             130.9638         calculate D2E/DX2 analytically  !
 ! A15   A(5,1,14)              86.9543         calculate D2E/DX2 analytically  !
 ! A16   A(7,1,14)             138.0387         calculate D2E/DX2 analytically  !
 ! A17   A(11,1,14)             85.9008         calculate D2E/DX2 analytically  !
 ! A18   A(11,1,19)            122.098          calculate D2E/DX2 analytically  !
 ! A19   A(14,1,19)            139.2952         calculate D2E/DX2 analytically  !
 ! A20   A(1,2,30)             101.0957         calculate D2E/DX2 analytically  !
 ! A21   A(1,5,6)              134.4439         calculate D2E/DX2 analytically  !
 ! A22   A(6,5,19)              95.5749         calculate D2E/DX2 analytically  !
 ! A23   A(1,7,10)              92.3095         calculate D2E/DX2 analytically  !
 ! A24   A(1,7,12)             100.9552         calculate D2E/DX2 analytically  !
 ! A25   A(3,7,4)              110.1629         calculate D2E/DX2 analytically  !
 ! A26   A(3,7,8)              118.9993         calculate D2E/DX2 analytically  !
 ! A27   A(3,7,10)              80.1149         calculate D2E/DX2 analytically  !
 ! A28   A(3,7,11)              98.5796         calculate D2E/DX2 analytically  !
 ! A29   A(3,7,12)             104.3307         calculate D2E/DX2 analytically  !
 ! A30   A(4,7,8)              130.6592         calculate D2E/DX2 analytically  !
 ! A31   A(4,7,10)             106.3584         calculate D2E/DX2 analytically  !
 ! A32   A(4,7,12)              84.4677         calculate D2E/DX2 analytically  !
 ! A33   A(4,7,19)              85.4881         calculate D2E/DX2 analytically  !
 ! A34   A(8,7,10)              79.2313         calculate D2E/DX2 analytically  !
 ! A35   A(8,7,11)             112.6277         calculate D2E/DX2 analytically  !
 ! A36   A(8,7,12)              87.3936         calculate D2E/DX2 analytically  !
 ! A37   A(8,7,19)             127.2835         calculate D2E/DX2 analytically  !
 ! A38   A(10,7,19)            132.516          calculate D2E/DX2 analytically  !
 ! A39   A(11,7,12)            136.7784         calculate D2E/DX2 analytically  !
 ! A40   A(11,7,19)            120.0694         calculate D2E/DX2 analytically  !
 ! A41   A(7,8,9)              100.3025         calculate D2E/DX2 analytically  !
 ! A42   A(7,10,22)             86.3641         calculate D2E/DX2 analytically  !
 ! A43   A(1,11,10)             91.7611         calculate D2E/DX2 analytically  !
 ! A44   A(1,11,16)            127.1061         calculate D2E/DX2 analytically  !
 ! A45   A(1,11,17)            113.7416         calculate D2E/DX2 analytically  !
 ! A46   A(1,11,22)            128.1258         calculate D2E/DX2 analytically  !
 ! A47   A(1,11,30)             79.0685         calculate D2E/DX2 analytically  !
 ! A48   A(2,11,4)             103.1179         calculate D2E/DX2 analytically  !
 ! A49   A(2,11,7)              91.1321         calculate D2E/DX2 analytically  !
 ! A50   A(2,11,10)             77.4437         calculate D2E/DX2 analytically  !
 ! A51   A(2,11,17)            104.0524         calculate D2E/DX2 analytically  !
 ! A52   A(2,11,22)            127.7994         calculate D2E/DX2 analytically  !
 ! A53   A(4,11,10)            111.7614         calculate D2E/DX2 analytically  !
 ! A54   A(4,11,16)             75.9355         calculate D2E/DX2 analytically  !
 ! A55   A(4,11,17)             98.1613         calculate D2E/DX2 analytically  !
 ! A56   A(4,11,22)            104.1121         calculate D2E/DX2 analytically  !
 ! A57   A(4,11,30)            106.8277         calculate D2E/DX2 analytically  !
 ! A58   A(7,11,16)             87.0338         calculate D2E/DX2 analytically  !
 ! A59   A(7,11,17)            151.64           calculate D2E/DX2 analytically  !
 ! A60   A(7,11,22)             70.5705         calculate D2E/DX2 analytically  !
 ! A61   A(7,11,30)            136.2235         calculate D2E/DX2 analytically  !
 ! A62   A(10,11,16)           101.3908         calculate D2E/DX2 analytically  !
 ! A63   A(10,11,17)           149.0391         calculate D2E/DX2 analytically  !
 ! A64   A(10,11,30)           121.3569         calculate D2E/DX2 analytically  !
 ! A65   A(16,11,17)            77.6885         calculate D2E/DX2 analytically  !
 ! A66   A(16,11,30)           130.164          calculate D2E/DX2 analytically  !
 ! A67   A(17,11,22)           114.9533         calculate D2E/DX2 analytically  !
 ! A68   A(22,11,30)           147.9622         calculate D2E/DX2 analytically  !
 ! A69   A(7,12,13)            106.1017         calculate D2E/DX2 analytically  !
 ! A70   A(13,12,19)           100.1242         calculate D2E/DX2 analytically  !
 ! A71   A(1,14,15)             97.8145         calculate D2E/DX2 analytically  !
 ! A72   A(1,14,30)             89.7716         calculate D2E/DX2 analytically  !
 ! A73   A(15,14,30)            97.2716         calculate D2E/DX2 analytically  !
 ! A74   A(11,16,18)            99.6953         calculate D2E/DX2 analytically  !
 ! A75   A(18,16,22)           102.1909         calculate D2E/DX2 analytically  !
 ! A76   A(11,17,29)            99.2825         calculate D2E/DX2 analytically  !
 ! A77   A(29,17,30)           108.1305         calculate D2E/DX2 analytically  !
 ! A78   A(1,19,12)            101.9156         calculate D2E/DX2 analytically  !
 ! A79   A(1,19,20)             90.1978         calculate D2E/DX2 analytically  !
 ! A80   A(1,19,37)            135.3405         calculate D2E/DX2 analytically  !
 ! A81   A(3,19,5)             115.9224         calculate D2E/DX2 analytically  !
 ! A82   A(3,19,12)            102.7679         calculate D2E/DX2 analytically  !
 ! A83   A(3,19,20)             79.6811         calculate D2E/DX2 analytically  !
 ! A84   A(3,19,37)            155.0458         calculate D2E/DX2 analytically  !
 ! A85   A(5,19,7)             100.0667         calculate D2E/DX2 analytically  !
 ! A86   A(5,19,12)             96.2385         calculate D2E/DX2 analytically  !
 ! A87   A(5,19,20)             94.0804         calculate D2E/DX2 analytically  !
 ! A88   A(5,19,37)             78.2479         calculate D2E/DX2 analytically  !
 ! A89   A(7,19,20)            130.4781         calculate D2E/DX2 analytically  !
 ! A90   A(7,19,37)            150.4548         calculate D2E/DX2 analytically  !
 ! A91   A(12,19,37)            95.4725         calculate D2E/DX2 analytically  !
 ! A92   A(20,19,37)            78.8449         calculate D2E/DX2 analytically  !
 ! A93   A(10,22,16)           105.2914         calculate D2E/DX2 analytically  !
 ! A94   A(10,22,23)           102.224          calculate D2E/DX2 analytically  !
 ! A95   A(10,22,24)            84.1199         calculate D2E/DX2 analytically  !
 ! A96   A(10,22,25)           155.9068         calculate D2E/DX2 analytically  !
 ! A97   A(11,22,23)            88.7762         calculate D2E/DX2 analytically  !
 ! A98   A(11,22,24)           131.4569         calculate D2E/DX2 analytically  !
 ! A99   A(11,22,25)           144.1839         calculate D2E/DX2 analytically  !
 ! A100  A(16,22,23)            87.4934         calculate D2E/DX2 analytically  !
 ! A101  A(16,22,25)            89.1314         calculate D2E/DX2 analytically  !
 ! A102  A(23,22,24)            84.0043         calculate D2E/DX2 analytically  !
 ! A103  A(23,22,25)            97.5129         calculate D2E/DX2 analytically  !
 ! A104  A(24,22,25)            84.3427         calculate D2E/DX2 analytically  !
 ! A105  A(2,30,14)             78.9664         calculate D2E/DX2 analytically  !
 ! A106  A(2,30,17)            111.3911         calculate D2E/DX2 analytically  !
 ! A107  A(2,30,31)             98.8471         calculate D2E/DX2 analytically  !
 ! A108  A(2,30,32)             81.5327         calculate D2E/DX2 analytically  !
 ! A109  A(2,30,33)            156.7948         calculate D2E/DX2 analytically  !
 ! A110  A(11,30,14)            82.6708         calculate D2E/DX2 analytically  !
 ! A111  A(11,30,31)            94.8769         calculate D2E/DX2 analytically  !
 ! A112  A(11,30,32)           136.873          calculate D2E/DX2 analytically  !
 ! A113  A(11,30,33)           138.139          calculate D2E/DX2 analytically  !
 ! A114  A(14,30,17)            93.5022         calculate D2E/DX2 analytically  !
 ! A115  A(14,30,32)            97.0662         calculate D2E/DX2 analytically  !
 ! A116  A(14,30,33)            84.7402         calculate D2E/DX2 analytically  !
 ! A117  A(17,30,31)            85.8917         calculate D2E/DX2 analytically  !
 ! A118  A(17,30,32)           164.7434         calculate D2E/DX2 analytically  !
 ! A119  A(17,30,33)            85.8274         calculate D2E/DX2 analytically  !
 ! A120  A(31,30,32)            84.0309         calculate D2E/DX2 analytically  !
 ! A121  A(31,30,33)            97.7789         calculate D2E/DX2 analytically  !
 ! A122  A(32,30,33)            84.2242         calculate D2E/DX2 analytically  !
 ! A123  A(19,37,38)           103.644          calculate D2E/DX2 analytically  !
 ! A124  A(19,37,39)            84.1814         calculate D2E/DX2 analytically  !
 ! A125  A(38,37,39)            93.7956         calculate D2E/DX2 analytically  !
 ! A126  L(2,1,5,3,-1)         189.3413         calculate D2E/DX2 analytically  !
 ! A127  L(1,7,8,12,-1)        188.3489         calculate D2E/DX2 analytically  !
 ! A128  L(10,7,12,3,-1)       184.4456         calculate D2E/DX2 analytically  !
 ! A129  L(2,11,16,4,-1)       179.0534         calculate D2E/DX2 analytically  !
 ! A130  L(12,19,20,1,-1)      192.1134         calculate D2E/DX2 analytically  !
 ! A131  L(19,20,21,2,-1)      182.5699         calculate D2E/DX2 analytically  !
 ! A132  L(16,22,24,10,-1)     189.4113         calculate D2E/DX2 analytically  !
 ! A133  L(22,23,26,2,-1)      179.9761         calculate D2E/DX2 analytically  !
 ! A134  L(22,24,27,34,-1)     177.4139         calculate D2E/DX2 analytically  !
 ! A135  L(22,25,28,9,-1)      177.2734         calculate D2E/DX2 analytically  !
 ! A136  L(14,30,31,2,-1)      177.8135         calculate D2E/DX2 analytically  !
 ! A137  L(30,31,34,8,-1)      180.9453         calculate D2E/DX2 analytically  !
 ! A138  L(30,32,36,15,-1)     182.4343         calculate D2E/DX2 analytically  !
 ! A139  L(30,33,35,29,-1)     178.7604         calculate D2E/DX2 analytically  !
 ! A140  L(2,1,5,3,-2)         190.3487         calculate D2E/DX2 analytically  !
 ! A141  L(1,7,8,12,-2)        177.689          calculate D2E/DX2 analytically  !
 ! A142  L(10,7,12,3,-2)       166.7787         calculate D2E/DX2 analytically  !
 ! A143  L(2,11,16,4,-2)       178.375          calculate D2E/DX2 analytically  !
 ! A144  L(12,19,20,1,-2)      175.146          calculate D2E/DX2 analytically  !
 ! A145  L(19,20,21,2,-2)      179.3299         calculate D2E/DX2 analytically  !
 ! A146  L(16,22,24,10,-2)     173.2804         calculate D2E/DX2 analytically  !
 ! A147  L(22,23,26,2,-2)      180.2392         calculate D2E/DX2 analytically  !
 ! A148  L(22,24,27,34,-2)     176.4265         calculate D2E/DX2 analytically  !
 ! A149  L(22,25,28,9,-2)      180.3187         calculate D2E/DX2 analytically  !
 ! A150  L(14,30,31,2,-2)      181.5148         calculate D2E/DX2 analytically  !
 ! A151  L(30,31,34,8,-2)      178.9287         calculate D2E/DX2 analytically  !
 ! A152  L(30,32,36,15,-2)     179.1799         calculate D2E/DX2 analytically  !
 ! A153  L(30,33,35,29,-2)     183.557          calculate D2E/DX2 analytically  !
 ! D1    D(3,1,2,30)          -165.7072         calculate D2E/DX2 analytically  !
 ! D2    D(4,1,2,30)           -59.6383         calculate D2E/DX2 analytically  !
 ! D3    D(7,1,2,30)          -114.679          calculate D2E/DX2 analytically  !
 ! D4    D(14,1,2,30)           23.1369         calculate D2E/DX2 analytically  !
 ! D5    D(19,1,2,30)         -170.3102         calculate D2E/DX2 analytically  !
 ! D6    D(3,1,5,6)            -69.051          calculate D2E/DX2 analytically  !
 ! D7    D(4,1,5,6)           -174.1686         calculate D2E/DX2 analytically  !
 ! D8    D(7,1,5,6)           -122.2291         calculate D2E/DX2 analytically  !
 ! D9    D(11,1,5,6)          -178.4782         calculate D2E/DX2 analytically  !
 ! D10   D(14,1,5,6)            99.6271         calculate D2E/DX2 analytically  !
 ! D11   D(2,1,7,10)            -0.1562         calculate D2E/DX2 analytically  !
 ! D12   D(2,1,7,12)          -176.8538         calculate D2E/DX2 analytically  !
 ! D13   D(5,1,7,10)          -179.0375         calculate D2E/DX2 analytically  !
 ! D14   D(5,1,7,12)             4.265          calculate D2E/DX2 analytically  !
 ! D15   D(14,1,7,10)          -84.2752         calculate D2E/DX2 analytically  !
 ! D16   D(14,1,7,12)           99.0272         calculate D2E/DX2 analytically  !
 ! D17   D(3,1,11,10)            6.9092         calculate D2E/DX2 analytically  !
 ! D18   D(3,1,11,16)          -98.8157         calculate D2E/DX2 analytically  !
 ! D19   D(3,1,11,17)          168.8553         calculate D2E/DX2 analytically  !
 ! D20   D(3,1,11,22)          -32.5423         calculate D2E/DX2 analytically  !
 ! D21   D(3,1,11,30)          128.5301         calculate D2E/DX2 analytically  !
 ! D22   D(5,1,11,10)          121.9528         calculate D2E/DX2 analytically  !
 ! D23   D(5,1,11,16)           16.2279         calculate D2E/DX2 analytically  !
 ! D24   D(5,1,11,17)          -76.1012         calculate D2E/DX2 analytically  !
 ! D25   D(5,1,11,22)           82.5013         calculate D2E/DX2 analytically  !
 ! D26   D(5,1,11,30)         -116.4263         calculate D2E/DX2 analytically  !
 ! D27   D(14,1,11,10)        -155.6765         calculate D2E/DX2 analytically  !
 ! D28   D(14,1,11,16)          98.5986         calculate D2E/DX2 analytically  !
 ! D29   D(14,1,11,17)           6.2696         calculate D2E/DX2 analytically  !
 ! D30   D(14,1,11,22)         164.872          calculate D2E/DX2 analytically  !
 ! D31   D(14,1,11,30)         -34.0556         calculate D2E/DX2 analytically  !
 ! D32   D(19,1,11,10)          55.8705         calculate D2E/DX2 analytically  !
 ! D33   D(19,1,11,16)         -49.8544         calculate D2E/DX2 analytically  !
 ! D34   D(19,1,11,17)        -142.1835         calculate D2E/DX2 analytically  !
 ! D35   D(19,1,11,22)          16.419          calculate D2E/DX2 analytically  !
 ! D36   D(19,1,11,30)         177.4914         calculate D2E/DX2 analytically  !
 ! D37   D(2,1,14,15)           77.1542         calculate D2E/DX2 analytically  !
 ! D38   D(2,1,14,30)          -20.1545         calculate D2E/DX2 analytically  !
 ! D39   D(3,1,14,15)           46.4815         calculate D2E/DX2 analytically  !
 ! D40   D(3,1,14,30)          -50.8271         calculate D2E/DX2 analytically  !
 ! D41   D(4,1,14,15)         -173.6862         calculate D2E/DX2 analytically  !
 ! D42   D(4,1,14,30)           89.0052         calculate D2E/DX2 analytically  !
 ! D43   D(5,1,14,15)          -94.4961         calculate D2E/DX2 analytically  !
 ! D44   D(5,1,14,30)          168.1952         calculate D2E/DX2 analytically  !
 ! D45   D(7,1,14,15)          166.3861         calculate D2E/DX2 analytically  !
 ! D46   D(7,1,14,30)           69.0775         calculate D2E/DX2 analytically  !
 ! D47   D(11,1,14,15)         134.0508         calculate D2E/DX2 analytically  !
 ! D48   D(11,1,14,30)          36.7422         calculate D2E/DX2 analytically  !
 ! D49   D(19,1,14,15)         -88.763          calculate D2E/DX2 analytically  !
 ! D50   D(19,1,14,30)         173.9283         calculate D2E/DX2 analytically  !
 ! D51   D(2,1,19,12)          103.24           calculate D2E/DX2 analytically  !
 ! D52   D(2,1,19,20)          -71.906          calculate D2E/DX2 analytically  !
 ! D53   D(2,1,19,37)         -146.1376         calculate D2E/DX2 analytically  !
 ! D54   D(4,1,19,12)          -14.0929         calculate D2E/DX2 analytically  !
 ! D55   D(4,1,19,20)          170.7611         calculate D2E/DX2 analytically  !
 ! D56   D(4,1,19,37)           96.5295         calculate D2E/DX2 analytically  !
 ! D57   D(11,1,19,12)          29.4092         calculate D2E/DX2 analytically  !
 ! D58   D(11,1,19,20)        -145.7368         calculate D2E/DX2 analytically  !
 ! D59   D(11,1,19,37)         140.0316         calculate D2E/DX2 analytically  !
 ! D60   D(14,1,19,12)         -97.4418         calculate D2E/DX2 analytically  !
 ! D61   D(14,1,19,20)          87.4123         calculate D2E/DX2 analytically  !
 ! D62   D(14,1,19,37)          13.1806         calculate D2E/DX2 analytically  !
 ! D63   D(1,2,30,14)          -22.0969         calculate D2E/DX2 analytically  !
 ! D64   D(1,2,30,17)           67.3566         calculate D2E/DX2 analytically  !
 ! D65   D(1,2,30,31)          156.3883         calculate D2E/DX2 analytically  !
 ! D66   D(1,2,30,32)         -121.0567         calculate D2E/DX2 analytically  !
 ! D67   D(1,2,30,33)          -68.3189         calculate D2E/DX2 analytically  !
 ! D68   D(1,3,7,19)            72.1994         calculate D2E/DX2 analytically  !
 ! D69   D(1,4,7,11)            80.8043         calculate D2E/DX2 analytically  !
 ! D70   D(6,5,19,3)           128.6703         calculate D2E/DX2 analytically  !
 ! D71   D(6,5,19,7)          -179.4834         calculate D2E/DX2 analytically  !
 ! D72   D(6,5,19,12)         -123.8528         calculate D2E/DX2 analytically  !
 ! D73   D(6,5,19,20)           48.1674         calculate D2E/DX2 analytically  !
 ! D74   D(6,5,19,37)          -29.5373         calculate D2E/DX2 analytically  !
 ! D75   D(3,7,8,9)           -130.4245         calculate D2E/DX2 analytically  !
 ! D76   D(4,7,8,9)             54.9569         calculate D2E/DX2 analytically  !
 ! D77   D(10,7,8,9)           157.3471         calculate D2E/DX2 analytically  !
 ! D78   D(11,7,8,9)           115.0035         calculate D2E/DX2 analytically  !
 ! D79   D(12,7,8,9)           -25.4695         calculate D2E/DX2 analytically  !
 ! D80   D(19,7,8,9)           -66.6158         calculate D2E/DX2 analytically  !
 ! D81   D(1,7,10,22)          131.3186         calculate D2E/DX2 analytically  !
 ! D82   D(3,7,10,22)         -172.8206         calculate D2E/DX2 analytically  !
 ! D83   D(4,7,10,22)           78.9093         calculate D2E/DX2 analytically  !
 ! D84   D(8,7,10,22)          -50.5398         calculate D2E/DX2 analytically  !
 ! D85   D(19,7,10,22)         177.9937         calculate D2E/DX2 analytically  !
 ! D86   D(3,7,11,2)             3.4806         calculate D2E/DX2 analytically  !
 ! D87   D(3,7,11,16)         -176.3556         calculate D2E/DX2 analytically  !
 ! D88   D(3,7,11,17)          126.7021         calculate D2E/DX2 analytically  !
 ! D89   D(3,7,11,22)         -126.5402         calculate D2E/DX2 analytically  !
 ! D90   D(3,7,11,30)           32.0712         calculate D2E/DX2 analytically  !
 ! D91   D(8,7,11,2)           129.9263         calculate D2E/DX2 analytically  !
 ! D92   D(8,7,11,16)          -49.9099         calculate D2E/DX2 analytically  !
 ! D93   D(8,7,11,17)         -106.8522         calculate D2E/DX2 analytically  !
 ! D94   D(8,7,11,22)           -0.0946         calculate D2E/DX2 analytically  !
 ! D95   D(8,7,11,30)          158.5169         calculate D2E/DX2 analytically  !
 ! D96   D(12,7,11,2)         -118.2594         calculate D2E/DX2 analytically  !
 ! D97   D(12,7,11,16)          61.9044         calculate D2E/DX2 analytically  !
 ! D98   D(12,7,11,17)           4.9621         calculate D2E/DX2 analytically  !
 ! D99   D(12,7,11,22)         111.7197         calculate D2E/DX2 analytically  !
 ! D100  D(12,7,11,30)         -89.6688         calculate D2E/DX2 analytically  !
 ! D101  D(19,7,11,2)          -48.585          calculate D2E/DX2 analytically  !
 ! D102  D(19,7,11,16)         131.5788         calculate D2E/DX2 analytically  !
 ! D103  D(19,7,11,17)          74.6365         calculate D2E/DX2 analytically  !
 ! D104  D(19,7,11,22)        -178.6059         calculate D2E/DX2 analytically  !
 ! D105  D(19,7,11,30)         -19.9944         calculate D2E/DX2 analytically  !
 ! D106  D(1,7,12,13)          -57.7502         calculate D2E/DX2 analytically  !
 ! D107  D(3,7,12,13)         -116.1475         calculate D2E/DX2 analytically  !
 ! D108  D(4,7,12,13)           -6.7158         calculate D2E/DX2 analytically  !
 ! D109  D(8,7,12,13)          124.5607         calculate D2E/DX2 analytically  !
 ! D110  D(11,7,12,13)           3.6331         calculate D2E/DX2 analytically  !
 ! D111  D(4,7,19,5)             4.2287         calculate D2E/DX2 analytically  !
 ! D112  D(4,7,19,20)          108.5001         calculate D2E/DX2 analytically  !
 ! D113  D(4,7,19,37)          -79.6691         calculate D2E/DX2 analytically  !
 ! D114  D(8,7,19,5)           143.8138         calculate D2E/DX2 analytically  !
 ! D115  D(8,7,19,20)         -111.9148         calculate D2E/DX2 analytically  !
 ! D116  D(8,7,19,37)           59.916          calculate D2E/DX2 analytically  !
 ! D117  D(10,7,19,5)         -103.8874         calculate D2E/DX2 analytically  !
 ! D118  D(10,7,19,20)           0.384          calculate D2E/DX2 analytically  !
 ! D119  D(10,7,19,37)         172.2148         calculate D2E/DX2 analytically  !
 ! D120  D(11,7,19,5)          -37.9133         calculate D2E/DX2 analytically  !
 ! D121  D(11,7,19,20)          66.3581         calculate D2E/DX2 analytically  !
 ! D122  D(11,7,19,37)        -121.8111         calculate D2E/DX2 analytically  !
 ! D123  D(7,10,22,16)         -57.2679         calculate D2E/DX2 analytically  !
 ! D124  D(7,10,22,23)        -148.0037         calculate D2E/DX2 analytically  !
 ! D125  D(7,10,22,24)         129.4516         calculate D2E/DX2 analytically  !
 ! D126  D(7,10,22,25)          67.6853         calculate D2E/DX2 analytically  !
 ! D127  D(1,11,16,18)        -147.4126         calculate D2E/DX2 analytically  !
 ! D128  D(4,11,16,18)        -138.6245         calculate D2E/DX2 analytically  !
 ! D129  D(7,11,16,18)         167.2209         calculate D2E/DX2 analytically  !
 ! D130  D(10,11,16,18)        111.5347         calculate D2E/DX2 analytically  !
 ! D131  D(17,11,16,18)        -36.8261         calculate D2E/DX2 analytically  !
 ! D132  D(30,11,16,18)        -38.3079         calculate D2E/DX2 analytically  !
 ! D133  D(1,11,17,29)          52.9489         calculate D2E/DX2 analytically  !
 ! D134  D(2,11,17,29)         106.9813         calculate D2E/DX2 analytically  !
 ! D135  D(4,11,17,29)           1.1832         calculate D2E/DX2 analytically  !
 ! D136  D(7,11,17,29)         -13.4545         calculate D2E/DX2 analytically  !
 ! D137  D(10,11,17,29)       -164.0735         calculate D2E/DX2 analytically  !
 ! D138  D(16,11,17,29)        -72.4026         calculate D2E/DX2 analytically  !
 ! D139  D(22,11,17,29)       -108.5967         calculate D2E/DX2 analytically  !
 ! D140  D(1,11,22,23)         161.4594         calculate D2E/DX2 analytically  !
 ! D141  D(1,11,22,24)          80.5662         calculate D2E/DX2 analytically  !
 ! D142  D(1,11,22,25)         -97.3611         calculate D2E/DX2 analytically  !
 ! D143  D(2,11,22,23)          94.2614         calculate D2E/DX2 analytically  !
 ! D144  D(2,11,22,24)          13.3682         calculate D2E/DX2 analytically  !
 ! D145  D(2,11,22,25)        -164.5592         calculate D2E/DX2 analytically  !
 ! D146  D(4,11,22,23)        -146.321          calculate D2E/DX2 analytically  !
 ! D147  D(4,11,22,24)         132.7858         calculate D2E/DX2 analytically  !
 ! D148  D(4,11,22,25)         -45.1415         calculate D2E/DX2 analytically  !
 ! D149  D(7,11,22,23)         169.9561         calculate D2E/DX2 analytically  !
 ! D150  D(7,11,22,24)          89.0629         calculate D2E/DX2 analytically  !
 ! D151  D(7,11,22,25)         -88.8644         calculate D2E/DX2 analytically  !
 ! D152  D(17,11,22,23)        -40.1542         calculate D2E/DX2 analytically  !
 ! D153  D(17,11,22,24)       -121.0474         calculate D2E/DX2 analytically  !
 ! D154  D(17,11,22,25)         61.0253         calculate D2E/DX2 analytically  !
 ! D155  D(30,11,22,23)         18.3563         calculate D2E/DX2 analytically  !
 ! D156  D(30,11,22,24)        -62.5369         calculate D2E/DX2 analytically  !
 ! D157  D(30,11,22,25)        119.5358         calculate D2E/DX2 analytically  !
 ! D158  D(1,11,30,14)          32.2953         calculate D2E/DX2 analytically  !
 ! D159  D(1,11,30,31)        -146.7025         calculate D2E/DX2 analytically  !
 ! D160  D(1,11,30,32)         -60.233          calculate D2E/DX2 analytically  !
 ! D161  D(1,11,30,33)         105.9128         calculate D2E/DX2 analytically  !
 ! D162  D(4,11,30,14)         -11.9868         calculate D2E/DX2 analytically  !
 ! D163  D(4,11,30,31)         169.0154         calculate D2E/DX2 analytically  !
 ! D164  D(4,11,30,32)        -104.5151         calculate D2E/DX2 analytically  !
 ! D165  D(4,11,30,33)          61.6307         calculate D2E/DX2 analytically  !
 ! D166  D(7,11,30,14)          43.9586         calculate D2E/DX2 analytically  !
 ! D167  D(7,11,30,31)        -135.0392         calculate D2E/DX2 analytically  !
 ! D168  D(7,11,30,32)         -48.5697         calculate D2E/DX2 analytically  !
 ! D169  D(7,11,30,33)         117.5761         calculate D2E/DX2 analytically  !
 ! D170  D(10,11,30,14)        117.647          calculate D2E/DX2 analytically  !
 ! D171  D(10,11,30,31)        -61.3509         calculate D2E/DX2 analytically  !
 ! D172  D(10,11,30,32)         25.1187         calculate D2E/DX2 analytically  !
 ! D173  D(10,11,30,33)       -168.7356         calculate D2E/DX2 analytically  !
 ! D174  D(16,11,30,14)        -97.5729         calculate D2E/DX2 analytically  !
 ! D175  D(16,11,30,31)         83.4293         calculate D2E/DX2 analytically  !
 ! D176  D(16,11,30,32)        169.8988         calculate D2E/DX2 analytically  !
 ! D177  D(16,11,30,33)        -23.9554         calculate D2E/DX2 analytically  !
 ! D178  D(22,11,30,14)       -176.4567         calculate D2E/DX2 analytically  !
 ! D179  D(22,11,30,31)          4.5455         calculate D2E/DX2 analytically  !
 ! D180  D(22,11,30,32)         91.015          calculate D2E/DX2 analytically  !
 ! D181  D(22,11,30,33)       -102.8392         calculate D2E/DX2 analytically  !
 ! D182  D(13,12,19,1)          65.5093         calculate D2E/DX2 analytically  !
 ! D183  D(13,12,19,3)         124.0131         calculate D2E/DX2 analytically  !
 ! D184  D(13,12,19,5)           5.6096         calculate D2E/DX2 analytically  !
 ! D185  D(13,12,19,37)        -73.1248         calculate D2E/DX2 analytically  !
 ! D186  D(1,14,30,2)           20.2142         calculate D2E/DX2 analytically  !
 ! D187  D(1,14,30,11)         -36.3979         calculate D2E/DX2 analytically  !
 ! D188  D(1,14,30,17)         -90.9083         calculate D2E/DX2 analytically  !
 ! D189  D(1,14,30,32)         100.116          calculate D2E/DX2 analytically  !
 ! D190  D(1,14,30,33)        -176.3864         calculate D2E/DX2 analytically  !
 ! D191  D(15,14,30,2)         -77.6347         calculate D2E/DX2 analytically  !
 ! D192  D(15,14,30,11)       -134.2467         calculate D2E/DX2 analytically  !
 ! D193  D(15,14,30,17)        171.2428         calculate D2E/DX2 analytically  !
 ! D194  D(15,14,30,32)          2.2671         calculate D2E/DX2 analytically  !
 ! D195  D(15,14,30,33)         85.7647         calculate D2E/DX2 analytically  !
 ! D196  D(18,16,22,10)       -108.2959         calculate D2E/DX2 analytically  !
 ! D197  D(18,16,22,23)         -6.3055         calculate D2E/DX2 analytically  !
 ! D198  D(18,16,22,25)         91.2538         calculate D2E/DX2 analytically  !
 ! D199  D(29,17,30,2)         -95.0404         calculate D2E/DX2 analytically  !
 ! D200  D(29,17,30,14)        -15.5241         calculate D2E/DX2 analytically  !
 ! D201  D(29,17,30,31)        167.0583         calculate D2E/DX2 analytically  !
 ! D202  D(29,17,30,32)        118.3238         calculate D2E/DX2 analytically  !
 ! D203  D(29,17,30,33)         68.9353         calculate D2E/DX2 analytically  !
 ! D204  D(1,19,37,38)          97.6953         calculate D2E/DX2 analytically  !
 ! D205  D(1,19,37,39)           5.1886         calculate D2E/DX2 analytically  !
 ! D206  D(3,19,37,38)         -12.1593         calculate D2E/DX2 analytically  !
 ! D207  D(3,19,37,39)        -104.666          calculate D2E/DX2 analytically  !
 ! D208  D(5,19,37,38)         115.5228         calculate D2E/DX2 analytically  !
 ! D209  D(5,19,37,39)          23.0161         calculate D2E/DX2 analytically  !
 ! D210  D(7,19,37,38)        -154.7618         calculate D2E/DX2 analytically  !
 ! D211  D(7,19,37,39)         112.7315         calculate D2E/DX2 analytically  !
 ! D212  D(12,19,37,38)       -149.2233         calculate D2E/DX2 analytically  !
 ! D213  D(12,19,37,39)        118.2701         calculate D2E/DX2 analytically  !
 ! D214  D(20,19,37,38)         18.9132         calculate D2E/DX2 analytically  !
 ! D215  D(20,19,37,39)        -73.5935         calculate D2E/DX2 analytically  !
 --------------------------------------------------------------------------------
 Trust Radius=3.00D-01 FncErr=1.00D-07 GrdErr=1.00D-06 EigMax=2.50D+02 EigMin=1.00D-04
 Number of steps in this run=    234 maximum allowed number of steps=    234.
 Search for a saddle point of order  1.
 GradGradGradGradGradGradGradGradGradGradGradGradGradGradGradGradGradGrad

                          Input orientation:                          
 ---------------------------------------------------------------------
 Center     Atomic      Atomic             Coordinates (Angstroms)
 Number     Number       Type             X           Y           Z
 ---------------------------------------------------------------------
      1         42           0        0.157922    0.775198    9.802221
      2         16           0        0.404660    2.852085   10.987825
      3         16           0       -2.105379    0.834781   10.786035
      4         16           0       -0.057759    1.255382    7.508183
      5         16           0        0.442293   -1.540683    8.793233
      6          1           0        0.580374   -2.979653    9.381598
      7         42           0       -2.219007    1.474741    8.544056
      8         16           0       -4.320931    2.374676    7.672306
      9          1           0       -4.461752    1.623457    6.557979
     10         16           0       -2.252402    3.746754    9.645641
     11         42           0       -0.144193    3.376723    8.544616
     12         16           0       -2.756916   -0.665738    7.308493
     13          1           0       -1.695483   -0.914409    6.509952
     14         16           0        2.679685    1.095292    9.434422
     15          1           0        3.093625    0.715793   10.661201
     16         16           0       -0.775178    3.864214    6.036092
     17         16           0        2.031765    4.324852    7.610866
     18          1           0       -0.078041    5.003385    5.843670
     19         42           0       -1.744777   -1.186154    9.568668
     20          6           0       -1.333485   -1.819741   11.456327
     21          8           0       -1.133489   -2.220382   12.521144
     22         42           0       -2.676399    4.642287    7.433373
     23          6           0       -1.782156    6.402772    7.516127
     24          6           0       -4.218061    5.621962    8.355085
     25          6           0       -3.759797    4.971725    5.720445
     26          8           0       -1.260026    7.436948    7.568198
     27          8           0       -5.044052    6.243704    8.861295
     28          8           0       -4.379569    5.102713    4.760576
     29          1           0        2.417514    3.274648    6.846358
     30         42           0        2.410873    3.736409    9.965271
     31          6           0        2.120613    5.679933   10.348125
     32          6           0        3.063786    3.671399   11.902568
     33          6           0        4.421732    3.838545    9.510317
     34          8           0        1.965539    6.800760   10.593958
     35          8           0        5.539374    3.826793    9.243963
     36          8           0        3.439449    3.685423   12.991373
     37         16           0       -1.711660   -3.770135    9.237057
     38          1           0       -1.871018   -4.253418   10.486563
     39          1           0       -0.151631   -3.608218    9.386036
 ---------------------------------------------------------------------
                    Distance matrix (angstroms):
                    1          2          3          4          5
     1  Mo   0.000000
     2  S    2.404162   0.000000
     3  S    2.468597   3.226535   0.000000
     4  S    2.353658   3.856320   3.887669   0.000000
     5  S    2.542091   4.910607   4.013069   3.117593   0.000000
     6  H    3.801881   6.051447   4.871922   4.674657   1.560729
     7  Mo   2.778872   3.840926   2.334294   2.406687   4.029564
     8  S    5.211045   5.792391   4.120104   4.410713   6.266962
     9  H    5.708418   6.694403   4.904178   4.520345   6.249624
    10  S    3.829403   3.108355   3.130767   3.948686   5.995412
    11  Mo   2.905301   2.558467   3.915569   2.362573   4.958494
    12  S    4.097714   5.992339   3.843092   3.319040   3.633857
    13  H    4.138710   6.216786   4.638164   2.895962   3.189934
    14  S    2.568467   3.267280   4.979112   3.351063   3.516449
    15  H    3.059367   3.449777   5.201864   4.490423   3.951019
    16  S    4.959478   5.189998   5.788684   3.080219   6.188455
    17  S    4.573114   4.027451   6.275209   3.714606   6.191035
    18  H    5.796841   5.596733   6.776011   4.101041   7.196909
    19  Mo   2.742574   4.789724   2.386670   3.612856   2.347395
    20  C    3.419659   5.006656   2.844574   5.164465   3.212994
    21  O    4.246620   5.517870   3.645435   6.194183   4.103949
    22  Mo   5.347821   5.033078   5.105243   4.281822   7.057236
    23  C    6.376497   5.426069   6.465237   5.428557   8.347314
    24  C    6.688389   5.997757   5.769753   6.090351   8.556539
    25  C    7.044165   7.041368   6.746229   5.541868   8.337328
    26  O    7.168009   5.957012   7.393085   6.297683   9.219352
    27  O    7.605947   6.761189   6.449564   7.181740   9.523723
    28  O    8.045769   8.169015   7.726147   6.405415   9.145894
    29  H    4.482202   4.624056   6.475382   3.262273   5.556909
    30  Mo   3.724398   2.419202   5.430436   4.276321   5.752971
    31  C    5.310988   3.369041   6.444088   5.690978   7.574414
    32  C    4.609065   2.928990   6.001109   5.906928   6.611050
    33  C    5.258268   4.392380   7.297481   5.545008   6.729505
    34  O    6.340483   4.264213   7.225107   6.660853   8.668481
    35  O    6.211595   5.509664   8.352986   6.399452   7.415739
    36  O    5.422962   3.730764   6.613229   6.942689   7.342990
    37  S    4.947201   7.169226   4.874382   5.565987   3.131605
    38  H    5.465519   7.477844   5.102389   6.519627   3.946860
    39  H    4.413997   6.679124   5.051472   5.214379   2.231336
                    6          7          8          9         10
     6  H    0.000000
     7  Mo   5.327254   0.000000
     8  S    7.457433   2.447022   0.000000
     9  H    7.388131   2.999421   1.351253   0.000000
    10  S    7.303348   2.525203   3.171035   4.350089   0.000000
    11  Mo   6.452058   2.814674   4.382940   5.065766   2.407016
    12  S    4.559547   2.529350   3.438404   2.951296   5.018653
    13  H    4.206080   3.181147   4.366019   3.754373   5.645276
    14  S    4.584220   4.993387   7.331473   7.717059   5.603601
    15  H    4.648670   5.769087   8.164620   8.645462   6.228811
    16  S    7.737470   3.752880   4.179508   4.345594   3.901901
    17  S    7.654921   5.202215   6.645578   7.111390   4.777928
    18  H    8.756674   4.932256   5.315650   5.581315   4.556528
    19  Mo   2.942441   2.890517   4.786676   4.933570   4.959555
    20  C    3.051680   4.485430   6.390366   6.755404   5.925273
    21  O    3.656579   5.536200   7.401728   7.836566   6.717678
    22  Mo   8.514465   3.387650   2.811340   3.614849   2.424022
    23  C    9.853498   5.053016   4.763961   5.562386   3.436625
    24  C    9.902853   4.607751   3.319885   4.390560   3.007616
    25  C    9.770647   4.751390   3.296862   3.522088   4.379493
    26  O   10.732244   6.117177   5.916636   6.713291   4.349496
    27  O   10.815507   5.551984   4.111688   5.195288   3.826652
    28  O   10.548911   5.669650   3.990463   3.916967   5.497938
    29  H    6.994198   5.255394   6.848268   7.080529   5.465070
    30  Mo   6.985477   5.345164   7.240800   7.956581   4.674228
    31  C    8.848443   6.306394   7.718693   8.610908   4.832590
    32  C    7.533865   6.634215   8.608754   9.454756   5.775920
    33  C    7.826904   7.114819   9.052920   9.619730   6.676137
    34  O    9.952134   7.076652   8.224717   9.187147   5.293136
    35  O    8.422490   8.137229  10.089815  10.587338   7.802533
    36  O    8.101112   7.528869   9.499159  10.395636   6.602640
    37  S    2.428821   5.314732   6.856781   6.620521   7.547381
    38  H    2.975357   6.058567   7.606165   7.528834   8.053282
    39  H    0.964855   5.551526   7.490991   7.344758   7.653512
                   11         12         13         14         15
    11  Mo   0.000000
    12  S    4.969488   0.000000
    13  H    4.996016   1.351349   0.000000
    14  S    3.737776   6.097330   5.633251   0.000000
    15  H    4.695098   6.883176   6.544156   1.349204   0.000000
    16  S    2.632201   5.105561   4.889452   5.581367   6.802340
    17  S    2.550614   6.923069   6.523361   3.764999   4.843284
    18  H    3.153651   6.439024   6.170927   5.980948   7.186899
    19  Mo   4.942712   2.530543   3.071159   4.979848   5.312360
    20  C    6.074184   4.534579   5.041557   5.356403   5.163377
    21  O    6.936791   5.676633   6.177041   5.921304   5.472568
    22  Mo   3.041148   5.310104   5.717672   6.728522   7.689565
    23  C    3.591335   7.138424   7.386544   7.194249   8.124436
    24  C    4.655472   6.539531   7.245141   8.320734   9.102166
    25  C    4.857218   5.942109   6.287391   8.383751   9.460096
    26  O    4.322488   8.243885   8.429393   7.695500   8.584572
    27  O    5.685814   7.441947   8.245017   9.300039  10.000962
    28  O    5.936026   6.511521   6.816919   9.366821  10.483848
    29  H    3.075198   6.520348   5.880316   3.393582   4.643048
    30  Mo   2.945505   7.289953   7.101514   2.707316   3.174049
    31  C    3.699563   8.561378   8.531091   4.708115   5.068279
    32  C    4.653365   8.590510   8.529981   3.588259   3.205852
    33  C    4.689726   8.756117   8.307411   3.250527   3.583292
    34  O    4.513845   9.425734   9.466046   5.865739   6.189016
    35  O    5.744091   9.631059   9.071768   3.959191   4.203400
    36  O    5.719391   9.466925   9.462283   4.465190   3.790514
    37  S    7.349422   3.801210   3.948738   6.557076   6.726255
    38  H    8.060529   4.874053   5.195501   7.101028   7.026467
    39  H    7.035442   4.445434   4.232251   5.490146   5.554710
                   16         17         18         19         20
    16  S    0.000000
    17  S    3.251312   0.000000
    18  H    1.349347   2.834549   0.000000
    19  Mo   6.239025   6.961785   7.413772   0.000000
    20  C    7.873881   7.991777   8.923738   2.033187   0.000000
    21  O    8.899809   8.773241   9.893707   3.187541   1.155139
    22  Mo   2.484438   4.722190   3.067411   6.276793   7.729514
    23  C    3.106249   4.344274   2.767563   7.861687   9.128866
    24  C    4.507865   6.426249   4.881558   7.344410   8.562559
    25  C    3.199088   6.126526   3.683954   7.535821   9.214735
    26  O    3.917506   4.530215   3.208320   8.865368  10.040380
    27  O    5.645089   7.437254   5.941861   8.160170   9.247791
    28  O    4.019012   7.059350   4.436902   8.343244  10.101093
    29  H    3.346252   1.355066   3.197141   6.680898   7.827810
    30  Mo   5.060208   2.456260   4.978706   6.454328   6.863983
    31  C    5.502369   3.055606   5.057856   7.917824   8.330907
    32  C    7.013584   4.462149   6.953813   7.222547   7.048953
    33  C    6.251302   3.091335   5.920229   7.954674   8.302149
    34  O    6.075276   3.877286   5.474670   8.866141   9.270398
    35  O    7.082754   3.901075   6.670960   8.848386   9.165920
    36  O    8.134555   5.598241   8.074616   7.894515   7.446079
    37  S    8.331054   9.065679   9.547693   2.605383   2.978626
    38  H    9.322205   9.853328  10.509977   3.204150   2.674354
    39  H    8.212684   8.417366   9.312007   2.904800   2.980190
                   21         22         23         24         25
    21  O    0.000000
    22  Mo   8.681141   0.000000
    23  C    9.991484   1.976316   0.000000
    24  C    9.400691   2.045981   2.692053   0.000000
    25  C   10.240772   2.053388   3.030418   2.752116   0.000000
    26  O   10.854110   3.135988   1.159677   3.558558   3.967414
    27  O   10.016374   3.195196   3.531961   1.151118   3.623835
    28  O   11.153079   3.202596   4.003719   3.635409   1.150054
    29  H    8.660726   5.306880   5.279297   7.198402   6.504377
    30  Mo   7.387716   5.754256   5.539792   7.077484   7.590897
    31  C    8.816245   5.708223   4.875891   6.644875   7.516396
    32  C    7.260361   7.339350   7.084096   8.331544   9.298966
    33  C    8.754208   7.439298   7.002877   8.897256   9.087609
    34  O    9.731342   6.016302   4.865866   6.681244   7.737956
    35  O    9.583076   8.452348   7.951471   9.960937  10.010026
    36  O    7.484077   8.319288   8.039121   9.158756  10.312619
    37  S    3.677124   8.657531  10.317684   9.760707   9.642694
    38  H    2.969294   9.439501  11.062810  10.371834  10.553986
    39  H    3.566376   8.846365  10.313830  10.138784  10.003541
                   26         27         28         29         30
    26  O    0.000000
    27  O    4.173102   0.000000
    28  O    4.802389   4.308050   0.000000
    29  H    5.600901   8.279507   7.341161   0.000000
    30  Mo   5.737199   7.942367   8.664049   3.152917   0.000000
    31  C    4.716335   7.339000   8.591057   4.258629   2.002027
    32  C    7.187592   9.033445  10.414425   5.112762   2.045395
    33  C    7.000193   9.788109  10.080727   3.381057   2.064211
    34  O    4.468135   7.242016   8.784765   5.165487   3.159718
    35  O    7.878658  10.862633  10.959661   3.974844   3.211849
    36  O    8.097520   9.776100  11.440794   6.242940   3.196539
    37  S   11.339655  10.560445  10.289998   8.508495   8.594986
    38  H   12.064610  11.085992  11.252419   9.397573   9.079850
    39  H   11.248501  11.012334  10.730827   7.773308   7.800352
                   31         32         33         34         35
    31  C    0.000000
    32  C    2.709258   0.000000
    33  C    3.063949   2.755870   0.000000
    34  O    1.157901   3.565320   3.997734   0.000000
    35  O    4.042429   3.636051   1.149002   4.841411   0.000000
    36  O    3.564289   1.151875   3.620232   4.198254   4.297994
    37  S   10.257903   9.235056   9.776767  11.274165  10.501945
    38  H   10.706248   9.442462  10.297166  11.701519  11.033937
    39  H    9.610331   8.346536   8.739873  10.690571   9.364140
                   36         37         38         39
    36  O    0.000000
    37  S    9.808882   0.000000
    38  H    9.874226   1.349156   0.000000
    39  H    8.893341   1.575469   2.140966   0.000000
 Symmetry turned off by external request.
 Stoichiometry    C7H8Mo6O7S11
 Framework group  C1[X(C7H8Mo6O7S11)]
 Deg. of freedom   111
 Full point group                 C1      NOp   1
 Rotational constants (GHZ):           0.0651678           0.0569245           0.0363973
 General basis read from cards:  (5D, 7F)
 ======================================================================================================
                                       Pseudopotential Parameters
 ======================================================================================================
  Center     Atomic      Valence      Angular      Power
  Number     Number     Electrons     Momentum     of R      Exponent        Coefficient   SO-Coeffient
 ======================================================================================================
    1         42           14
                                      F and up 
                                                     0      537.9667807       -0.04694920    0.00000000
                                                     1      147.8982938      -20.20800840    0.00000000
                                                     2       45.7358898     -106.21163020    0.00000000
                                                     2       13.2911467      -41.81073680    0.00000000
                                                     2        4.7059961       -4.20541030    0.00000000
                                      S - F
                                                     0      110.2991760        2.80637170    0.00000000
                                                     1       23.2014645       44.51620120    0.00000000
                                                     2        5.3530131       82.77852270    0.00000000
                                      P - F
                                                     0       63.2901397        4.94208760    0.00000000
                                                     1       23.3315302       25.86049760    0.00000000
                                                     2       24.6759423      132.47087420    0.00000000
                                                     2        4.6493040       57.31497940    0.00000000
                                      D - F
                                                     0      104.4839977        3.00545910    0.00000000
                                                     1       66.2307245       26.36378510    0.00000000
                                                     2       39.1283176      183.38491990    0.00000000
                                                     2       13.1164437       98.44530680    0.00000000
                                                     2        3.6280263       22.49013770    0.00000000
    2         16
                                   No pseudopotential on this center.
    3         16
                                   No pseudopotential on this center.
    4         16
                                   No pseudopotential on this center.
    5         16
                                   No pseudopotential on this center.
    6          1
                                   No pseudopotential on this center.
    7         42           14
                                      F and up 
                                                     0      537.9667807       -0.04694920    0.00000000
                                                     1      147.8982938      -20.20800840    0.00000000
                                                     2       45.7358898     -106.21163020    0.00000000
                                                     2       13.2911467      -41.81073680    0.00000000
                                                     2        4.7059961       -4.20541030    0.00000000
                                      S - F
                                                     0      110.2991760        2.80637170    0.00000000
                                                     1       23.2014645       44.51620120    0.00000000
                                                     2        5.3530131       82.77852270    0.00000000
                                      P - F
                                                     0       63.2901397        4.94208760    0.00000000
                                                     1       23.3315302       25.86049760    0.00000000
                                                     2       24.6759423      132.47087420    0.00000000
                                                     2        4.6493040       57.31497940    0.00000000
                                      D - F
                                                     0      104.4839977        3.00545910    0.00000000
                                                     1       66.2307245       26.36378510    0.00000000
                                                     2       39.1283176      183.38491990    0.00000000
                                                     2       13.1164437       98.44530680    0.00000000
                                                     2        3.6280263       22.49013770    0.00000000
    8         16
                                   No pseudopotential on this center.
    9          1
                                   No pseudopotential on this center.
   10         16
                                   No pseudopotential on this center.
   11         42           14
                                      F and up 
                                                     0      537.9667807       -0.04694920    0.00000000
                                                     1      147.8982938      -20.20800840    0.00000000
                                                     2       45.7358898     -106.21163020    0.00000000
                                                     2       13.2911467      -41.81073680    0.00000000
                                                     2        4.7059961       -4.20541030    0.00000000
                                      S - F
                                                     0      110.2991760        2.80637170    0.00000000
                                                     1       23.2014645       44.51620120    0.00000000
                                                     2        5.3530131       82.77852270    0.00000000
                                      P - F
                                                     0       63.2901397        4.94208760    0.00000000
                                                     1       23.3315302       25.86049760    0.00000000
                                                     2       24.6759423      132.47087420    0.00000000
                                                     2        4.6493040       57.31497940    0.00000000
                                      D - F
                                                     0      104.4839977        3.00545910    0.00000000
                                                     1       66.2307245       26.36378510    0.00000000
                                                     2       39.1283176      183.38491990    0.00000000
                                                     2       13.1164437       98.44530680    0.00000000
                                                     2        3.6280263       22.49013770    0.00000000
   12         16
                                   No pseudopotential on this center.
   13          1
                                   No pseudopotential on this center.
   14         16
                                   No pseudopotential on this center.
   15          1
                                   No pseudopotential on this center.
   16         16
                                   No pseudopotential on this center.
   17         16
                                   No pseudopotential on this center.
   18          1
                                   No pseudopotential on this center.
   19         42           14
                                      F and up 
                                                     0      537.9667807       -0.04694920    0.00000000
                                                     1      147.8982938      -20.20800840    0.00000000
                                                     2       45.7358898     -106.21163020    0.00000000
                                                     2       13.2911467      -41.81073680    0.00000000
                                                     2        4.7059961       -4.20541030    0.00000000
                                      S - F
                                                     0      110.2991760        2.80637170    0.00000000
                                                     1       23.2014645       44.51620120    0.00000000
                                                     2        5.3530131       82.77852270    0.00000000
                                      P - F
                                                     0       63.2901397        4.94208760    0.00000000
                                                     1       23.3315302       25.86049760    0.00000000
                                                     2       24.6759423      132.47087420    0.00000000
                                                     2        4.6493040       57.31497940    0.00000000
                                      D - F
                                                     0      104.4839977        3.00545910    0.00000000
                                                     1       66.2307245       26.36378510    0.00000000
                                                     2       39.1283176      183.38491990    0.00000000
                                                     2       13.1164437       98.44530680    0.00000000
                                                     2        3.6280263       22.49013770    0.00000000
   20          6
                                   No pseudopotential on this center.
   21          8
                                   No pseudopotential on this center.
   22         42           14
                                      F and up 
                                                     0      537.9667807       -0.04694920    0.00000000
                                                     1      147.8982938      -20.20800840    0.00000000
                                                     2       45.7358898     -106.21163020    0.00000000
                                                     2       13.2911467      -41.81073680    0.00000000
                                                     2        4.7059961       -4.20541030    0.00000000
                                      S - F
                                                     0      110.2991760        2.80637170    0.00000000
                                                     1       23.2014645       44.51620120    0.00000000
                                                     2        5.3530131       82.77852270    0.00000000
                                      P - F
                                                     0       63.2901397        4.94208760    0.00000000
                                                     1       23.3315302       25.86049760    0.00000000
                                                     2       24.6759423      132.47087420    0.00000000
                                                     2        4.6493040       57.31497940    0.00000000
                                      D - F
                                                     0      104.4839977        3.00545910    0.00000000
                                                     1       66.2307245       26.36378510    0.00000000
                                                     2       39.1283176      183.38491990    0.00000000
                                                     2       13.1164437       98.44530680    0.00000000
                                                     2        3.6280263       22.49013770    0.00000000
   23          6
                                   No pseudopotential on this center.
   24          6
                                   No pseudopotential on this center.
   25          6
                                   No pseudopotential on this center.
   26          8
                                   No pseudopotential on this center.
   27          8
                                   No pseudopotential on this center.
   28          8
                                   No pseudopotential on this center.
   29          1
                                   No pseudopotential on this center.
   30         42           14
                                      F and up 
                                                     0      537.9667807       -0.04694920    0.00000000
                                                     1      147.8982938      -20.20800840    0.00000000
                                                     2       45.7358898     -106.21163020    0.00000000
                                                     2       13.2911467      -41.81073680    0.00000000
                                                     2        4.7059961       -4.20541030    0.00000000
                                      S - F
                                                     0      110.2991760        2.80637170    0.00000000
                                                     1       23.2014645       44.51620120    0.00000000
                                                     2        5.3530131       82.77852270    0.00000000
                                      P - F
                                                     0       63.2901397        4.94208760    0.00000000
                                                     1       23.3315302       25.86049760    0.00000000
                                                     2       24.6759423      132.47087420    0.00000000
                                                     2        4.6493040       57.31497940    0.00000000
                                      D - F
                                                     0      104.4839977        3.00545910    0.00000000
                                                     1       66.2307245       26.36378510    0.00000000
                                                     2       39.1283176      183.38491990    0.00000000
                                                     2       13.1164437       98.44530680    0.00000000
                                                     2        3.6280263       22.49013770    0.00000000
   31          6
                                   No pseudopotential on this center.
   32          6
                                   No pseudopotential on this center.
   33          6
                                   No pseudopotential on this center.
   34          8
                                   No pseudopotential on this center.
   35          8
                                   No pseudopotential on this center.
   36          8
                                   No pseudopotential on this center.
   37         16
                                   No pseudopotential on this center.
   38          1
                                   No pseudopotential on this center.
   39          1
                                   No pseudopotential on this center.
 ======================================================================================================
   566 basis functions,  1314 primitive gaussians,   603 cartesian basis functions
   183 alpha electrons      183 beta electrons
       nuclear repulsion energy      7510.2300713727 Hartrees.
 NAtoms=   39 NActive=   39 NUniq=   39 SFac= 1.00D+00 NAtFMM=   60 NAOKFM=F Big=F
 Integral buffers will be    131072 words long.
 Raffenetti 2 integral format.
 Two-electron integral symmetry is turned off.
 One-electron integrals computed using PRISM.
   1 Symmetry operations used in ECPInt.
 ECPInt:  NShTT=   16836 NPrTT=  117603 LenC2=   13545 LenP2D=   55060.
 LDataN:  DoStor=T MaxTD1= 5 Len=  102
 NBasis=   566 RedAO= T EigKep=  6.10D-04  NBF=   566
 NBsUse=   566 1.00D-06 EigRej= -1.00D+00 NBFU=   566
 Defaulting to unpruned grid for atomic number  42.
 Defaulting to unpruned grid for atomic number  42.
 Defaulting to unpruned grid for atomic number  42.
 Defaulting to unpruned grid for atomic number  42.
 Defaulting to unpruned grid for atomic number  42.
 Defaulting to unpruned grid for atomic number  42.
 ExpMin= 2.47D-02 ExpMax= 2.19D+04 ExpMxC= 3.30D+03 IAcc=3 IRadAn=         5 AccDes= 0.00D+00
 Harris functional with IExCor=  402 and IRadAn=       5 diagonalized for initial guess.
 HarFok:  IExCor=  402 AccDes= 0.00D+00 IRadAn=         5 IDoV= 1 UseB2=F ITyADJ=14
 ICtDFT=  3500011 ScaDFX=  1.000000  1.000000  1.000000  1.000000
 Defaulting to unpruned grid for atomic number  42.
 FoFCou: FMM=F IPFlag=           0 FMFlag=      100000 FMFlg1=           0
         NFxFlg=           0 DoJE=T BraDBF=F KetDBF=T FulRan=T
         wScrn=  0.000000 ICntrl=       500 IOpCl=  0 I1Cent=   200000004 NGrid=           0
         NMat0=    1 NMatS0=      1 NMatT0=    0 NMatD0=    1 NMtDS0=    0 NMtDT0=    0
 Symmetry not used in FoFCou.
 Requested convergence on RMS density matrix=1.00D-08 within 128 cycles.
 Requested convergence on MAX density matrix=1.00D-06.
 Requested convergence on             energy=1.00D-06.
 No special actions if energy rises.
 Defaulting to unpruned grid for atomic number  42.
 Defaulting to unpruned grid for atomic number  42.
 Defaulting to unpruned grid for atomic number  42.
 Defaulting to unpruned grid for atomic number  42.
 Defaulting to unpruned grid for atomic number  42.
 Defaulting to unpruned grid for atomic number  42.
 Defaulting to unpruned grid for atomic number  42.
 Defaulting to unpruned grid for atomic number  42.
 Defaulting to unpruned grid for atomic number  42.
 Defaulting to unpruned grid for atomic number  42.
 Defaulting to unpruned grid for atomic number  42.
 Defaulting to unpruned grid for atomic number  42.
 Defaulting to unpruned grid for atomic number  42.
 Defaulting to unpruned grid for atomic number  42.
 Defaulting to unpruned grid for atomic number  42.
 Defaulting to unpruned grid for atomic number  42.
 Defaulting to unpruned grid for atomic number  42.
 Defaulting to unpruned grid for atomic number  42.
 Defaulting to unpruned grid for atomic number  42.
 Defaulting to unpruned grid for atomic number  42.
 Defaulting to unpruned grid for atomic number  42.
 Defaulting to unpruned grid for atomic number  42.
 Defaulting to unpruned grid for atomic number  42.
 Defaulting to unpruned grid for atomic number  42.
 Defaulting to unpruned grid for atomic number  42.
 Defaulting to unpruned grid for atomic number  42.
 Defaulting to unpruned grid for atomic number  42.
 Defaulting to unpruned grid for atomic number  42.
 Defaulting to unpruned grid for atomic number  42.
 Defaulting to unpruned grid for atomic number  42.
 Defaulting to unpruned grid for atomic number  42.
 Defaulting to unpruned grid for atomic number  42.
 Defaulting to unpruned grid for atomic number  42.
 Defaulting to unpruned grid for atomic number  42.
 Defaulting to unpruned grid for atomic number  42.
 Defaulting to unpruned grid for atomic number  42.
 Defaulting to unpruned grid for atomic number  42.
 Defaulting to unpruned grid for atomic number  42.
 Defaulting to unpruned grid for atomic number  42.
 Defaulting to unpruned grid for atomic number  42.
 Defaulting to unpruned grid for atomic number  42.
 Defaulting to unpruned grid for atomic number  42.
 Defaulting to unpruned grid for atomic number  42.
 Defaulting to unpruned grid for atomic number  42.
 Defaulting to unpruned grid for atomic number  42.
 Defaulting to unpruned grid for atomic number  42.
 Defaulting to unpruned grid for atomic number  42.
 Defaulting to unpruned grid for atomic number  42.
 EnCoef did     4 forward-backward iterations
 EnCoef did   100 forward-backward iterations
 EnCoef did   100 forward-backward iterations
 EnCoef did   100 forward-backward iterations
 EnCoef did     5 forward-backward iterations
 EnCoef did     6 forward-backward iterations
 EnCoef did     6 forward-backward iterations
 EnCoef did     7 forward-backward iterations
 EnCoef did     3 forward-backward iterations
 EnCoef did     4 forward-backward iterations
 EnCoef did     1 forward-backward iterations
 EnCoef did     5 forward-backward iterations
 EnCoef did     3 forward-backward iterations
 EnCoef did     5 forward-backward iterations
 Restarting incremental Fock formation.
 SCF Done:  E(RB3LYP) =  -5583.98564527     A.U. after   33 cycles
            NFock= 33  Conv=0.35D-08     -V/T= 2.0542
 DoSCS=F DFT=T ScalE2(SS,OS)=  1.000000  1.000000
 Range of M.O.s used for correlation:     1   566
 NBasis=   566 NAE=   183 NBE=   183 NFC=     0 NFV=     0
 NROrb=    566 NOA=   183 NOB=   183 NVA=   383 NVB=   383

 **** Warning!!: The largest alpha MO coefficient is  0.15919920D+02


 **** Warning!!: The smallest alpha delta epsilon is  0.67040672D-01

   1 Symmetry operations used in ECPInt.
 ECPInt:  NShTT=   16836 NPrTT=  117603 LenC2=   13545 LenP2D=   55060.
 LDataN:  DoStor=T MaxTD1= 6 Len=  172
 Number of processors reduced to  13 by ecpmxn.
 Symmetrizing basis deriv contribution to polar:
 IMax=3 JMax=2 DiffMx= 0.00D+00
 G2DrvN: will do    40 centers at a time, making    1 passes.
 Calling FoFCou, ICntrl=  3107 FMM=F I1Cent=   0 AccDes= 0.00D+00.
 Defaulting to unpruned grid for atomic number  42.
 Defaulting to unpruned grid for atomic number  42.
 Defaulting to unpruned grid for atomic number  42.
 Defaulting to unpruned grid for atomic number  42.
 Defaulting to unpruned grid for atomic number  42.
 Defaulting to unpruned grid for atomic number  42.
 Defaulting to unpruned grid for atomic number  42.
 Defaulting to unpruned grid for atomic number  42.
 Defaulting to unpruned grid for atomic number  42.
 Defaulting to unpruned grid for atomic number  42.
 Defaulting to unpruned grid for atomic number  42.
 Defaulting to unpruned grid for atomic number  42.
 Defaulting to unpruned grid for atomic number  42.
 Defaulting to unpruned grid for atomic number  42.
 Defaulting to unpruned grid for atomic number  42.
 Defaulting to unpruned grid for atomic number  42.
 Defaulting to unpruned grid for atomic number  42.
 Defaulting to unpruned grid for atomic number  42.
 Defaulting to unpruned grid for atomic number  42.
 Defaulting to unpruned grid for atomic number  42.
 Defaulting to unpruned grid for atomic number  42.
 Defaulting to unpruned grid for atomic number  42.
 Defaulting to unpruned grid for atomic number  42.
 Defaulting to unpruned grid for atomic number  42.
 Defaulting to unpruned grid for atomic number  42.
 Defaulting to unpruned grid for atomic number  42.
 Defaulting to unpruned grid for atomic number  42.
 Defaulting to unpruned grid for atomic number  42.
 Defaulting to unpruned grid for atomic number  42.
 Defaulting to unpruned grid for atomic number  42.
 Defaulting to unpruned grid for atomic number  42.
 Defaulting to unpruned grid for atomic number  42.
 Defaulting to unpruned grid for atomic number  42.
 Defaulting to unpruned grid for atomic number  42.
 Defaulting to unpruned grid for atomic number  42.
 Defaulting to unpruned grid for atomic number  42.
[...]
 5,-0.00003827,-0.00000540,-0.00000137,0.00001000,0.00077646,0.00070755
 ,-0.00010003,0.00002637,-0.00004511,-0.00002311,-0.00026828,0.00016210
 ,0.00016393,-0.00052114,-0.00081878,-0.00047854,-0.00001020,0.00000158
 ,-0.00000426,-0.00000809,0.00013403,-0.00016308,0.00009326,0.00001058,
 0.00010014,-0.00003059,0.00001230,-0.00005370,0.00019531,0.00023303,-0
 .00023351,-0.00004250,0.00008678,-0.00001962,-0.00008806,0.00003145,0.
 00002914,-0.00024148,-0.00006671,-0.00001206,-0.00001132,-0.00008132,0
 .00001002,0.00006011,-0.00003160,-0.00003304,0.00008876,0.00001754,0.0
 0004720,0.00002471,-0.00014395,-0.00000602,0.00182876,0.02157353,0.000
 80669,-0.00400310,-0.00053594,0.00051620,0.00017691,-0.00184610,0.0016
 5405,0.00999411,-0.03671687,-0.00519593,0.00090209,-0.00009189,-0.0002
 0613,-0.01105449,0.01964199,0.00006698,-0.00063563,0.00010598,0.000155
 24,0.00002805,-0.00266743,-0.00021294,0.00002401,-0.00003189,-0.000041
 72,0.00006931,0.00010585,0.00001937,0.00000385,-0.00004386,0.00002935,
 0.00008197,-0.00001439,-0.00015871,-0.00012029,0.00012509,0.00008420,-
 0.00001806,-0.00000885,-0.00000309,0.00001330,-0.00000238,-0.00036884,
 0.00009085,-0.00001024,-0.00165547,-0.00063770,-0.00081436,0.00003613,
 -0.00003019,0.00007930,0.00000233,0.00000046,-0.00003098,-0.00073292,0
 .00019739,-0.00038814,-0.00003918,0.00015594,0.00005116,-0.00001966,0.
 00018990,0.00005479,0.00107993,-0.00031413,0.00043312,0.00003245,-0.00
 002914,-0.00000088,0.00009720,0.00040727,-0.00011799,0.00008030,-0.000
 25887,0.00050936,-0.00005353,0.00014761,-0.00032140,0.00036915,-0.0005
 8643,0.00008488,0.00015518,0.00031015,0.00003619,-0.00037116,0.0003703
 1,0.00007746,-0.00031588,0.00012508,-0.00035109,-0.00012510,-0.0002435
 4,0.00000910,0.00023084,-0.00019986,-0.00009525,0.00021058,-0.00006870
 ,0.00029152,0.00014777,0.00017467,0.00017220,0.01841208,0.00120563,0.0
 1266246,-0.00217546,0.00361976,0.00079618,-0.00131149,-0.00022085,0.00
 481897,0.24162628,-0.00507730,-0.09207520,0.00068884,-0.00228449,-0.00
 064244,-0.25583841,0.00352316,0.07957779,-0.00060546,-0.00048590,0.000
 11254,0.00250473,0.00197235,0.00149113,0.00027539,0.00005905,-0.000025
 24,-0.00008569,0.00005958,-0.00014357,0.00007703,0.00033773,-0.0000640
 1,-0.00009075,-0.00034816,0.00005157,0.00011476,-0.00062309,0.00011936
 ,-0.00005942,0.00006656,-0.00002520,-0.00000165,-0.00001170,-0.0000006
 2,0.00034038,0.00005037,-0.00007561,-0.00039953,0.00015105,-0.00086171
 ,0.00000060,0.00005565,-0.00007309,0.00001980,-0.00001017,-0.00001109,
 0.00012231,0.00017720,0.00038207,-0.00003288,-0.00046706,-0.00003192,0
 .00022714,0.00011097,0.00011828,-0.00109938,0.00113402,0.00183442,-0.0
 0003467,0.00000334,-0.00008894,-0.00013923,-0.00037460,0.00022377,-0.0
 0013441,0.00051244,-0.00107735,0.00013714,-0.00030533,0.00076812,-0.00
 064728,0.00050332,-0.00018667,-0.00020370,-0.00064897,-0.00001123,0.00
 060633,-0.00050961,-0.00029808,0.00050092,-0.00007866,0.00055413,0.000
 18906,0.00045068,0.00001443,-0.00042531,0.00034957,0.00024029,-0.00032
 162,0.00006228,-0.00042791,0.00017849,-0.00055394,0.00043485,0.0086296
 4,0.00049767,-0.02435193,-0.00010401,-0.00671224,0.00093973,-0.1471794
 8,-0.00434803,-0.32002281,-0.00296091,0.00024731,-0.00220114,-0.000181
 23,0.00351373,0.00028722,0.00256057,-0.00008644,-0.00011695,0.13817605
 ,-0.00059160,-0.00006432,0.00018395,0.00162378,-0.00048086,0.00044410,
 0.00010517,0.00000101,-0.00000098,0.00001449,-0.00002329,-0.00006580,-
 0.00002055,0.00007994,-0.00005304,-0.00001604,-0.00006866,0.00002624,0
 .00030428,-0.00014082,0.00002677,-0.00003009,0.00004375,-0.00000990,0.
 00000337,-0.00000205,0.00000295,0.00000159,0.00006475,0.00029118,-0.00
 105486,-0.00047164,-0.00127022,-0.00007560,-0.00001370,-0.00003514,0.0
 0000226,0.00001801,0.00000851,0.00022547,0.00062524,0.00066556,0.00006
 944,-0.00008479,0.00022824,0.00009607,0.00005953,0.00001103,0.00059208
 ,-0.00419064,0.00053730,-0.00007115,0.00001980,-0.00008760,0.00003305,
 -0.00003481,-0.00011509,0.00001506,0.00005813,-0.00002124,-0.00000634,
 -0.00002590,0.00001891,0.00006078,0.00010129,-0.00011194,-0.00017482,-
 0.00034104,0.00000385,0.00008147,-0.00007813,-0.00003800,0.00004803,-0
 .00001630,0.00014343,0.00013165,0.00022877,0.00001725,-0.00006657,0.00
 005814,0.00004011,-0.00004314,0.00000837,-0.00008493,0.00000474,0.0007
 9406,-0.00144988,0.00007673,0.02319865,0.00523324,-0.00226090,0.002547
 27,-0.00422930,-0.00421574,-0.04217833,-0.01842567,-0.00080908,-0.0018
 3709,0.00052153,0.00037729,-0.00030119,0.00076941,0.00029686,0.0003740
 0,-0.00010412,0.00523710,0.02205997,-0.00094563,-0.00067823,-0.0002604
 5,0.00218515,0.00280101,0.00101136,0.00032412,0.00012629,0.00006104,-0
 .00029423,0.00015157,-0.00020553,0.00019068,0.00070749,-0.00017334,-0.
 00020378,-0.00077529,0.00008254,-0.00014332,-0.00153122,-0.00019545,-0
 .00010773,0.00016698,0.00000458,0.00001935,-0.00002693,-0.00000294,0.0
 0055274,0.00035864,0.00008669,0.00255972,-0.00040121,0.00013883,0.0000
 0011,0.00015062,-0.00016867,0.00006087,-0.00001330,-0.00003121,0.00078
 581,0.00050195,0.00164583,0.00002676,-0.00154593,-0.00008641,0.0007354
 5,0.00012476,0.00035898,0.00249923,-0.00100342,0.00219541,0.00007438,-
 0.00005950,-0.00002200,-0.00049422,-0.00111384,0.00092047,-0.00039240,
 0.00143779,-0.00322567,0.00039812,-0.00086322,0.00229413,-0.00192158,0
 .00132005,-0.00006184,-0.00034137,-0.00150499,-0.00012835,0.00171028,-
 0.00138751,-0.00094511,0.00141327,-0.00025128,0.00138685,0.00037435,0.
 00105234,0.00006411,-0.00119955,0.00096726,0.00071378,-0.00087072,0.00
 017875,-0.00110632,0.00006471,-0.00008850,-0.00133986,-0.02809117,0.00
 988521,-0.04579658,0.00148928,-0.01637137,-0.00248906,-0.31985640,-0.0
 1934417,-0.97776423,-0.00941205,0.00065494,0.00308285,-0.00128324,0.00
 986297,0.00199046,0.00743429,-0.00042970,-0.00233897,0.34254626,0.0169
 1634,1.02040874,0.00277506,-0.00027484,-0.00165128,0.00050714,0.000991
 76,0.00099379,-0.00017972,0.00079413,0.00086711,-0.00189726,-0.0004111
 2,-0.00081651,-0.02204971,0.02810503,0.00525199,-0.04773725,-0.0628057
 2,0.00359431,0.00029502,-0.00551748,-0.00173967,0.00043138,0.00037773,
 0.00041953,0.00011496,-0.00007295,0.00002868,0.00063754,0.00046430,0.0
 0011922,0.00120478,0.00036366,0.00123168,-0.00111835,0.00084312,-0.000
 53798,0.00026853,0.00006931,0.00033980,0.00039924,-0.00029627,0.000105
 69,-0.00008054,0.00001785,0.00000568,-0.00002118,0.00020037,0.00022931
 ,0.00005086,0.00018458,0.00008135,0.00005926,-0.00003674,-0.00003722,-
 0.00627447,-0.00079216,-0.01445301,0.00597970,-0.00730314,0.00941005,-
 0.00192960,0.00329248,-0.00672607,0.00030679,-0.00152073,0.00014948,0.
 00048311,0.00104453,0.00008056,-0.00090823,0.00087672,0.00042983,-0.00
 059547,0.00016974,-0.00090554,-0.00033512,-0.00070877,-0.00002973,0.00
 061631,-0.00053333,-0.00034522,0.00044593,-0.00009639,0.00067343,0.000
 00226,-0.00005007,0.00001722,-0.00090017,-0.00045506,-0.00081606,-0.00
 016121,0.00052797,0.00026961,0.00064908,0.00021061,0.00111516,0.000986
 16,0.00000400,0.00000098,0.00007161,-0.00049390,-0.00014906,-0.0006673
 7,0.00000055,0.00008971,-0.00035753,-0.00006551,-0.00079947,0.05317572
 ,-0.00246801,-0.00556262,-0.00013353,0.00034219,-0.00005797,-0.0001366
 5,-0.00056398,-0.00304418,0.00057468,0.00026113,-0.00035983,-0.0003657
 7,-0.00459350,-0.01603702,-0.00110899,0.00589553,0.00879032,0.00114113
 ,0.00018040,0.00154653,-0.00162870,0.00026051,0.00010932,0.00031579,0.
 00016933,0.00014055,-0.00006721,0.00008940,-0.00051560,0.00033127,-0.0
 0128030,0.00023060,-0.00135037,0.00099479,-0.00010768,0.00184593,-0.00
 002788,-0.00012804,0.00017924,-0.00049252,0.00000492,0.00044145,0.0000
 6529,-0.00005089,-0.00010811,0.00014610,0.00007869,0.00008486,0.000106
 84,-0.00006387,0.00003559,-0.00005459,0.00002888,-0.00005412,-0.010097
 92,-0.03120167,-0.00909805,0.00022526,-0.00688131,-0.00650694,0.000131
 16,0.00067676,0.00296285,-0.00005905,-0.00034202,0.00019765,0.00002471
 ,0.00026766,-0.00003469,0.00003922,-0.00012812,0.00010417,-0.00000931,
 0.00012381,-0.00022024,-0.00005801,-0.00018036,0.00000436,-0.00000354,
 0.00003367,-0.00002492,0.00003326,-0.00004579,0.00010256,0.00002615,0.
 00001207,-0.00003220,-0.00050083,-0.00005632,0.00045941,0.00015014,0.0
 0009770,-0.00015368,0.00008806,-0.00010329,0.00016477,0.00010783,0.000
 15178,-0.00018520,-0.00004517,-0.00005892,0.00001531,-0.00006902,-0.00
 004281,0.00006079,-0.00003837,0.00001460,-0.00009609,0.02787643,0.1015
 7089,-0.00168528,-0.00226406,-0.00096904,0.00055180,0.00010073,0.00069
 079,-0.00069113,0.00260037,0.00315931,0.00022954,-0.00022942,-0.000003
 67,0.00166286,0.00533217,0.00342888,-0.00217743,-0.00260297,0.00411897
 ,-0.00054112,-0.00181529,0.00028768,-0.00004104,0.00033981,0.00030287,
 0.00015449,0.00023194,-0.00005290,0.00037935,0.00010450,0.00016927,-0.
 00058054,-0.00027001,-0.00038346,0.00002744,0.00364842,0.00088785,0.00
 025675,-0.00014200,0.00006503,0.00013774,0.00015169,0.00016761,0.00001
 066,0.00002418,-0.00006029,0.00015213,0.00007376,0.00010490,0.00004520
 ,0.00006663,0.00009003,-0.00001963,0.00000507,-0.00003974,0.00153270,-
 0.00569378,-0.02347973,-0.00151493,-0.00557460,-0.00346213,0.00027189,
 0.00035641,0.00053101,-0.00011769,-0.00057205,0.00001944,0.00016642,0.
 00050171,-0.00001197,-0.00011480,0.00005310,0.00018267,-0.00000115,0.0
 0002203,-0.00025088,-0.00013335,-0.00031539,-0.00000502,0.00009183,-0.
 00006778,-0.00008067,0.00003509,-0.00001272,0.00010882,-0.00000693,-0.
 00002515,-0.00002086,0.00017681,0.00024532,-0.00035252,-0.00004375,-0.
 00005428,0.00003817,0.00002626,-0.00001540,0.00021980,-0.00000960,-0.0
 0009090,0.00009295,0.00000718,0.00005949,0.00000253,-0.00000786,0.0000
 3540,-0.00003222,-0.00004534,-0.00000018,-0.00014424,-0.00930092,-0.07
 311464,0.26798378,-0.00060303,0.00139658,0.00119678,-0.00002644,-0.000
 18468,-0.00018371,0.00059610,-0.00087062,-0.00042958,0.00009419,-0.000
 17712,-0.00009471,0.00029116,-0.00409987,-0.00199161,0.00177648,0.0020
 8361,-0.00050302,0.00093549,0.00081591,-0.00088489,-0.00006712,0.00000
 500,-0.00001194,0.00001005,0.00001214,0.00000760,-0.00004998,0.0000120
 2,0.00014140,-0.00000566,0.00003789,-0.00023855,0.00008216,0.00061657,
 0.00070736,-0.00000690,-0.00004121,-0.00001634,-0.00004254,-0.00016458
 ,-0.00003623,0.00000353,0.00000642,-0.00000014,-0.00000362,-0.00003766
 ,-0.00006564,-0.00007520,-0.00000391,0.00000079,-0.00000414,-0.0000017
 2,0.00001344,-0.00273896,0.00237244,0.00179108,-0.00104619,-0.00119227
 ,-0.00022818,0.00018804,0.00022451,0.00000414,-0.00004493,0.00019311,-
 0.00000279,-0.00005739,-0.00012178,0.00000520,0.00012116,-0.00007602,-
 0.00008469,0.00006679,-0.00001531,0.00010427,0.00003481,0.00007365,0.0
 0000256,-0.00007595,0.00005822,0.00004879,-0.00004841,0.00000812,-0.00
 006840,-0.00001018,0.00000265,-0.00001173,-0.00002889,0.00001565,0.000
 14697,0.00007825,-0.00001273,-0.00007580,-0.00009620,-0.00009076,-0.00
 010900,-0.00008072,0.00002913,-0.00001952,-0.00002434,0.00003718,0.000
 02274,0.00005026,-0.00000439,0.00000016,0.00004392,0.00002085,0.000078
 21,-0.01014132,-0.00445146,0.00939745,0.01522892,0.00035181,-0.0002232
 2,-0.00026799,-0.00017760,-0.00000611,-0.00016111,0.00023096,-0.000732
 88,-0.00112103,-0.00013376,0.00011883,0.00004838,-0.00040975,-0.001780
 66,0.00003297,0.00041963,0.00070783,-0.00014278,-0.00012010,0.00070402
 ,-0.00007390,0.00002509,-0.00007692,-0.00006115,-0.00003456,-0.0000442
 9,0.00000503,-0.00005678,-0.00003073,-0.00007483,0.00010164,0.00016908
 ,0.00001662,-0.00007783,-0.00066516,-0.00049123,-0.00005690,0.00002118
 ,-0.00006272,-0.00006906,0.00002809,0.00001061,0.00000491,-0.00002147,
 -0.00000276,-0.00002488,-0.00001278,-0.00000808,-0.00000471,-0.0000171
 9,-0.00001347,0.00000290,0.00000018,0.00000604,-0.00146064,-0.00180315
 ,0.00942698,0.00002549,-0.00342388,0.00099935,-0.00035116,0.00086244,-
 0.00160700,0.00002371,0.00007976,0.00001963,-0.00001890,-0.00008264,0.
 00000093,0.00000369,-0.00000102,-0.00003110,-0.00000647,0.00000283,0.0
 0001961,0.00001970,0.00005202,0.00000038,-0.00000802,0.00000681,0.0000
 1118,0.00000132,-0.00000044,-0.00000252,0.00000952,0.00000475,0.000004
 32,-0.00004160,-0.00010109,0.00006849,-0.00000719,0.00002631,0.0000025
 6,0.00002767,0.00002795,-0.00000353,0.00002958,0.00001433,-0.00003160,
 0.00000278,-0.00001894,-0.00000242,-0.00001723,-0.00000852,0.00001319,
 -0.00000513,-0.00000495,-0.00000151,-0.00407884,-0.03946649,0.07508148
 ,0.00720991,0.04592497,0.00021038,-0.00028627,0.00015338,0.00001526,-0
 .00005815,-0.00014520,0.00020040,-0.00052136,-0.00014417,-0.00013008,0
 .00005477,-0.00006869,-0.00036609,-0.00028387,0.00024188,0.00018663,0.
 00002866,0.00022318,-0.00007172,-0.00007736,-0.00018323,0.00004444,-0.
 00001973,-0.00000746,-0.00000349,-0.00001912,0.00000464,0.00000612,0.0
 0002080,0.00006266,0.00006298,0.00002980,0.00008819,0.00019900,-0.0000
 4035,0.00018893,-0.00003182,-0.00004725,0.00000096,-0.00000206,0.00004
 945,0.00001595,-0.00000236,-0.00001108,0.00000332,-0.00001409,-0.00000
 071,0.00000070,0.00000486,-0.00000453,-0.00001571,0.00000415,-0.000001
 36,0.00000312,-0.00142410,0.00149001,0.00126196,-0.00030362,-0.0032081
 3,0.00065992,0.00003575,0.00046743,-0.00060084,0.00001756,-0.00003374,
 0.00001504,0.00000397,0.00000048,0.00000500,-0.00002092,0.00002647,0.0
 0000375,-0.00002752,0.00000472,-0.00001991,-0.00000127,0.00000039,-0.0
 0000018,0.00001425,-0.00001358,-0.00000611,0.00001712,-0.00000307,0.00
 002059,0.00000365,0.00000385,0.00000327,-0.00005110,-0.00002103,0.0000
 1460,-0.00001664,0.00003375,0.00000861,0.00003131,0.00001212,0.0000263
 0,0.00005350,0.00000104,-0.00001771,0.00000620,-0.00002544,-0.00000710
 ,-0.00003589,-0.00000123,0.00001141,-0.00001136,-0.00000263,-0.0000201
 1,0.02134815,0.08382597,-0.23566662,-0.01952320,-0.08100569,0.23408494
 ,-0.00232861,0.00194195,0.00606399,-0.00072379,-0.00169488,-0.00161435
 ,-0.00015783,-0.00157164,-0.00055528,0.00219528,-0.00049535,0.00046663
 ,0.01717465,-0.07380841,0.00081591,0.00077893,0.05823543,-0.00982138,0
 .00020203,0.00535695,0.00273402,-0.00053463,-0.00030467,-0.00033717,-0
 .00001351,0.00010796,-0.00005244,-0.00035943,-0.00069508,-0.00007852,-
 0.00196008,0.00011174,-0.00204679,0.00104045,-0.00012721,-0.00089388,-
 0.00005346,0.00006230,-0.00022350,-0.00036948,-0.00009389,0.00025021,0
 .00021171,-0.00001582,-0.00007467,0.00012258,-0.00013895,-0.00009807,0
 .00005771,-0.00015934,-0.00012739,-0.00010106,0.00007129,-0.00000181,-
 0.01905525,0.02694651,0.01888371,-0.00172831,0.00883440,-0.01632040,0.
 00111043,-0.00473463,0.00961502,-0.00049192,0.00154992,-0.00013381,-0.
 00048416,-0.00104462,-0.00010655,0.00107525,-0.00105023,-0.00046343,0.
 00071588,-0.00018130,0.00095912,0.00034300,0.00072835,0.00003341,-0.00
 071740,0.00062713,0.00038860,-0.00051763,0.00010272,-0.00074665,0.0000
 0392,0.00004052,-0.00000320,0.00045480,0.00041816,0.00114480,0.0002674
 3,-0.00067541,-0.00038741,-0.00060048,-0.00028048,-0.00113971,-0.00100
 372,0.00014386,-0.00008121,-0.00011561,0.00057235,0.00017733,0.0007072
 2,-0.00005704,-0.00007356,0.00035992,0.00008036,0.00083373,0.02589408,
 -0.01240027,0.00171889,-0.00432320,-0.00132920,-0.00042833,-0.01707572
 ,0.00052719,0.00061099,0.00174256,-0.00011982,-0.00091699,-0.00101308,
 -0.00020797,-0.00032758,0.00003397,0.00061480,0.00095912,0.00043121,0.
 00644755,-0.03711735,0.00474188,-0.01610883,-0.00060825,-0.00625675,-0
 .00036624,0.00035718,0.00069548,-0.00014441,-0.00007347,-0.00010017,-0
 .00001338,0.00002034,-0.00000813,-0.00022182,-0.00012071,-0.00005181,-
 0.00010574,-0.00009347,-0.00040519,-0.00019625,-0.00014707,-0.00061252
 ,0.00000110,-0.00008853,0.00005717,-0.00013376,0.00053157,0.00000992,0
 .00001912,-0.00011819,-0.00001667,0.00002149,-0.00003533,0.00000492,-0
 .00001348,-0.00007737,0.00001224,-0.00001449,0.00001480,0.00001035,0.0
 0045550,-0.00572779,0.00378552,-0.00143059,0.00160870,-0.00266475,0.00
 054438,-0.00089068,0.00140981,-0.00004029,0.00031166,-0.00001427,-0.00
 010590,-0.00019553,-0.00002061,0.00016294,-0.00018764,-0.00007397,0.00
 009035,-0.00004193,0.00014966,0.00006795,0.00013510,0.00000593,-0.0001
 1168,0.00010403,0.00006156,-0.00007837,0.00002080,-0.00012014,0.000004
 72,0.00000727,0.00000605,0.00020380,0.00007901,0.00008234,-0.00006727,
 0.00001910,0.00003175,-0.00009647,0.00001884,-0.00018345,0.00001195,-0
 .00014004,-0.00004324,0.00001818,0.00007371,0.00001572,-0.00000885,0.0
 0003885,0.00001664,0.00005542,0.00000326,0.00012226,0.01909810,-0.0094
 4393,0.00382639,-0.00368544,-0.00022885,-0.00036405,-0.00507349,0.0516
 6637,-0.00000165,0.00245082,0.00173400,0.00011821,0.00010268,0.0000363
 9,0.00001782,0.00002942,-0.00001065,0.00050089,-0.00057070,0.00017132,
 0.00207042,0.00067083,-0.00187698,0.00230819,0.00354025,-0.01805892,-0
 .00016481,0.00015924,0.00024605,-0.00001948,-0.00004552,-0.00000171,0.
 00000413,-0.00001456,0.00000438,-0.00005148,-0.00000307,-0.00000286,-0
 .00022255,-0.00027203,0.00014897,0.00012863,-0.00006472,-0.00008007,0.
 00005760,0.00005662,-0.00004588,-0.00005008,-0.00031989,-0.00011992,-0
 .00001092,0.00007118,0.00004912,-0.00001686,-0.00002197,-0.00002234,0.
 00000765,0.00001443,-0.00003348,-0.00000953,0.00000844,0.00000218,0.00
 120036,-0.00089050,0.00215608,0.00014734,-0.00049814,-0.00142959,0.000
 05082,-0.00013770,0.00104794,-0.00003072,0.00015791,0.00000827,-0.0000
 5582,-0.00011104,-0.00001762,0.00008539,-0.00007910,-0.00004711,0.0000
 3502,-0.00001722,0.00007353,0.00003655,0.00007118,0.00000479,-0.000053
 70,0.00004626,0.00003110,-0.00003074,0.00000800,-0.00005165,-0.0000238
 6,0.00000761,0.00000398,-0.00010693,0.00004186,0.00011452,0.00005450,-
 0.00003222,-0.00004071,-0.00006909,-0.00006810,-0.00008819,-0.00006989
 ,0.00002853,0.00002633,-0.00001297,0.00000315,0.00000478,0.00005363,-0
 .00000414,-0.00001487,0.00003359,0.00001573,0.00005969,-0.00854457,0.0
 0157231,-0.01763641,0.01091071,-0.00060131,-0.00019926,-0.00827583,-0.
 00530451,0.03385481\\0.00002412,0.00002999,-0.00001776,-0.00000293,-0.
 00000205,0.00000080,0.00000379,-0.00000170,0.00000271,-0.00000114,0.00
 000143,-0.00000294,0.00002742,-0.00002841,0.00001337,-0.00001014,0.000
 04620,-0.00000804,0.00000964,-0.00000436,0.00001386,0.00001124,0.00001
 283,-0.00000908,-0.00000322,-0.00000149,0.00000185,0.00000094,0.000002
 71,-0.00000434,-0.00000990,0.00000664,0.00001471,-0.00000850,0.0000043
 3,-0.00000086,-0.00000032,0.00000058,0.00000196,-0.00000019,-0.0000087
 7,0.00000117,-0.00000058,0.00000044,0.00000029,0.00000495,-0.00000322,
 -0.00000678,0.00000157,-0.00000324,0.00000621,-0.00000195,0.00000160,0
 .00000165,-0.00001811,-0.00003556,-0.00001057,-0.00000452,0.00000570,-
 0.00000151,-0.00000010,-0.00000057,0.00000182,-0.00001080,0.00000408,-
 0.00000211,0.00000214,0.00000011,-0.00000417,-0.00000127,0.00000293,0.
 00000160,-0.00000379,-0.00000447,0.00000413,-0.00000002,0.00000041,0.0
 0000050,0.00000120,0.00000094,-0.00000041,0.00000058,0.00000008,-0.000
 00107,-0.00000192,0.00000219,-0.00000524,0.00000522,0.00000154,0.00000
 496,0.00000114,-0.00000058,-0.00000019,0.00000041,-0.00000133,-0.00000
 156,-0.00000191,-0.00000181,-0.00000097,0.00000127,-0.00000054,-0.0000
 0005,0.00000144,-0.00000148,-0.00000077,0.00000069,-0.00000077,0.00000
 039,0.00001823,-0.00000694,0.00001736,-0.00000460,-0.00000303,-0.00000
 035,-0.00003005,-0.00001441,-0.00001058\\\@
 The archive entry for this job was punched.


 The juvenile sea squirt wanders through the sea searching
 for a suitable rock or hunk of coral to cling to and make
 its home for life.  For this task it has a rudimentary
 nervous system.  When it finds its spot and takes root, it
 doesn't need its brain any more so it eats it.
 It's rather like getting tenure.

                               -- source unknown
 Job cpu time:       0 days  8 hours 22 minutes 11.2 seconds.
 Elapsed time:       0 days  0 hours 10 minutes 31.4 seconds.
 File lengths (MBytes):  RWF=   1879 Int=      0 D2E=      0 Chk=     30 Scr=      2
 Normal termination of Gaussian 16 at Tue May  3 23:34:22 2022.
