 Entering Gaussian System, Link 0=/apps/GAU16/avx2/g16/g16
 Initial command:
 /apps/GAU16/avx2//g16/l1.exe "/localscratch/chegho/Gau-110987.inp" -scrdir="/localscratch/chegho/"
 Entering Link 1 = /apps/GAU16/avx2//g16/l1.exe PID=    110988.
  
 Copyright (c) 1988-2019, Gaussian, Inc.  All Rights Reserved.
  
 This is part of the Gaussian(R) 16 program.  It is based on
 the Gaussian(R) 09 system (copyright 2009, Gaussian, Inc.),
 the Gaussian(R) 03 system (copyright 2003, Gaussian, Inc.),
 the Gaussian(R) 98 system (copyright 1998, Gaussian, Inc.),
 the Gaussian(R) 94 system (copyright 1995, Gaussian, Inc.),
 the Gaussian 92(TM) system (copyright 1992, Gaussian, Inc.),
 the Gaussian 90(TM) system (copyright 1990, Gaussian, Inc.),
 the Gaussian 88(TM) system (copyright 1988, Gaussian, Inc.),
 the Gaussian 86(TM) system (copyright 1986, Carnegie Mellon
 University), and the Gaussian 82(TM) system (copyright 1983,
 Carnegie Mellon University). Gaussian is a federally registered
 trademark of Gaussian, Inc.
  
 This software contains proprietary and confidential information,
 including trade secrets, belonging to Gaussian, Inc.
  
 This software is provided under written license and may be
 used, copied, transmitted, or stored only in accord with that
 written license.
  
 The following legend is applicable only to US Government
 contracts under FAR:
  
                    RESTRICTED RIGHTS LEGEND
  
 Use, reproduction and disclosure by the US Government is
 subject to restrictions as set forth in subparagraphs (a)
 and (c) of the Commercial Computer Software - Restricted
 Rights clause in FAR 52.227-19.
  
 Gaussian, Inc.
 340 Quinnipiac St., Bldg. 40, Wallingford CT 06492
  
  
 ---------------------------------------------------------------
 Warning -- This program may not be used in any manner that
 competes with the business of Gaussian, Inc. or will provide
 assistance to any competitor of Gaussian, Inc.  The licensee
 of this program is prohibited from giving any competitor of
 Gaussian, Inc. access to this program.  By using this program,
 the user acknowledges that Gaussian, Inc. is engaged in the
 business of creating and licensing software in the field of
 computational chemistry and represents and warrants to the
 licensee that it is not a competitor of Gaussian, Inc. and that
 it will not use this program in any manner prohibited above.
 ---------------------------------------------------------------
  

 Cite this work as:
 Gaussian 16, Revision C.01,
 M. J. Frisch, G. W. Trucks, H. B. Schlegel, G. E. Scuseria, 
 M. A. Robb, J. R. Cheeseman, G. Scalmani, V. Barone, 
 G. A. Petersson, H. Nakatsuji, X. Li, M. Caricato, A. V. Marenich, 
 J. Bloino, B. G. Janesko, R. Gomperts, B. Mennucci, H. P. Hratchian, 
 J. V. Ortiz, A. F. Izmaylov, J. L. Sonnenberg, D. Williams-Young, 
 F. Ding, F. Lipparini, F. Egidi, J. Goings, B. Peng, A. Petrone, 
 T. Henderson, D. Ranasinghe, V. G. Zakrzewski, J. Gao, N. Rega, 
 G. Zheng, W. Liang, M. Hada, M. Ehara, K. Toyota, R. Fukuda, 
 J. Hasegawa, M. Ishida, T. Nakajima, Y. Honda, O. Kitao, H. Nakai, 
 T. Vreven, K. Throssell, J. A. Montgomery, Jr., J. E. Peralta, 
 F. Ogliaro, M. J. Bearpark, J. J. Heyd, E. N. Brothers, K. N. Kudin, 
 V. N. Staroverov, T. A. Keith, R. Kobayashi, J. Normand, 
 K. Raghavachari, A. P. Rendell, J. C. Burant, S. S. Iyengar, 
 J. Tomasi, M. Cossi, J. M. Millam, M. Klene, C. Adamo, R. Cammi, 
 J. W. Ochterski, R. L. Martin, K. Morokuma, O. Farkas, 
 J. B. Foresman, and D. J. Fox, Gaussian, Inc., Wallingford CT, 2019.
 
 ******************************************
 Gaussian 16:  ES64L-G16RevC.01  3-Jul-2019
                 5-May-2022 
 ******************************************
 %nprocshared=48
 Will use up to   48 processors via shared memory.
 %mem=32GB
 -----------------------------------------------------------
 # opt=(calcfc,ts,noeigen) freq b3lyp/gen nosymm pseudo=read
 -----------------------------------------------------------
 1/5=1,10=4,11=1,18=20,26=3,38=1/1,3;
 2/9=110,12=2,15=1,17=6,18=5,40=1/2;
 3/5=7,11=2,16=1,17=8,25=1,30=1,71=2,74=-5,140=1/1,2,3;
 4//1;
 5/5=2,38=5/2;
 8/6=4,10=90,11=11/1;
 11/6=1,8=1,9=11,15=111,16=1,31=1/1,2,10;
 10/6=1,13=1,31=1/2;
 6/7=2,8=2,9=2,10=2,28=1/1;
 7/10=1,25=1,30=1/1,2,3,16;
 1/5=1,10=4,11=1,18=20,26=3/3(2);
 2/9=110,15=1/2;
 99//99;
 2/9=110,15=1/2;
 3/5=7,6=1,11=2,16=1,17=8,25=1,30=1,71=1,74=-5,82=7/1,2,3;
 4/5=5,16=3,69=1/1;
 5/5=2,38=5/2;
 7/30=1/1,2,3,16;
 1/5=1,11=1,18=20,26=3/3(-5);
 2/9=110,15=1/2;
 6/7=2,8=2,9=2,10=2,19=2,28=1/1;
 99/9=1/99;
 -------------------
 Title Card Required
 -------------------
 Symbolic Z-matrix:
 Charge =  0 Multiplicity = 1
 42                    0.4842    1.07452   9.84094 
 16                    0.56669   3.298     10.85338 
 16                   -1.65489   1.03881   11.01694 
 16                    0.02356   1.30604   7.53582 
 16                    0.98159  -1.2912    9.78044 
 42                   -2.05022   1.2174    8.65898 
 16                   -3.4196    1.93135   6.71839 
 1                    -2.88312   1.20985   5.71124 
 16                   -2.44564   3.6071    9.30686 
 42                   -0.27981   3.50225   8.456 
 16                   -2.34553  -1.19727   7.94486 
 1                    -1.27398  -1.51078   7.17762 
 16                    2.9895    1.19936   9.02069 
 1                     3.67207   0.44718   9.92264 
 16                   -0.20954   4.08591   6.03002 
 16                    1.49941   5.22243   8.78244 
 1                     0.26693   5.3487    6.05548 
 42                   -1.22769  -1.0719    10.08969 
 42                   -2.52763   4.4672    6.96859 
 6                    -1.99751   6.31149   7.44058 
 6                    -4.44363   4.93688   7.49896 
 6                    -3.00266   5.02952   5.05734 
 8                    -1.681     7.39948   7.70001 
 8                    -5.51553   5.2446    7.78949 
 8                    -3.28677   5.32785   3.981 
 1                     2.76999   5.72371   7.89085 
 42                    2.74169   3.42983   9.75482 
 6                     3.76521   3.03946   11.37671 
 8                     4.33652   2.85851   12.37172 
 16                   -2.15781  -2.18562   11.91883 
 1                    -2.57742  -1.22514   12.76763 
 16                    4.61136   4.78598   8.84931 
 1                     4.85154   3.92679   7.82927 
 1                     3.49088   5.66614   7.94624 
 
 Add virtual bond connecting atoms H26        and S16        Dist= 3.08D+00.
 Add virtual bond connecting atoms H34        and S32        Dist= 3.19D+00.

 GradGradGradGradGradGradGradGradGradGradGradGradGradGradGradGradGradGrad
 Berny optimization.
 Initialization pass.
                           ----------------------------
                           !    Initial Parameters    !
                           ! (Angstroms and Degrees)  !
 --------------------------                            --------------------------
 ! Name  Definition              Value          Derivative Info.                !
 --------------------------------------------------------------------------------
 ! R1    R(1,2)                  2.4445         calculate D2E/DX2 analytically  !
 ! R2    R(1,3)                  2.4413         calculate D2E/DX2 analytically  !
 ! R3    R(1,4)                  2.3621         calculate D2E/DX2 analytically  !
 ! R4    R(1,5)                  2.4182         calculate D2E/DX2 analytically  !
 ! R5    R(1,6)                  2.8001         calculate D2E/DX2 analytically  !
 ! R6    R(1,10)                 2.8975         calculate D2E/DX2 analytically  !
 ! R7    R(1,13)                 2.6391         calculate D2E/DX2 analytically  !
 ! R8    R(1,18)                 2.7567         calculate D2E/DX2 analytically  !
 ! R9    R(2,10)                 2.5506         calculate D2E/DX2 analytically  !
 ! R10   R(2,27)                 2.4403         calculate D2E/DX2 analytically  !
 ! R11   R(3,6)                  2.3975         calculate D2E/DX2 analytically  !
 ! R12   R(3,18)                 2.3446         calculate D2E/DX2 analytically  !
 ! R13   R(4,6)                  2.3601         calculate D2E/DX2 analytically  !
 ! R14   R(4,10)                 2.4004         calculate D2E/DX2 analytically  !
 ! R15   R(5,18)                 2.2416         calculate D2E/DX2 analytically  !
 ! R16   R(6,7)                  2.4801         calculate D2E/DX2 analytically  !
 ! R17   R(6,9)                  2.5073         calculate D2E/DX2 analytically  !
 ! R18   R(6,10)                 2.8976         calculate D2E/DX2 analytically  !
 ! R19   R(6,11)                 2.5353         calculate D2E/DX2 analytically  !
 ! R20   R(6,18)                 2.8221         calculate D2E/DX2 analytically  !
 ! R21   R(7,8)                  1.3501         calculate D2E/DX2 analytically  !
 ! R22   R(7,19)                 2.6998         calculate D2E/DX2 analytically  !
 ! R23   R(9,10)                 2.3293         calculate D2E/DX2 analytically  !
 ! R24   R(9,19)                 2.4928         calculate D2E/DX2 analytically  !
 ! R25   R(10,15)                2.4962         calculate D2E/DX2 analytically  !
 ! R26   R(10,16)                2.4962         calculate D2E/DX2 analytically  !
 ! R27   R(10,19)                2.8629         calculate D2E/DX2 analytically  !
 ! R28   R(11,12)                1.3547         calculate D2E/DX2 analytically  !
 ! R29   R(11,18)                2.4219         calculate D2E/DX2 analytically  !
 ! R30   R(13,14)                1.3584         calculate D2E/DX2 analytically  !
 ! R31   R(13,27)                2.3612         calculate D2E/DX2 analytically  !
 ! R32   R(15,17)                1.3499         calculate D2E/DX2 analytically  !
 ! R33   R(15,19)                2.5298         calculate D2E/DX2 analytically  !
 ! R34   R(16,26)                1.6311         calculate D2E/DX2 analytically  !
 ! R35   R(16,27)                2.3879         calculate D2E/DX2 analytically  !
 ! R36   R(18,30)                2.3348         calculate D2E/DX2 analytically  !
 ! R37   R(19,20)                1.9762         calculate D2E/DX2 analytically  !
 ! R38   R(19,21)                2.0428         calculate D2E/DX2 analytically  !
 ! R39   R(19,22)                2.0481         calculate D2E/DX2 analytically  !
 ! R40   R(20,23)                1.1624         calculate D2E/DX2 analytically  !
 ! R41   R(21,24)                1.1524         calculate D2E/DX2 analytically  !
 ! R42   R(22,25)                1.1525         calculate D2E/DX2 analytically  !
 ! R43   R(26,34)                0.7253         calculate D2E/DX2 analytically  !
 ! R44   R(27,28)                1.9572         calculate D2E/DX2 analytically  !
 ! R45   R(27,32)                2.4809         calculate D2E/DX2 analytically  !
 ! R46   R(28,29)                1.1615         calculate D2E/DX2 analytically  !
 ! R47   R(30,31)                1.3487         calculate D2E/DX2 analytically  !
 ! R48   R(32,33)                1.3551         calculate D2E/DX2 analytically  !
 ! R49   R(32,34)                1.6869         calculate D2E/DX2 analytically  !
 ! A1    A(2,1,3)               80.9883         calculate D2E/DX2 analytically  !
 ! A2    A(2,1,4)              108.7605         calculate D2E/DX2 analytically  !
 ! A3    A(2,1,5)              153.2854         calculate D2E/DX2 analytically  !
 ! A4    A(2,1,6)               99.1462         calculate D2E/DX2 analytically  !
 ! A5    A(2,1,13)              93.0763         calculate D2E/DX2 analytically  !
 ! A6    A(2,1,18)             133.7719         calculate D2E/DX2 analytically  !
 ! A7    A(3,1,4)              107.4972         calculate D2E/DX2 analytically  !
 ! A8    A(3,1,5)              100.2512         calculate D2E/DX2 analytically  !
 ! A9    A(3,1,10)              90.6571         calculate D2E/DX2 analytically  !
 ! A10   A(4,1,5)               96.4065         calculate D2E/DX2 analytically  !
 ! A11   A(4,1,13)              82.9452         calculate D2E/DX2 analytically  !
 ! A12   A(4,1,18)              92.48           calculate D2E/DX2 analytically  !
 ! A13   A(5,1,6)              103.0338         calculate D2E/DX2 analytically  !
 ! A14   A(5,1,10)             149.537          calculate D2E/DX2 analytically  !
 ! A15   A(5,1,13)              80.9813         calculate D2E/DX2 analytically  !
 ! A16   A(6,1,13)             136.5196         calculate D2E/DX2 analytically  !
 ! A17   A(10,1,13)             93.5613         calculate D2E/DX2 analytically  !
 ! A18   A(10,1,18)            122.1246         calculate D2E/DX2 analytically  !
 ! A19   A(13,1,18)            130.8722         calculate D2E/DX2 analytically  !
 ! A20   A(1,2,27)              83.8441         calculate D2E/DX2 analytically  !
 ! A21   A(10,2,27)             82.4346         calculate D2E/DX2 analytically  !
 ! A22   A(1,6,7)              147.6432         calculate D2E/DX2 analytically  !
 ! A23   A(1,6,9)               94.721          calculate D2E/DX2 analytically  !
 ! A24   A(1,6,11)             100.1205         calculate D2E/DX2 analytically  !
 ! A25   A(3,6,4)              109.0236         calculate D2E/DX2 analytically  !
 ! A26   A(3,6,7)              151.8901         calculate D2E/DX2 analytically  !
 ! A27   A(3,6,9)               80.9598         calculate D2E/DX2 analytically  !
 ! A28   A(3,6,10)              91.5405         calculate D2E/DX2 analytically  !
 ! A29   A(3,6,11)             103.0194         calculate D2E/DX2 analytically  !
 ! A30   A(4,6,7)               95.8531         calculate D2E/DX2 analytically  !
 ! A31   A(4,6,9)              103.0472         calculate D2E/DX2 analytically  !
 ! A32   A(4,6,11)              90.233          calculate D2E/DX2 analytically  !
 ! A33   A(4,6,18)              90.8953         calculate D2E/DX2 analytically  !
 ! A34   A(7,6,9)               80.8363         calculate D2E/DX2 analytically  !
 ! A35   A(7,6,10)              93.1845         calculate D2E/DX2 analytically  !
 ! A36   A(7,6,11)              89.3962         calculate D2E/DX2 analytically  !
 ! A37   A(7,6,18)             142.2915         calculate D2E/DX2 analytically  !
 ! A38   A(9,6,11)             164.1838         calculate D2E/DX2 analytically  !
 ! A39   A(9,6,18)             133.4804         calculate D2E/DX2 analytically  !
 ! A40   A(10,6,11)            143.364          calculate D2E/DX2 analytically  !
 ! A41   A(10,6,18)            119.8074         calculate D2E/DX2 analytically  !
 ! A42   A(6,7,8)              102.1499         calculate D2E/DX2 analytically  !
 ! A43   A(6,7,19)              90.8855         calculate D2E/DX2 analytically  !
 ! A44   A(8,7,19)             116.0917         calculate D2E/DX2 analytically  !
 ! A45   A(6,9,19)              95.2588         calculate D2E/DX2 analytically  !
 ! A46   A(1,10,9)              96.2167         calculate D2E/DX2 analytically  !
 ! A47   A(1,10,15)            130.7695         calculate D2E/DX2 analytically  !
 ! A48   A(1,10,16)            109.0831         calculate D2E/DX2 analytically  !
 ! A49   A(1,10,19)            137.5409         calculate D2E/DX2 analytically  !
 ! A50   A(2,10,4)             104.1879         calculate D2E/DX2 analytically  !
 ! A51   A(2,10,6)              94.2316         calculate D2E/DX2 analytically  !
 ! A52   A(2,10,9)              88.2152         calculate D2E/DX2 analytically  !
 ! A53   A(2,10,15)            157.3479         calculate D2E/DX2 analytically  !
 ! A54   A(2,10,16)             72.2852         calculate D2E/DX2 analytically  !
 ! A55   A(2,10,19)            140.8864         calculate D2E/DX2 analytically  !
 ! A56   A(4,10,9)             107.3806         calculate D2E/DX2 analytically  !
 ! A57   A(4,10,15)             80.6661         calculate D2E/DX2 analytically  !
 ! A58   A(4,10,16)            126.1949         calculate D2E/DX2 analytically  !
 ! A59   A(4,10,19)            102.0308         calculate D2E/DX2 analytically  !
 ! A60   A(6,10,15)            105.6438         calculate D2E/DX2 analytically  !
 ! A61   A(6,10,19)             79.7727         calculate D2E/DX2 analytically  !
 ! A62   A(9,10,15)            111.7561         calculate D2E/DX2 analytically  !
 ! A63   A(9,10,16)            125.7283         calculate D2E/DX2 analytically  !
 ! A64   A(15,10,16)            86.8987         calculate D2E/DX2 analytically  !
 ! A65   A(16,10,19)           113.2848         calculate D2E/DX2 analytically  !
 ! A66   A(6,11,12)            106.7271         calculate D2E/DX2 analytically  !
 ! A67   A(12,11,18)            98.5379         calculate D2E/DX2 analytically  !
 ! A68   A(1,13,14)            104.1491         calculate D2E/DX2 analytically  !
 ! A69   A(1,13,27)             81.2816         calculate D2E/DX2 analytically  !
 ! A70   A(14,13,27)           111.6767         calculate D2E/DX2 analytically  !
 ! A71   A(10,15,17)           102.142          calculate D2E/DX2 analytically  !
 ! A72   A(17,15,19)           100.104          calculate D2E/DX2 analytically  !
 ! A73   A(10,16,26)           134.0675         calculate D2E/DX2 analytically  !
 ! A74   A(10,16,27)            84.649          calculate D2E/DX2 analytically  !
 ! A75   A(26,16,27)            92.754          calculate D2E/DX2 analytically  !
 ! A76   A(1,18,11)            104.301          calculate D2E/DX2 analytically  !
 ! A77   A(1,18,30)            133.5893         calculate D2E/DX2 analytically  !
 ! A78   A(3,18,5)             108.7967         calculate D2E/DX2 analytically  !
 ! A79   A(3,18,11)            108.2245         calculate D2E/DX2 analytically  !
 ! A80   A(3,18,30)             92.6942         calculate D2E/DX2 analytically  !
 ! A81   A(5,18,6)             107.2586         calculate D2E/DX2 analytically  !
 ! A82   A(5,18,11)            109.1271         calculate D2E/DX2 analytically  !
 ! A83   A(5,18,30)            117.0039         calculate D2E/DX2 analytically  !
 ! A84   A(6,18,30)            131.9134         calculate D2E/DX2 analytically  !
 ! A85   A(11,18,30)           119.0278         calculate D2E/DX2 analytically  !
 ! A86   A(7,19,9)              76.9213         calculate D2E/DX2 analytically  !
 ! A87   A(7,19,10)             89.4824         calculate D2E/DX2 analytically  !
 ! A88   A(7,19,15)             97.2842         calculate D2E/DX2 analytically  !
 ! A89   A(7,19,21)             85.9942         calculate D2E/DX2 analytically  !
 ! A90   A(7,19,22)             95.4384         calculate D2E/DX2 analytically  !
 ! A91   A(9,19,15)            105.4187         calculate D2E/DX2 analytically  !
 ! A92   A(9,19,20)             95.1147         calculate D2E/DX2 analytically  !
 ! A93   A(9,19,21)             82.3363         calculate D2E/DX2 analytically  !
 ! A94   A(10,19,20)            88.8453         calculate D2E/DX2 analytically  !
 ! A95   A(10,19,21)           132.768          calculate D2E/DX2 analytically  !
 ! A96   A(10,19,22)           139.4183         calculate D2E/DX2 analytically  !
 ! A97   A(15,19,20)            89.0525         calculate D2E/DX2 analytically  !
 ! A98   A(15,19,22)            84.7039         calculate D2E/DX2 analytically  !
 ! A99   A(20,19,21)            88.5683         calculate D2E/DX2 analytically  !
 ! A100  A(20,19,22)            91.654          calculate D2E/DX2 analytically  !
 ! A101  A(21,19,22)            87.7998         calculate D2E/DX2 analytically  !
 ! A102  A(16,26,34)           135.0787         calculate D2E/DX2 analytically  !
 ! A103  A(2,27,13)            100.5141         calculate D2E/DX2 analytically  !
 ! A104  A(2,27,16)             76.1246         calculate D2E/DX2 analytically  !
 ! A105  A(2,27,28)             94.7194         calculate D2E/DX2 analytically  !
 ! A106  A(2,27,32)            149.9466         calculate D2E/DX2 analytically  !
 ! A107  A(13,27,16)           129.5773         calculate D2E/DX2 analytically  !
 ! A108  A(13,27,28)            90.8223         calculate D2E/DX2 analytically  !
 ! A109  A(13,27,32)           108.8928         calculate D2E/DX2 analytically  !
 ! A110  A(16,27,28)           139.3974         calculate D2E/DX2 analytically  !
 ! A111  A(16,27,32)            80.391          calculate D2E/DX2 analytically  !
 ! A112  A(28,27,32)            90.996          calculate D2E/DX2 analytically  !
 ! A113  A(18,30,31)           106.0978         calculate D2E/DX2 analytically  !
 ! A114  A(27,32,33)            93.539          calculate D2E/DX2 analytically  !
 ! A115  A(27,32,34)            88.856          calculate D2E/DX2 analytically  !
 ! A116  A(33,32,34)            92.6117         calculate D2E/DX2 analytically  !
 ! A117  A(26,34,32)           137.9425         calculate D2E/DX2 analytically  !
 ! A118  L(3,1,13,2,-1)        174.0646         calculate D2E/DX2 analytically  !
 ! A119  L(6,10,16,2,-1)       166.5168         calculate D2E/DX2 analytically  !
 ! A120  L(7,19,20,9,-1)       172.0361         calculate D2E/DX2 analytically  !
 ! A121  L(9,19,22,7,-1)       172.3598         calculate D2E/DX2 analytically  !
 ! A122  L(15,19,21,7,-1)      183.2784         calculate D2E/DX2 analytically  !
 ! A123  L(19,20,23,2,-1)      180.5816         calculate D2E/DX2 analytically  !
 ! A124  L(19,21,24,30,-1)     181.9461         calculate D2E/DX2 analytically  !
 ! A125  L(19,22,25,8,-1)      179.0558         calculate D2E/DX2 analytically  !
 ! A126  L(27,28,29,5,-1)      181.6828         calculate D2E/DX2 analytically  !
 ! A127  L(3,1,13,2,-2)        170.8868         calculate D2E/DX2 analytically  !
 ! A128  L(6,10,16,2,-2)       175.6606         calculate D2E/DX2 analytically  !
 ! A129  L(7,19,20,9,-2)       184.4965         calculate D2E/DX2 analytically  !
 ! A130  L(9,19,22,7,-2)       170.4537         calculate D2E/DX2 analytically  !
 ! A131  L(15,19,21,7,-2)      187.2615         calculate D2E/DX2 analytically  !
 ! A132  L(19,20,23,2,-2)      179.237          calculate D2E/DX2 analytically  !
 ! A133  L(19,21,24,30,-2)     178.8847         calculate D2E/DX2 analytically  !
 ! A134  L(19,22,25,8,-2)      179.1305         calculate D2E/DX2 analytically  !
 ! A135  L(27,28,29,5,-2)      183.2585         calculate D2E/DX2 analytically  !
 ! D1    D(3,1,2,27)           179.015          calculate D2E/DX2 analytically  !
 ! D2    D(4,1,2,27)           -75.4618         calculate D2E/DX2 analytically  !
 ! D3    D(5,1,2,27)            84.099          calculate D2E/DX2 analytically  !
 ! D4    D(6,1,2,27)          -130.0023         calculate D2E/DX2 analytically  !
 ! D5    D(13,1,2,27)            8.1281         calculate D2E/DX2 analytically  !
 ! D6    D(18,1,2,27)          171.6654         calculate D2E/DX2 analytically  !
 ! D7    D(2,1,6,7)             84.1988         calculate D2E/DX2 analytically  !
 ! D8    D(2,1,6,9)              3.884          calculate D2E/DX2 analytically  !
 ! D9    D(2,1,6,11)          -170.6281         calculate D2E/DX2 analytically  !
 ! D10   D(5,1,6,7)           -110.7946         calculate D2E/DX2 analytically  !
 ! D11   D(5,1,6,9)            168.8906         calculate D2E/DX2 analytically  !
 ! D12   D(5,1,6,11)            -5.6215         calculate D2E/DX2 analytically  !
 ! D13   D(13,1,6,7)           -20.2059         calculate D2E/DX2 analytically  !
 ! D14   D(13,1,6,9)          -100.5207         calculate D2E/DX2 analytically  !
 ! D15   D(13,1,6,11)           84.9672         calculate D2E/DX2 analytically  !
 ! D16   D(3,1,10,9)            -4.3058         calculate D2E/DX2 analytically  !
 ! D17   D(3,1,10,15)         -130.196          calculate D2E/DX2 analytically  !
 ! D18   D(3,1,10,16)          126.936          calculate D2E/DX2 analytically  !
 ! D19   D(3,1,10,19)          -49.1838         calculate D2E/DX2 analytically  !
 ! D20   D(5,1,10,9)           107.4438         calculate D2E/DX2 analytically  !
 ! D21   D(5,1,10,15)          -18.4465         calculate D2E/DX2 analytically  !
 ! D22   D(5,1,10,16)         -121.3144         calculate D2E/DX2 analytically  !
 ! D23   D(5,1,10,19)           62.5657         calculate D2E/DX2 analytically  !
 ! D24   D(13,1,10,9)         -174.3261         calculate D2E/DX2 analytically  !
 ! D25   D(13,1,10,15)          59.7837         calculate D2E/DX2 analytically  !
 ! D26   D(13,1,10,16)         -43.0843         calculate D2E/DX2 analytically  !
 ! D27   D(13,1,10,19)         140.7959         calculate D2E/DX2 analytically  !
 ! D28   D(18,1,10,9)           41.2594         calculate D2E/DX2 analytically  !
 ! D29   D(18,1,10,15)         -84.6308         calculate D2E/DX2 analytically  !
 ! D30   D(18,1,10,16)         172.5012         calculate D2E/DX2 analytically  !
 ! D31   D(18,1,10,19)          -3.6186         calculate D2E/DX2 analytically  !
 ! D32   D(2,1,13,14)          101.835          calculate D2E/DX2 analytically  !
 ! D33   D(2,1,13,27)           -8.4517         calculate D2E/DX2 analytically  !
 ! D34   D(4,1,13,14)         -149.6301         calculate D2E/DX2 analytically  !
 ! D35   D(4,1,13,27)          100.0832         calculate D2E/DX2 analytically  !
 ! D36   D(5,1,13,14)          -51.9591         calculate D2E/DX2 analytically  !
 ! D37   D(5,1,13,27)         -162.2459         calculate D2E/DX2 analytically  !
 ! D38   D(6,1,13,14)         -151.4263         calculate D2E/DX2 analytically  !
 ! D39   D(6,1,13,27)           98.2869         calculate D2E/DX2 analytically  !
 ! D40   D(10,1,13,14)         158.2087         calculate D2E/DX2 analytically  !
 ! D41   D(10,1,13,27)          47.922          calculate D2E/DX2 analytically  !
 ! D42   D(18,1,13,14)         -62.4637         calculate D2E/DX2 analytically  !
 ! D43   D(18,1,13,27)        -172.7505         calculate D2E/DX2 analytically  !
 ! D44   D(2,1,18,11)          111.6863         calculate D2E/DX2 analytically  !
 ! D45   D(2,1,18,30)          -47.384          calculate D2E/DX2 analytically  !
 ! D46   D(4,1,18,11)           -7.4767         calculate D2E/DX2 analytically  !
 ! D47   D(4,1,18,30)         -166.547          calculate D2E/DX2 analytically  !
 ! D48   D(10,1,18,11)          39.5286         calculate D2E/DX2 analytically  !
 ! D49   D(10,1,18,30)        -119.5418         calculate D2E/DX2 analytically  !
 ! D50   D(13,1,18,11)         -90.2904         calculate D2E/DX2 analytically  !
 ! D51   D(13,1,18,30)         110.6392         calculate D2E/DX2 analytically  !
 ! D52   D(27,2,10,4)           77.7743         calculate D2E/DX2 analytically  !
 ! D53   D(27,2,10,6)          129.4705         calculate D2E/DX2 analytically  !
 ! D54   D(27,2,10,9)         -174.7448         calculate D2E/DX2 analytically  !
 ! D55   D(27,2,10,15)         -22.0962         calculate D2E/DX2 analytically  !
 ! D56   D(27,2,10,16)         -46.1901         calculate D2E/DX2 analytically  !
 ! D57   D(27,2,10,19)        -151.5532         calculate D2E/DX2 analytically  !
 ! D58   D(1,2,27,13)           -9.2356         calculate D2E/DX2 analytically  !
 ! D59   D(1,2,27,16)          119.1997         calculate D2E/DX2 analytically  !
 ! D60   D(1,2,27,28)         -100.9529         calculate D2E/DX2 analytically  !
 ! D61   D(1,2,27,32)          158.8225         calculate D2E/DX2 analytically  !
 ! D62   D(10,2,27,13)         -80.6867         calculate D2E/DX2 analytically  !
 ! D63   D(10,2,27,16)          47.7486         calculate D2E/DX2 analytically  !
 ! D64   D(10,2,27,28)        -172.404          calculate D2E/DX2 analytically  !
 ! D65   D(10,2,27,32)          87.3714         calculate D2E/DX2 analytically  !
 ! D66   D(1,3,6,18)            74.5452         calculate D2E/DX2 analytically  !
 ! D67   D(1,4,6,10)            78.5634         calculate D2E/DX2 analytically  !
 ! D68   D(1,6,7,8)             61.4773         calculate D2E/DX2 analytically  !
 ! D69   D(1,6,7,19)           -55.4762         calculate D2E/DX2 analytically  !
 ! D70   D(3,6,7,8)           -163.9716         calculate D2E/DX2 analytically  !
 ! D71   D(3,6,7,19)            79.0749         calculate D2E/DX2 analytically  !
 ! D72   D(4,6,7,8)             43.4869         calculate D2E/DX2 analytically  !
 ! D73   D(4,6,7,19)           -73.4666         calculate D2E/DX2 analytically  !
 ! D74   D(9,6,7,8)            145.8046         calculate D2E/DX2 analytically  !
 ! D75   D(9,6,7,19)            28.8512         calculate D2E/DX2 analytically  !
 ! D76   D(10,6,7,8)            96.7458         calculate D2E/DX2 analytically  !
 ! D77   D(10,6,7,19)          -20.2077         calculate D2E/DX2 analytically  !
 ! D78   D(11,6,7,8)           -46.6855         calculate D2E/DX2 analytically  !
 ! D79   D(11,6,7,19)         -163.6389         calculate D2E/DX2 analytically  !
 ! D80   D(18,6,7,8)           -55.6198         calculate D2E/DX2 analytically  !
 ! D81   D(18,6,7,19)         -172.5733         calculate D2E/DX2 analytically  !
 ! D82   D(1,6,9,19)           116.0468         calculate D2E/DX2 analytically  !
 ! D83   D(3,6,9,19)           169.859          calculate D2E/DX2 analytically  !
 ! D84   D(4,6,9,19)            62.2853         calculate D2E/DX2 analytically  !
 ! D85   D(7,6,9,19)           -31.6512         calculate D2E/DX2 analytically  !
 ! D86   D(11,6,9,19)          -84.1612         calculate D2E/DX2 analytically  !
 ! D87   D(18,6,9,19)          166.2818         calculate D2E/DX2 analytically  !
 ! D88   D(3,6,10,2)             8.0554         calculate D2E/DX2 analytically  !
 ! D89   D(3,6,10,15)          177.0776         calculate D2E/DX2 analytically  !
 ! D90   D(3,6,10,19)         -132.9522         calculate D2E/DX2 analytically  !
 ! D91   D(7,6,10,2)           160.3347         calculate D2E/DX2 analytically  !
 ! D92   D(7,6,10,15)          -30.6432         calculate D2E/DX2 analytically  !
 ! D93   D(7,6,10,19)           19.3271         calculate D2E/DX2 analytically  !
 ! D94   D(11,6,10,2)         -106.3901         calculate D2E/DX2 analytically  !
 ! D95   D(11,6,10,15)          62.6321         calculate D2E/DX2 analytically  !
 ! D96   D(11,6,10,19)         112.6023         calculate D2E/DX2 analytically  !
 ! D97   D(18,6,10,2)          -38.7492         calculate D2E/DX2 analytically  !
 ! D98   D(18,6,10,15)         130.2729         calculate D2E/DX2 analytically  !
 ! D99   D(18,6,10,19)        -179.7569         calculate D2E/DX2 analytically  !
 ! D100  D(1,6,11,12)          -55.1118         calculate D2E/DX2 analytically  !
 ! D101  D(3,6,11,12)         -111.6676         calculate D2E/DX2 analytically  !
 ! D102  D(4,6,11,12)           -2.0647         calculate D2E/DX2 analytically  !
 ! D103  D(7,6,11,12)           93.7863         calculate D2E/DX2 analytically  !
 ! D104  D(9,6,11,12)          145.357          calculate D2E/DX2 analytically  !
 ! D105  D(10,6,11,12)          -0.7407         calculate D2E/DX2 analytically  !
 ! D106  D(4,6,18,5)            12.3806         calculate D2E/DX2 analytically  !
 ! D107  D(4,6,18,30)          168.9878         calculate D2E/DX2 analytically  !
 ! D108  D(7,6,18,5)           113.156          calculate D2E/DX2 analytically  !
 ! D109  D(7,6,18,30)          -90.2368         calculate D2E/DX2 analytically  !
 ! D110  D(9,6,18,5)           -96.6443         calculate D2E/DX2 analytically  !
 ! D111  D(9,6,18,30)           59.9629         calculate D2E/DX2 analytically  !
 ! D112  D(10,6,18,5)          -34.5867         calculate D2E/DX2 analytically  !
 ! D113  D(10,6,18,30)         122.0205         calculate D2E/DX2 analytically  !
 ! D114  D(6,7,19,9)           -29.4667         calculate D2E/DX2 analytically  !
 ! D115  D(6,7,19,10)           20.4314         calculate D2E/DX2 analytically  !
 ! D116  D(6,7,19,15)           74.7433         calculate D2E/DX2 analytically  !
 ! D117  D(6,7,19,21)         -112.5182         calculate D2E/DX2 analytically  !
 ! D118  D(6,7,19,22)          160.0796         calculate D2E/DX2 analytically  !
 ! D119  D(8,7,19,9)          -133.4683         calculate D2E/DX2 analytically  !
 ! D120  D(8,7,19,10)          -83.5702         calculate D2E/DX2 analytically  !
 ! D121  D(8,7,19,15)          -29.2583         calculate D2E/DX2 analytically  !
 ! D122  D(8,7,19,21)          143.4802         calculate D2E/DX2 analytically  !
 ! D123  D(8,7,19,22)           56.0781         calculate D2E/DX2 analytically  !
 ! D124  D(6,9,19,7)            29.2466         calculate D2E/DX2 analytically  !
 ! D125  D(6,9,19,15)          -64.8223         calculate D2E/DX2 analytically  !
 ! D126  D(6,9,19,20)         -155.25           calculate D2E/DX2 analytically  !
 ! D127  D(6,9,19,21)          116.8908         calculate D2E/DX2 analytically  !
 ! D128  D(1,10,15,17)        -137.3245         calculate D2E/DX2 analytically  !
 ! D129  D(2,10,15,17)         -47.5631         calculate D2E/DX2 analytically  !
 ! D130  D(4,10,15,17)        -152.1054         calculate D2E/DX2 analytically  !
 ! D131  D(6,10,15,17)         161.9816         calculate D2E/DX2 analytically  !
 ! D132  D(9,10,15,17)         102.8039         calculate D2E/DX2 analytically  !
 ! D133  D(16,10,15,17)        -24.6431         calculate D2E/DX2 analytically  !
 ! D134  D(1,10,16,26)          97.2744         calculate D2E/DX2 analytically  !
 ! D135  D(1,10,16,27)           8.621          calculate D2E/DX2 analytically  !
 ! D136  D(2,10,16,26)         135.896          calculate D2E/DX2 analytically  !
 ! D137  D(2,10,16,27)          47.2427         calculate D2E/DX2 analytically  !
 ! D138  D(4,10,16,26)          41.0146         calculate D2E/DX2 analytically  !
 ! D139  D(4,10,16,27)         -47.6387         calculate D2E/DX2 analytically  !
 ! D140  D(9,10,16,26)        -149.7711         calculate D2E/DX2 analytically  !
 ! D141  D(9,10,16,27)         121.5756         calculate D2E/DX2 analytically  !
 ! D142  D(15,10,16,26)        -35.0448         calculate D2E/DX2 analytically  !
 ! D143  D(15,10,16,27)       -123.6981         calculate D2E/DX2 analytically  !
 ! D144  D(19,10,16,26)        -85.5762         calculate D2E/DX2 analytically  !
 ! D145  D(19,10,16,27)       -174.2296         calculate D2E/DX2 analytically  !
 ! D146  D(1,10,19,7)          -15.9906         calculate D2E/DX2 analytically  !
 ! D147  D(1,10,19,20)         155.0476         calculate D2E/DX2 analytically  !
 ! D148  D(1,10,19,21)          68.0676         calculate D2E/DX2 analytically  !
 ! D149  D(1,10,19,22)        -113.7579         calculate D2E/DX2 analytically  !
 ! D150  D(2,10,19,7)         -101.7578         calculate D2E/DX2 analytically  !
 ! D151  D(2,10,19,20)          69.2804         calculate D2E/DX2 analytically  !
 ! D152  D(2,10,19,21)         -17.6996         calculate D2E/DX2 analytically  !
 ! D153  D(2,10,19,22)         160.475          calculate D2E/DX2 analytically  !
 ! D154  D(4,10,19,7)           29.4934         calculate D2E/DX2 analytically  !
 ! D155  D(4,10,19,20)        -159.4684         calculate D2E/DX2 analytically  !
 ! D156  D(4,10,19,21)         113.5516         calculate D2E/DX2 analytically  !
 ! D157  D(4,10,19,22)         -68.2739         calculate D2E/DX2 analytically  !
 ! D158  D(6,10,19,7)          -17.6723         calculate D2E/DX2 analytically  !
 ! D159  D(6,10,19,20)         153.3658         calculate D2E/DX2 analytically  !
 ! D160  D(6,10,19,21)          66.3858         calculate D2E/DX2 analytically  !
 ! D161  D(6,10,19,22)        -115.4396         calculate D2E/DX2 analytically  !
 ! D162  D(16,10,19,7)         168.0017         calculate D2E/DX2 analytically  !
 ! D163  D(16,10,19,20)        -20.9602         calculate D2E/DX2 analytically  !
 ! D164  D(16,10,19,21)       -107.9402         calculate D2E/DX2 analytically  !
 ! D165  D(16,10,19,22)         70.2344         calculate D2E/DX2 analytically  !
 ! D166  D(12,11,18,1)          65.4086         calculate D2E/DX2 analytically  !
 ! D167  D(12,11,18,3)         124.3506         calculate D2E/DX2 analytically  !
 ! D168  D(12,11,18,5)           6.1059         calculate D2E/DX2 analytically  !
 ! D169  D(12,11,18,30)       -131.8032         calculate D2E/DX2 analytically  !
 ! D170  D(1,13,27,2)            8.5998         calculate D2E/DX2 analytically  !
 ! D171  D(1,13,27,16)         -72.0171         calculate D2E/DX2 analytically  !
 ! D172  D(1,13,27,28)         103.5536         calculate D2E/DX2 analytically  !
 ! D173  D(1,13,27,32)        -165.1122         calculate D2E/DX2 analytically  !
 ! D174  D(14,13,27,2)         -93.2397         calculate D2E/DX2 analytically  !
 ! D175  D(14,13,27,16)       -173.8566         calculate D2E/DX2 analytically  !
 ! D176  D(14,13,27,28)          1.7141         calculate D2E/DX2 analytically  !
 ! D177  D(14,13,27,32)         93.0484         calculate D2E/DX2 analytically  !
 ! D178  D(17,15,19,7)         176.5444         calculate D2E/DX2 analytically  !
 ! D179  D(17,15,19,9)        -105.074          calculate D2E/DX2 analytically  !
 ! D180  D(17,15,19,20)        -10.0295         calculate D2E/DX2 analytically  !
 ! D181  D(17,15,19,22)         81.7197         calculate D2E/DX2 analytically  !
 ! D182  D(10,16,26,34)       -109.7247         calculate D2E/DX2 analytically  !
 ! D183  D(27,16,26,34)        -24.5075         calculate D2E/DX2 analytically  !
 ! D184  D(10,16,27,2)         -48.8533         calculate D2E/DX2 analytically  !
 ! D185  D(10,16,27,13)         43.4206         calculate D2E/DX2 analytically  !
 ! D186  D(10,16,27,28)       -129.7649         calculate D2E/DX2 analytically  !
 ! D187  D(10,16,27,32)        150.0472         calculate D2E/DX2 analytically  !
 ! D188  D(26,16,27,2)         177.1313         calculate D2E/DX2 analytically  !
 ! D189  D(26,16,27,13)        -90.5948         calculate D2E/DX2 analytically  !
 ! D190  D(26,16,27,28)         96.2197         calculate D2E/DX2 analytically  !
 ! D191  D(26,16,27,32)         16.0318         calculate D2E/DX2 analytically  !
 ! D192  D(1,18,30,31)          44.5793         calculate D2E/DX2 analytically  !
 ! D193  D(3,18,30,31)           0.493          calculate D2E/DX2 analytically  !
 ! D194  D(5,18,30,31)         113.2            calculate D2E/DX2 analytically  !
 ! D195  D(6,18,30,31)         -41.6144         calculate D2E/DX2 analytically  !
 ! D196  D(11,18,30,31)       -112.0998         calculate D2E/DX2 analytically  !
 ! D197  D(16,26,34,32)         12.7814         calculate D2E/DX2 analytically  !
 ! D198  D(2,27,32,33)        -144.9403         calculate D2E/DX2 analytically  !
 ! D199  D(2,27,32,34)         -52.3939         calculate D2E/DX2 analytically  !
 ! D200  D(13,27,32,33)         22.6425         calculate D2E/DX2 analytically  !
 ! D201  D(13,27,32,34)        115.1889         calculate D2E/DX2 analytically  !
 ! D202  D(16,27,32,33)       -106.0426         calculate D2E/DX2 analytically  !
 ! D203  D(16,27,32,34)        -13.4962         calculate D2E/DX2 analytically  !
 ! D204  D(28,27,32,33)        113.8527         calculate D2E/DX2 analytically  !
 ! D205  D(28,27,32,34)       -153.601          calculate D2E/DX2 analytically  !
 ! D206  D(27,32,34,26)          8.1626         calculate D2E/DX2 analytically  !
 ! D207  D(33,32,34,26)        101.6536         calculate D2E/DX2 analytically  !
 --------------------------------------------------------------------------------
 Trust Radius=3.00D-01 FncErr=1.00D-07 GrdErr=1.00D-06 EigMax=2.50D+02 EigMin=1.00D-04
 Number of steps in this run=    204 maximum allowed number of steps=    204.
 Search for a saddle point of order  1.
 GradGradGradGradGradGradGradGradGradGradGradGradGradGradGradGradGradGrad

                          Input orientation:                          
 ---------------------------------------------------------------------
 Center     Atomic      Atomic             Coordinates (Angstroms)
 Number     Number       Type             X           Y           Z
 ---------------------------------------------------------------------
      1         42           0        0.484196    1.074521    9.840939
      2         16           0        0.566687    3.297996   10.853379
      3         16           0       -1.654885    1.038808   11.016942
      4         16           0        0.023555    1.306035    7.535815
      5         16           0        0.981585   -1.291198    9.780438
      6         42           0       -2.050222    1.217402    8.658983
      7         16           0       -3.419599    1.931347    6.718389
      8          1           0       -2.883116    1.209853    5.711237
      9         16           0       -2.445644    3.607097    9.306863
     10         42           0       -0.279807    3.502246    8.456003
     11         16           0       -2.345525   -1.197271    7.944862
     12          1           0       -1.273983   -1.510783    7.177620
     13         16           0        2.989504    1.199359    9.020690
     14          1           0        3.672073    0.447178    9.922639
     15         16           0       -0.209535    4.085911    6.030023
     16         16           0        1.499409    5.222428    8.782438
     17          1           0        0.266931    5.348696    6.055484
     18         42           0       -1.227685   -1.071895   10.089687
     19         42           0       -2.527627    4.467195    6.968590
     20          6           0       -1.997508    6.311490    7.440581
     21          6           0       -4.443632    4.936883    7.498960
     22          6           0       -3.002665    5.029522    5.057338
     23          8           0       -1.681003    7.399478    7.700009
     24          8           0       -5.515535    5.244603    7.789487
     25          8           0       -3.286773    5.327847    3.981000
     26          1           0        2.769986    5.723709    7.890846
     27         42           0        2.741690    3.429830    9.754818
     28          6           0        3.765207    3.039458   11.376706
     29          8           0        4.336518    2.858505   12.371722
     30         16           0       -2.157813   -2.185623   11.918825
     31          1           0       -2.577423   -1.225138   12.767629
     32         16           0        4.611358    4.785984    8.849312
     33          1           0        4.851541    3.926793    7.829270
     34          1           0        3.490882    5.666137    7.946237
 ---------------------------------------------------------------------
                    Distance matrix (angstroms):
                    1          2          3          4          5
     1  Mo   0.000000
     2  S    2.444521   0.000000
     3  S    2.441296   3.172706   0.000000
     4  S    2.362072   3.907574   3.873863   0.000000
     5  S    2.418198   4.731178   3.729456   3.563955   0.000000
     6  Mo   2.800127   3.999057   2.397532   2.360066   4.091771
     7  S    5.071892   5.903926   4.731638   3.593676   6.255506
     8  H    5.330248   6.534761   5.448698   3.433231   6.144068
     9  S    3.909366   3.400205   3.185244   3.811619   5.996955
    10  Mo   2.897516   2.550624   3.810220   2.400441   5.130531
    11  S    4.094321   6.094906   3.861957   3.470792   3.801029
    12  H    4.107099   6.326423   4.624489   3.121918   3.451154
    13  S    2.639121   3.692299   5.057781   3.318597   3.288135
    14  H    3.250045   4.317043   5.470284   4.443675   3.206384
    15  S    4.906405   4.948545   6.020235   3.170087   6.663158
    16  S    4.399570   2.976946   5.696074   4.366961   6.609952
    17  H    5.713619   5.226377   6.847231   4.312044   7.646843
    18  Mo   2.756722   4.785284   2.344647   3.707076   2.241563
    19  Mo   5.369516   5.102293   5.376306   4.101610   7.306172
    20  C    6.272672   5.225269   6.380355   5.398921   8.494162
    21  C    6.684773   6.248310   5.945443   5.756750   8.568962
    22  C    7.119204   7.023713   7.297889   5.400482   8.839311
    23  O    7.019740   5.640745   7.173622   6.329496   9.324452
    24  O    7.589125   7.083088   6.558185   6.801337   9.428316
    25  O    8.163937   8.136279   8.400202   6.306342   9.780804
    26  H    5.535580   4.417602   7.162420   5.213902   7.481835
    27  Mo   3.263614   2.440257   5.161377   4.101553   5.038525
    28  C    4.121237   3.251345   5.788733   5.635349   5.389917
    29  O    4.942453   4.087804   6.406531   6.663168   5.932147
    30  S    4.682559   6.215155   3.385747   6.013387   3.902373
    31  H    4.819487   5.831683   3.006898   6.367401   4.646957
    32  S    5.638417   4.752868   7.616151   5.906205   7.139635
    33  H    5.590704   5.282101   7.799698   5.501267   6.783144
    34  H    5.806289   4.755048   7.571018   5.585812   7.620064
                    6          7          8          9         10
     6  Mo   0.000000
     7  S    2.480084   0.000000
     8  H    3.063164   1.350082   0.000000
     9  S    2.507339   3.233717   4.343580   0.000000
    10  Mo   2.897599   3.917310   4.423350   2.329336   0.000000
    11  S    2.535314   3.527906   3.327511   4.994699   5.158868
    12  H    3.199996   4.082012   3.484458   5.665612   5.268122
    13  S    5.052722   6.849306   6.740939   5.951465   4.038633
    14  H    5.910561   7.922234   7.828671   6.913084   5.205941
    15  S    4.304405   3.926895   3.939717   3.995889   2.496193
    16  S    5.353070   6.268026   6.688764   4.295085   2.496236
    17  H    5.405090   5.070327   5.212612   4.578504   3.077465
    18  Mo   2.822120   5.018924   5.207461   4.897877   4.948754
    19  Mo   3.694117   2.699767   3.509642   2.492792   2.862904
    20  C    5.238035   4.661497   5.459087   3.316259   3.445784
    21  C    4.572593   3.269737   4.418361   3.004796   4.506834
    22  C    5.330221   3.540002   3.877080   4.515753   4.614916
    23  O    6.266899   5.821233   6.611486   4.189130   4.209904
    24  O    5.383564   4.064218   5.246709   3.795799   5.558138
    25  O    6.348885   4.364304   4.484923   5.659796   5.692127
    26  H    6.643135   7.353069   7.555339   5.804132   3.815172
    27  Mo   5.390558   7.030422   7.274427   5.209657   3.289621
    28  C    6.672715   8.634192   8.924416   6.571235   5.010670
    29  O    7.567569   9.642466   9.960082   7.480072   6.087505
    30  S    4.713674   6.751746   7.112628   6.360880   6.918807
    31  H    4.808837   6.875025   7.470964   5.945146   6.798332
    32  S    7.559607   8.785559   8.877126   7.169408   5.072097
    33  H    7.460801   8.580654   8.467157   7.452140   5.186884
    34  H    7.141644   7.950535   8.092067   6.429097   4.377257
                   11         12         13         14         15
    11  S    0.000000
    12  H    1.354678   0.000000
    13  S    5.946745   5.377648   0.000000
    14  H    6.544257   5.986001   1.358377   0.000000
    15  S    6.011745   5.811455   5.245009   6.592398   0.000000
    16  S    7.529780   7.456760   4.296770   5.368756   3.433358
    17  H    7.296873   7.119414   5.781163   7.111593   1.349924
    18  Mo   2.421892   2.945318   4.907752   5.132555   6.642324
    19  Mo   5.750865   6.111590   6.732652   7.957589   2.529790
    20  C    7.533718   7.860063   7.314432   8.526131   3.184293
    21  C    6.498363   7.191824   8.457911   9.586258   4.561744
    22  C    6.895113   7.089395   8.141523   9.445695   3.104528
    23  O    8.625870   8.934837   7.873964   9.051518   3.991716
    24  O    7.181284   8.000024   9.498187  10.581955   5.708933
    25  O    7.692549   7.812590   9.046245  10.370610   3.900038
    26  H    8.606471   8.318669   4.668456   5.725707   3.875899
    27  Mo   7.110961   6.868569   2.361219   3.128896   4.797319
    28  C    8.189534   7.983135   3.088445   2.973701   6.743935
    29  O    8.983101   8.806083   3.974497   3.500570   7.898751
    30  S    4.099324   4.869865   6.808242   6.701042   8.820766
    31  H    4.828419   5.747064   7.135013   7.067306   8.899970
    32  S    9.220390   8.779582   3.940008   4.567223   5.628455
    33  H    8.835562   8.216686   3.510778   4.228600   5.373742
    34  H    9.009440   8.648866   4.621465   5.583595   4.456689
                   16         17         18         19         20
    16  S    0.000000
    17  H    2.995200   0.000000
    18  Mo   6.983154   7.728691   0.000000
    19  Mo   4.480786   3.069261   6.489423   0.000000
    20  C    3.900649   2.823677   7.881926   1.976164   0.000000
    21  C    6.086755   4.943947   7.291063   2.042786   2.806506
    22  C    5.846559   3.433428   8.105700   2.048111   2.886803
    23  O    4.003276   3.271791   8.813638   3.138476   1.162410
    24  O    7.084905   6.037757   7.973376   3.194656   3.692763
    25  O    6.780299   4.114940   9.083645   3.200425   3.820793
    26  H    1.631130   3.126415   8.185140   5.522145   4.824648
    27  Mo   2.387926   4.846808   6.011123   6.050198   6.009963
    28  C    4.077919   6.773915   6.594590   7.814709   7.707669
    29  O    5.149784   7.915646   7.184433   8.882466   8.738372
    30  S    8.836935   9.850082   2.334796   8.300697   9.606315
    31  H    8.606591   9.816238   3.002774   8.126130   9.247405
    32  S    3.143117   5.195783   8.363474   7.389442   6.927395
    33  H    3.718062   5.117301   8.188611   7.448820   7.262736
    34  H    2.205011   3.750943   8.500607   6.214154   5.549288
                   21         22         23         24         25
    21  C    0.000000
    22  C    2.836633   0.000000
    23  O    3.706334   3.787769   0.000000
    24  O    1.152421   3.718254   4.399446   0.000000
    25  O    3.723871   1.152484   4.549855   4.413489   0.000000
    26  H    7.266977   6.467933   4.759824   8.299980   7.219968
    27  Mo   7.680427   7.590978   6.288128   8.679729   8.560479
    28  C    9.274814   9.470948   7.886005  10.191319  10.472040
    29  O   10.254487  10.586649   8.868816  11.124446  11.602432
    30  S    8.688513   9.992602  10.483316   9.139693  10.987987
    31  H    8.319382   9.937313  10.043323   8.675941  10.984063
    32  S    9.156367   8.509508   6.909780  10.192523   9.293791
    33  H    9.355727   8.401677   7.399350  10.450573   9.110669
    34  H    7.980500   7.135627   5.460173   9.017639   7.859653
                   26         27         28         29         30
    26  H    0.000000
    27  Mo   2.955854   0.000000
    28  C    4.510753   1.957166   0.000000
    29  O    5.544517   3.117383   1.161549   0.000000
    30  S   10.152111   7.760243   7.916914   8.235574   0.000000
    31  H   10.033159   7.683666   7.768552   8.039618   1.348730
    32  S    2.277858   2.480878   3.186541   4.024684  10.190529
    33  H    2.750558   2.899341   3.814680   4.694716  10.159583
    34  H    0.725309   2.972091   4.329297   5.308749  10.456546
                   31         32         33         34
    31  H    0.000000
    32  S   10.157035   0.000000
    33  H   10.301422   1.355132   0.000000
    34  H   10.371105   1.686914   2.211423   0.000000
 Symmetry turned off by external request.
 Stoichiometry    C4H8Mo6O4S12
 Framework group  C1[X(C4H8Mo6O4S12)]
 Deg. of freedom    96
 Full point group                 C1      NOp   1
 Rotational constants (GHZ):           0.0733451           0.0646478           0.0401277
 General basis read from cards:  (5D, 7F)
 ======================================================================================================
                                       Pseudopotential Parameters
 ======================================================================================================
  Center     Atomic      Valence      Angular      Power
  Number     Number     Electrons     Momentum     of R      Exponent        Coefficient   SO-Coeffient
 ======================================================================================================
    1         42           14
                                      F and up 
                                                     0      537.9667807       -0.04694920    0.00000000
                                                     1      147.8982938      -20.20800840    0.00000000
                                                     2       45.7358898     -106.21163020    0.00000000
                                                     2       13.2911467      -41.81073680    0.00000000
                                                     2        4.7059961       -4.20541030    0.00000000
                                      S - F
                                                     0      110.2991760        2.80637170    0.00000000
                                                     1       23.2014645       44.51620120    0.00000000
                                                     2        5.3530131       82.77852270    0.00000000
                                      P - F
                                                     0       63.2901397        4.94208760    0.00000000
                                                     1       23.3315302       25.86049760    0.00000000
                                                     2       24.6759423      132.47087420    0.00000000
                                                     2        4.6493040       57.31497940    0.00000000
                                      D - F
                                                     0      104.4839977        3.00545910    0.00000000
                                                     1       66.2307245       26.36378510    0.00000000
                                                     2       39.1283176      183.38491990    0.00000000
                                                     2       13.1164437       98.44530680    0.00000000
                                                     2        3.6280263       22.49013770    0.00000000
    2         16
                                   No pseudopotential on this center.
    3         16
                                   No pseudopotential on this center.
    4         16
                                   No pseudopotential on this center.
    5         16
                                   No pseudopotential on this center.
    6         42           14
                                      F and up 
                                                     0      537.9667807       -0.04694920    0.00000000
                                                     1      147.8982938      -20.20800840    0.00000000
                                                     2       45.7358898     -106.21163020    0.00000000
                                                     2       13.2911467      -41.81073680    0.00000000
                                                     2        4.7059961       -4.20541030    0.00000000
                                      S - F
                                                     0      110.2991760        2.80637170    0.00000000
                                                     1       23.2014645       44.51620120    0.00000000
                                                     2        5.3530131       82.77852270    0.00000000
                                      P - F
                                                     0       63.2901397        4.94208760    0.00000000
                                                     1       23.3315302       25.86049760    0.00000000
                                                     2       24.6759423      132.47087420    0.00000000
                                                     2        4.6493040       57.31497940    0.00000000
                                      D - F
                                                     0      104.4839977        3.00545910    0.00000000
                                                     1       66.2307245       26.36378510    0.00000000
                                                     2       39.1283176      183.38491990    0.00000000
                                                     2       13.1164437       98.44530680    0.00000000
                                                     2        3.6280263       22.49013770    0.00000000
    7         16
                                   No pseudopotential on this center.
    8          1
                                   No pseudopotential on this center.
    9         16
                                   No pseudopotential on this center.
   10         42           14
                                      F and up 
                                                     0      537.9667807       -0.04694920    0.00000000
                                                     1      147.8982938      -20.20800840    0.00000000
                                                     2       45.7358898     -106.21163020    0.00000000
                                                     2       13.2911467      -41.81073680    0.00000000
                                                     2        4.7059961       -4.20541030    0.00000000
                                      S - F
                                                     0      110.2991760        2.80637170    0.00000000
                                                     1       23.2014645       44.51620120    0.00000000
                                                     2        5.3530131       82.77852270    0.00000000
                                      P - F
                                                     0       63.2901397        4.94208760    0.00000000
                                                     1       23.3315302       25.86049760    0.00000000
                                                     2       24.6759423      132.47087420    0.00000000
                                                     2        4.6493040       57.31497940    0.00000000
                                      D - F
                                                     0      104.4839977        3.00545910    0.00000000
                                                     1       66.2307245       26.36378510    0.00000000
                                                     2       39.1283176      183.38491990    0.00000000
                                                     2       13.1164437       98.44530680    0.00000000
                                                     2        3.6280263       22.49013770    0.00000000
   11         16
                                   No pseudopotential on this center.
   12          1
                                   No pseudopotential on this center.
   13         16
                                   No pseudopotential on this center.
   14          1
                                   No pseudopotential on this center.
   15         16
                                   No pseudopotential on this center.
   16         16
                                   No pseudopotential on this center.
   17          1
                                   No pseudopotential on this center.
   18         42           14
                                      F and up 
                                                     0      537.9667807       -0.04694920    0.00000000
                                                     1      147.8982938      -20.20800840    0.00000000
                                                     2       45.7358898     -106.21163020    0.00000000
                                                     2       13.2911467      -41.81073680    0.00000000
                                                     2        4.7059961       -4.20541030    0.00000000
                                      S - F
                                                     0      110.2991760        2.80637170    0.00000000
                                                     1       23.2014645       44.51620120    0.00000000
                                                     2        5.3530131       82.77852270    0.00000000
                                      P - F
                                                     0       63.2901397        4.94208760    0.00000000
                                                     1       23.3315302       25.86049760    0.00000000
                                                     2       24.6759423      132.47087420    0.00000000
                                                     2        4.6493040       57.31497940    0.00000000
                                      D - F
                                                     0      104.4839977        3.00545910    0.00000000
                                                     1       66.2307245       26.36378510    0.00000000
                                                     2       39.1283176      183.38491990    0.00000000
                                                     2       13.1164437       98.44530680    0.00000000
                                                     2        3.6280263       22.49013770    0.00000000
   19         42           14
                                      F and up 
                                                     0      537.9667807       -0.04694920    0.00000000
                                                     1      147.8982938      -20.20800840    0.00000000
                                                     2       45.7358898     -106.21163020    0.00000000
                                                     2       13.2911467      -41.81073680    0.00000000
                                                     2        4.7059961       -4.20541030    0.00000000
                                      S - F
                                                     0      110.2991760        2.80637170    0.00000000
                                                     1       23.2014645       44.51620120    0.00000000
                                                     2        5.3530131       82.77852270    0.00000000
                                      P - F
                                                     0       63.2901397        4.94208760    0.00000000
                                                     1       23.3315302       25.86049760    0.00000000
                                                     2       24.6759423      132.47087420    0.00000000
                                                     2        4.6493040       57.31497940    0.00000000
                                      D - F
                                                     0      104.4839977        3.00545910    0.00000000
                                                     1       66.2307245       26.36378510    0.00000000
                                                     2       39.1283176      183.38491990    0.00000000
                                                     2       13.1164437       98.44530680    0.00000000
                                                     2        3.6280263       22.49013770    0.00000000
   20          6
                                   No pseudopotential on this center.
   21          6
                                   No pseudopotential on this center.
   22          6
                                   No pseudopotential on this center.
   23          8
                                   No pseudopotential on this center.
   24          8
                                   No pseudopotential on this center.
   25          8
                                   No pseudopotential on this center.
   26          1
                                   No pseudopotential on this center.
   27         42           14
                                      F and up 
                                                     0      537.9667807       -0.04694920    0.00000000
                                                     1      147.8982938      -20.20800840    0.00000000
                                                     2       45.7358898     -106.21163020    0.00000000
                                                     2       13.2911467      -41.81073680    0.00000000
                                                     2        4.7059961       -4.20541030    0.00000000
                                      S - F
                                                     0      110.2991760        2.80637170    0.00000000
                                                     1       23.2014645       44.51620120    0.00000000
                                                     2        5.3530131       82.77852270    0.00000000
                                      P - F
                                                     0       63.2901397        4.94208760    0.00000000
                                                     1       23.3315302       25.86049760    0.00000000
                                                     2       24.6759423      132.47087420    0.00000000
                                                     2        4.6493040       57.31497940    0.00000000
                                      D - F
                                                     0      104.4839977        3.00545910    0.00000000
                                                     1       66.2307245       26.36378510    0.00000000
                                                     2       39.1283176      183.38491990    0.00000000
                                                     2       13.1164437       98.44530680    0.00000000
                                                     2        3.6280263       22.49013770    0.00000000
   28          6
                                   No pseudopotential on this center.
   29          8
                                   No pseudopotential on this center.
   30         16
                                   No pseudopotential on this center.
   31          1
                                   No pseudopotential on this center.
   32         16
                                   No pseudopotential on this center.
   33          1
                                   No pseudopotential on this center.
   34          1
                                   No pseudopotential on this center.
 ======================================================================================================
   500 basis functions,  1198 primitive gaussians,   532 cartesian basis functions
   170 alpha electrons      170 beta electrons
       nuclear repulsion energy      6614.1771274706 Hartrees.
 NAtoms=   34 NActive=   34 NUniq=   34 SFac= 1.00D+00 NAtFMM=   60 NAOKFM=F Big=F
 Integral buffers will be    131072 words long.
 Raffenetti 2 integral format.
 Two-electron integral symmetry is turned off.
 One-electron integrals computed using PRISM.
   1 Symmetry operations used in ECPInt.
 ECPInt:  NShTT=   13530 NPrTT=   95037 LenC2=   11315 LenP2D=   47650.
 LDataN:  DoStor=T MaxTD1= 5 Len=  102
 NBasis=   500 RedAO= T EigKep=  6.80D-04  NBF=   500
 NBsUse=   500 1.00D-06 EigRej= -1.00D+00 NBFU=   500
 Defaulting to unpruned grid for atomic number  42.
 Defaulting to unpruned grid for atomic number  42.
 Defaulting to unpruned grid for atomic number  42.
 Defaulting to unpruned grid for atomic number  42.
 Defaulting to unpruned grid for atomic number  42.
 Defaulting to unpruned grid for atomic number  42.
 ExpMin= 2.47D-02 ExpMax= 2.19D+04 ExpMxC= 3.30D+03 IAcc=3 IRadAn=         5 AccDes= 0.00D+00
 Harris functional with IExCor=  402 and IRadAn=       5 diagonalized for initial guess.
 HarFok:  IExCor=  402 AccDes= 0.00D+00 IRadAn=         5 IDoV= 1 UseB2=F ITyADJ=14
 ICtDFT=  3500011 ScaDFX=  1.000000  1.000000  1.000000  1.000000
 Defaulting to unpruned grid for atomic number  42.
 FoFCou: FMM=F IPFlag=           0 FMFlag=      100000 FMFlg1=           0
         NFxFlg=           0 DoJE=T BraDBF=F KetDBF=T FulRan=T
         wScrn=  0.000000 ICntrl=       500 IOpCl=  0 I1Cent=   200000004 NGrid=           0
         NMat0=    1 NMatS0=      1 NMatT0=    0 NMatD0=    1 NMtDS0=    0 NMtDT0=    0
 Symmetry not used in FoFCou.
 Requested convergence on RMS density matrix=1.00D-08 within 128 cycles.
 Requested convergence on MAX density matrix=1.00D-06.
 Requested convergence on             energy=1.00D-06.
 No special actions if energy rises.
 Defaulting to unpruned grid for atomic number  42.
 Defaulting to unpruned grid for atomic number  42.
 Defaulting to unpruned grid for atomic number  42.
 Defaulting to unpruned grid for atomic number  42.
 Defaulting to unpruned grid for atomic number  42.
 Defaulting to unpruned grid for atomic number  42.
 Defaulting to unpruned grid for atomic number  42.
 Defaulting to unpruned grid for atomic number  42.
 Defaulting to unpruned grid for atomic number  42.
 Defaulting to unpruned grid for atomic number  42.
 Defaulting to unpruned grid for atomic number  42.
 Defaulting to unpruned grid for atomic number  42.
 Defaulting to unpruned grid for atomic number  42.
 Defaulting to unpruned grid for atomic number  42.
 Defaulting to unpruned grid for atomic number  42.
 Defaulting to unpruned grid for atomic number  42.
 Defaulting to unpruned grid for atomic number  42.
 Defaulting to unpruned grid for atomic number  42.
 Defaulting to unpruned grid for atomic number  42.
 Defaulting to unpruned grid for atomic number  42.
 Defaulting to unpruned grid for atomic number  42.
 Defaulting to unpruned grid for atomic number  42.
 Defaulting to unpruned grid for atomic number  42.
 Defaulting to unpruned grid for atomic number  42.
 Defaulting to unpruned grid for atomic number  42.
 Defaulting to unpruned grid for atomic number  42.
 Defaulting to unpruned grid for atomic number  42.
 Defaulting to unpruned grid for atomic number  42.
 Defaulting to unpruned grid for atomic number  42.
 Defaulting to unpruned grid for atomic number  42.
 Defaulting to unpruned grid for atomic number  42.
 Defaulting to unpruned grid for atomic number  42.
 Defaulting to unpruned grid for atomic number  42.
 Defaulting to unpruned grid for atomic number  42.
 Defaulting to unpruned grid for atomic number  42.
 Defaulting to unpruned grid for atomic number  42.
 Defaulting to unpruned grid for atomic number  42.
 Defaulting to unpruned grid for atomic number  42.
 Defaulting to unpruned grid for atomic number  42.
 Defaulting to unpruned grid for atomic number  42.
 Defaulting to unpruned grid for atomic number  42.
 Defaulting to unpruned grid for atomic number  42.
 Defaulting to unpruned grid for atomic number  42.
 Defaulting to unpruned grid for atomic number  42.
 Defaulting to unpruned grid for atomic number  42.
 Defaulting to unpruned grid for atomic number  42.
 Defaulting to unpruned grid for atomic number  42.
 Defaulting to unpruned grid for atomic number  42.
 EnCoef did     4 forward-backward iterations
 EnCoef did   100 forward-backward iterations
 EnCoef did   100 forward-backward iterations
 EnCoef did     2 forward-backward iterations
 EnCoef did     3 forward-backward iterations
 EnCoef did   100 forward-backward iterations
 EnCoef did   100 forward-backward iterations
 EnCoef did     3 forward-backward iterations
 EnCoef did     7 forward-backward iterations
 EnCoef did   100 forward-backward iterations
 EnCoef did     9 forward-backward iterations
 EnCoef did     4 forward-backward iterations
 EnCoef did     6 forward-backward iterations
 EnCoef did     3 forward-backward iterations
 Restarting incremental Fock formation.
 SCF Done:  E(RB3LYP) =  -5642.16356232     A.U. after   33 cycles
            NFock= 33  Conv=0.93D-08     -V/T= 2.0532
 DoSCS=F DFT=T ScalE2(SS,OS)=  1.000000  1.000000
 Range of M.O.s used for correlation:     1   500
 NBasis=   500 NAE=   170 NBE=   170 NFC=     0 NFV=     0
 NROrb=    500 NOA=   170 NOB=   170 NVA=   330 NVB=   330

 **** Warning!!: The largest alpha MO coefficient is  0.12671684D+02


 **** Warning!!: The smallest alpha delta epsilon is  0.49996700D-01

   1 Symmetry operations used in ECPInt.
 ECPInt:  NShTT=   13530 NPrTT=   95037 LenC2=   11315 LenP2D=   47650.
 LDataN:  DoStor=T MaxTD1= 6 Len=  172
 Number of processors reduced to  16 by ecpmxn.
 Symmetrizing basis deriv contribution to polar:
 IMax=3 JMax=2 DiffMx= 0.00D+00
 G2DrvN: will do    35 centers at a time, making    1 passes.
 Calling FoFCou, ICntrl=  3107 FMM=F I1Cent=   0 AccDes= 0.00D+00.
 Defaulting to unpruned grid for atomic number  42.
 Defaulting to unpruned grid for atomic number  42.
 Defaulting to unpruned grid for atomic number  42.
 Defaulting to unpruned grid for atomic number  42.
 Defaulting to unpruned grid for atomic number  42.
 Defaulting to unpruned grid for atomic number  42.
 Defaulting to unpruned grid for atomic number  42.
 Defaulting to unpruned grid for atomic number  42.
 Defaulting to unpruned grid for atomic number  42.
 Defaulting to unpruned grid for atomic number  42.
 Defaulting to unpruned grid for atomic number  42.
 Defaulting to unpruned grid for atomic number  42.
 Defaulting to unpruned grid for atomic number  42.
 Defaulting to unpruned grid for atomic number  42.
 Defaulting to unpruned grid for atomic number  42.
 Defaulting to unpruned grid for atomic number  42.
 Defaulting to unpruned grid for atomic number  42.
 Defaulting to unpruned grid for atomic number  42.
 Defaulting to unpruned grid for atomic number  42.
 Defaulting to unpruned grid for atomic number  42.
 Defaulting to unpruned grid for atomic number  42.
 Defaulting to unpruned grid for atomic number  42.
 Defaulting to unpruned grid for atomic number  42.
 Defaulting to unpruned grid for atomic number  42.
 Defaulting to unpruned grid for atomic number  42.
 Defaulting to unpruned grid for atomic number  42.
 Defaulting to unpruned grid for atomic number  42.
 Defaulting to unpruned grid for atomic number  42.
 Defaulting to unpruned grid for atomic number  42.
 Defaulting to unpruned grid for atomic number  42.
 Defaulting to unpruned grid for atomic number  42.
 Defaulting to unpruned grid for atomic number  42.
 Defaulting to unpruned grid for atomic number  42.
 Defaulting to unpruned grid for atomic number  42.
 Defaulting to unpruned grid for atomic number  42.
 Defaulting to unpruned grid for atomic number  42.
 Defaulting to unpruned grid for atomic number  42.
 Defaulting to unpruned grid for atomic number  42.
 Defaulting to unpruned grid for atomic number  42.
 Defaulting to unpruned grid for atomic number  42.
 Defaulting to unpruned grid for atomic number  42.
 Defaulting to unpruned grid for atomic number  42.
 Defaulting to unpruned grid for atomic number  42.
 Defaulting to unpruned grid for atomic number  42.
 Defaulting to unpruned grid for atomic number  42.
 Defaulting to unpruned grid for atomic number  42.
 Defaulting to unpruned grid for atomic number  42.
 Defaulting to unpruned grid for atomic number  42.
 End of G2Drv F.D. properties file   721 does not exist.
 End of G2Drv F.D. properties file   722 does not exist.
 End of G2Drv F.D. properties file   788 does not exist.
          IDoAtm=1111111111111111111111111111111111
          Differentiating once with respect to nuclear coordinates.
 Defaulting to unpruned grid for atomic number  42.
 Defaulting to unpruned grid for atomic number  42.
 Defaulting to unpruned grid for atomic number  42.
 Defaulting to unpruned grid for atomic number  42.
 Defaulting to unpruned grid for atomic number  42.
 Defaulting to unpruned grid for atomic number  42.
 CalDSu exits because no D1Ps are significant.
 Defaulting to unpruned grid for atomic number  42.
 Defaulting to unpruned grid for atomic number  42.
 Defaulting to unpruned grid for atomic number  42.
 Defaulting to unpruned grid for atomic number  42.
 Defaulting to unpruned grid for atomic number  42.
 Defaulting to unpruned grid for atomic number  42.
 Defaulting to unpruned grid for atomic number  42.
 Defaulting to unpruned grid for atomic number  42.
 Defaulting to unpruned grid for atomic number  42.
 Defaulting to unpruned grid for atomic number  42.
 Defaulting to unpruned grid for atomic number  42.
 Defaulting to unpruned grid for atomic number  42.
 Defaulting to unpruned grid for atomic number  42.
 Defaulting to unpruned grid for atomic number  42.
 Defaulting to unpruned grid for atomic number  42.
 Defaulting to unpruned grid for atomic number  42.
 Defaulting to unpruned grid for atomic number  42.
 Defaulting to unpruned grid for atomic number  42.
 Defaulting to unpruned grid for atomic number  42.
 Defaulting to unpruned grid for atomic number  42.
 Defaulting to unpruned grid for atomic number  42.
 Defaulting to unpruned grid for atomic number  42.
 Defaulting to unpruned grid for atomic number  42.
 Defaulting to unpruned grid for atomic number  42.
 Defaulting to unpruned grid for atomic number  42.
 Defaulting to unpruned grid for atomic number  42.
 Defaulting to unpruned grid for atomic number  42.
 Defaulting to unpruned grid for atomic number  42.
 Defaulting to unpruned grid for atomic number  42.
 Defaulting to unpruned grid for atomic number  42.
 Defaulting to unpruned grid for atomic number  42.
 Defaulting to unpruned grid for atomic number  42.
 Defaulting to unpruned grid for atomic number  42.
 Defaulting to unpruned grid for atomic number  42.
 Defaulting to unpruned grid for atomic number  42.
 Defaulting to unpruned grid for atomic number  42.
 Defaulting to unpruned grid for atomic number  42.
 Defaulting to unpruned grid for atomic number  42.
 Defaulting to unpruned grid for atomic number  42.
 Defaulting to unpruned grid for atomic number  42.
 Defaulting to unpruned grid for atomic number  42.
 Defaulting to unpruned grid for atomic number  42.
 Defaulting to unpruned grid for atomic number  42.
 Defaulting to unpruned grid for atomic number  42.
 Defaulting to unpruned grid for atomic number  42.
 Defaulting to unpruned grid for atomic number  42.
 Defaulting to unpruned grid for atomic number  42.
 Defaulting to unpruned grid for atomic number  42.
          There are   105 degrees of freedom in the 1st order CPHF.  IDoFFX=6 NUNeed=     0.
     99 vectors produced by pass  0 Test12= 5.61D-14 1.00D-09 XBig12= 2.84D-01 1.27D-01.
 AX will form    99 AO Fock derivatives at one time.
     99 vectors produced by pass  1 Test12= 5.61D-14 1.00D-09 XBig12= 3.11D-01 8.06D-02.
     99 vectors produced by pass  2 Test12= 5.61D-14 1.00D-09 XBig12= 2.12D-02 1.69D-02.
     99 vectors produced by pass  3 Test12= 5.61D-14 1.00D-09 XBig12= 1.03D-03 4.12D-03.
     99 vectors produced by pass  4 Test12= 5.61D-14 1.00D-09 XBig12= 1.48D-05 4.47D-04.
     99 vectors produced by pass  5 Test12= 5.61D-14 1.00D-09 XBig12= 1.06D-07 3.10D-05.
     99 vectors produced by pass  6 Test12= 5.61D-14 1.00D-09 XBig12= 6.23D-10 2.13D-06.
     72 vectors produced by pass  7 Test12= 5.61D-14 1.00D-09 XBig12= 2.15D-12 9.68D-08.
     12 vectors produced by pass  8 Test12= 5.61D-14 1.00D-09 XBig12= 5.81D-15 4.91D-09.
 InvSVY:  IOpt=1 It=  1 EMax= 6.11D-16
 Solved reduced A of dimension   777 with   105 vectors.
 End of Minotr F.D. properties file   721 does not exist.
 End of Minotr F.D. properties file   722 does not exist.
 End of Minotr F.D. properties file   788 does not exist.

 **********************************************************************

            Population analysis using the SCF Density.

 **********************************************************************

 Alpha  occ. eigenvalues --  -88.91767 -88.91675 -88.91163 -88.90838 -88.90666
 Alpha  occ. eigenvalues --  -88.89466 -88.89378 -88.88869 -88.88812 -88.88673
 Alpha  occ. eigenvalues --  -88.88314 -88.87307 -19.23611 -19.23214 -19.22550
 Alpha  occ. eigenvalues --  -19.20636 -10.30744 -10.30496 -10.30096 -10.28347
 Alpha  occ. eigenvalues --   -7.99467  -7.99358  -7.98684  -7.98299  -7.98211
 Alpha  occ. eigenvalues --   -7.97169  -7.97081  -7.96666  -7.96240  -7.96109
 Alpha  occ. eigenvalues --   -7.95739  -7.94922  -5.95708  -5.95558  -5.95370
 Alpha  occ. eigenvalues --   -5.95337  -5.95222  -5.94992  -5.94933  -5.94606
 Alpha  occ. eigenvalues --   -5.94424  -5.94296  -5.94278  -5.94249  -5.94228
[...]
 97,0.00006100,-0.00002924,0.00012778,-0.00023626,0.00020709,0.00014922
 ,-0.00049240,0.00010000,0.00011853,0.00024656,0.00006468,-0.00023628,0
 .00006625,0.00009237,-0.00006672,0.00018257,-0.00029688,-0.00004583,-0
 .00016276,-0.00004711,0.00017742,-0.00006453,-0.00005268,0.00005395,-0
 .00008259,0.00018524,-0.00082622,-0.00043676,-0.00001552,0.00511865,0.
 01576251,0.01179090,0.04094059,-0.05132285,0.09989885,-0.04660328,0.03
 467322,-0.00217385,-0.00318000,-0.00143760,0.00112688,-0.00003232,0.00
 224145,-0.00036695,0.00050550,0.00003824,-0.00003392,0.00031132,0.0002
 9806,0.00109146,-0.00025165,-0.00007871,-0.00121626,-0.00076509,0.0002
 4587,-0.00027388,-0.00023460,0.00005220,0.00005198,-0.00009340,0.00002
 325,-0.00044581,0.00053130,-0.00000729,0.00564891,-0.00132927,0.002994
 81,0.00016166,-0.00009382,-0.00024719,0.00005409,-0.00013395,-0.000073
 77,0.00061937,0.00311182,0.00448816,0.00142263,-0.00379476,-0.00025660
 ,0.00026339,-0.00003941,-0.00005724,0.00032208,-0.00594894,0.00136648,
 0.00004478,-0.00009356,0.00012552,0.00007698,0.00102459,-0.00105653,-0
 .00164144,0.00247558,-0.00066243,-0.00064216,-0.00226556,-0.00070022,0
 .00212447,-0.00040712,-0.00083041,0.00059854,-0.00135340,0.00243167,0.
 00039515,0.00135351,0.00041781,-0.00155889,0.00044147,0.00047381,-0.00
 050129,0.00071707,-0.00166235,0.00701502,0.00303983,-0.00050334,-0.031
 84835,0.02183856,-0.05516531,-0.35170351,0.09919716,-0.88286792,0.3781
 0261,-0.11232743,0.93053777,-0.00360810,-0.00140336,0.00027073,0.00007
 990,-0.00033550,-0.00040757,0.00173315,-0.00111050,0.00036378,0.000116
 87,0.00010219,-0.00030407,0.00234148,-0.00240424,0.00160074,0.00074739
 ,-0.00292705,0.00154319,0.00031120,0.00009358,0.00020724,-0.00006349,-
 0.00005208,-0.00002250,-0.00033875,0.00004376,-0.00021120,0.00093930,0
 .00099727,-0.00024785,0.00333672,0.00005164,0.00273315,-0.00013063,0.0
 0016352,-0.00076286,0.00019149,0.00055523,0.00012418,-0.00004302,-0.00
 003636,0.00003680,-0.00012057,-0.00006136,0.00000919,-0.00015266,0.000
 16126,0.00003572,0.00002791,-0.00000600,0.00001041,-0.02721736,-0.0131
 3322,0.03005577,0.00061306,-0.00042434,0.00032885,0.00009008,0.0004280
 1,0.00010252,-0.00068771,0.00019682,0.00022024,-0.00010045,0.00015900,
 -0.00061868,-0.00006054,-0.00026458,-0.00006525,0.00047325,-0.00014345
 ,-0.00013923,0.00009852,-0.00010616,0.00036638,-0.00012296,-0.00007958
 ,-0.00002459,0.00046676,-0.00000223,-0.00024103,0.00033045,0.00000713,
 0.00035070,-0.00016447,0.00002720,-0.00033015,0.04866331,0.00159951,0.
 00220041,0.00165585,-0.00009782,-0.00011499,0.00003414,-0.00274652,-0.
 00668118,0.00579995,0.00015265,-0.00103759,-0.00023196,-0.00385268,0.0
 0031657,-0.00318167,-0.00327949,0.00095013,-0.00030571,0.00071300,-0.0
 0061955,0.00030049,-0.00017705,0.00003914,-0.00014198,-0.00021576,0.00
 025689,0.00003213,0.00099919,0.00014292,0.00151039,0.00448105,0.000036
 68,0.00370844,-0.00014661,0.00003678,-0.00102781,0.00004362,-0.0004164
 3,-0.00006769,-0.00003492,0.00004122,0.00003198,-0.00013208,0.00011315
 ,-0.00001761,-0.00041997,-0.00002796,-0.00011801,0.00004533,-0.0000766
 1,-0.00001642,-0.01181625,-0.03468827,0.02325260,0.00070717,-0.0006392
 1,0.00043167,0.00003371,0.00060361,0.00010963,-0.00076385,0.00026387,0
 .00016830,-0.00023612,0.00019475,-0.00071009,-0.00008837,-0.00046130,-
 0.00009658,0.00055396,-0.00018193,-0.00015105,0.00015188,-0.00014693,0
 .00047875,0.00001047,0.00000903,-0.00004191,-0.00038772,-0.00047217,-0
 .00008814,0.00033328,-0.00005840,0.00072881,-0.00022798,0.00006134,-0.
 00057801,-0.04216682,0.18595568,0.00460410,-0.00039405,0.00044240,-0.0
 0035149,0.00059007,-0.00006320,0.00049482,0.00360684,0.00122391,-0.000
 14366,-0.00040869,0.00103999,0.00543396,0.00113019,0.00167377,-0.00415
 426,0.00350114,-0.00190688,0.00017508,-0.00014100,-0.00013177,-0.00002
 147,0.00012371,-0.00011607,-0.00011467,-0.00011941,-0.00016377,-0.0002
 5711,-0.00038722,0.00212466,-0.00057181,0.00104000,0.00057944,0.000432
 52,0.00044052,0.00060877,0.00016893,0.00018869,-0.00029840,-0.00001152
 ,0.00000256,-0.00004317,-0.00002027,-0.00016517,-0.00024397,-0.0001884
 5,-0.00005026,-0.00014440,-0.00001398,-0.00001198,0.00004832,0.0308722
 8,0.03057531,-0.08414837,-0.00097192,0.00063557,-0.00032912,-0.0001791
 3,-0.00069110,-0.00020162,0.00115554,-0.00042051,-0.00030282,0.0002585
 6,-0.00023689,0.00086350,0.00012182,0.00050071,0.00012696,-0.00077145,
 0.00025919,0.00022222,-0.00019416,0.00017688,-0.00061025,0.00015849,0.
 00009906,-0.00000231,-0.00009919,-0.00066622,0.00055860,-0.00052720,0.
 00017742,-0.00111146,0.00036493,-0.00012558,0.00088298,-0.08597003,0.0
 7944345,0.17666665,0.00204617,0.00171030,-0.00030449,-0.00013169,0.000
 07984,0.00023613,-0.00075408,-0.00059678,-0.00033582,0.00004634,0.0002
 6313,-0.00013193,-0.00161874,0.00064647,0.00027744,0.00207200,-0.00008
 117,0.00021445,-0.00031948,-0.00003544,-0.00019449,0.00009595,-0.00000
 024,0.00003583,0.00016804,-0.00004628,0.00015966,-0.00052940,-0.000622
 52,-0.00053269,-0.00072610,-0.00063868,-0.00150100,-0.00004106,0.00008
 192,0.00009889,-0.00004727,-0.00022883,-0.00001739,0.00005330,0.000015
 63,-0.00003365,0.00008389,0.00006775,0.00005059,0.00015631,-0.00010851
 ,0.00002120,-0.00001863,0.00001240,-0.00001859,-0.00293013,0.00017721,
 0.00701357,-0.00020035,0.00023290,-0.00012784,-0.00000911,-0.00012630,
 -0.00003733,0.00017265,-0.00002630,-0.00008882,-0.00000273,-0.00004971
 ,0.00020435,0.00000669,0.00004617,0.00001254,-0.00013117,0.00003613,0.
 00004250,-0.00001562,0.00002919,-0.00008780,0.00006428,0.00004377,0.00
 001590,-0.00037040,0.00005242,0.00001911,-0.00006467,-0.00003920,0.000
 12015,0.00000730,0.00001304,-0.00003683,-0.02773801,0.05710977,0.05012
 270,0.03073009,-0.00103122,-0.00042630,-0.00031561,-0.00002975,-0.0001
 2000,0.00004090,-0.00085247,-0.00068154,0.00117528,0.00008470,0.000189
 77,-0.00038515,-0.00012224,0.00004012,0.00032939,0.00158305,-0.0018219
 9,0.00081151,-0.00014754,0.00033224,0.00004414,0.00004888,-0.00006872,
 0.00006874,0.00010276,-0.00004629,0.00001241,-0.00028355,0.00011869,-0
 .00084245,-0.00039522,0.00031503,-0.00074498,-0.00005472,-0.00008910,0
 .00002406,-0.00002974,0.00011977,-0.00002391,-0.00000651,-0.00001471,0
 .00002480,0.00003225,-0.00001058,0.00007957,0.00014492,0.00002643,0.00
 004207,-0.00000347,0.00001781,-0.00000961,-0.00280099,0.00390248,0.007
 28199,0.00002824,0.00022357,-0.00010919,-0.00000090,-0.00010671,0.0000
 0318,0.00004492,0.00000044,0.00000859,0.00004895,-0.00007134,0.0000926
 7,0.00001332,0.00008056,0.00000853,-0.00004834,0.00001125,0.00000871,-
 0.00002509,0.00003739,-0.00007031,-0.00002925,-0.00002268,0.00001248,0
 .00009095,0.00015363,-0.00002365,-0.00004476,0.00000284,-0.00010948,0.
 00002448,-0.00000501,0.00007259,0.06159523,-0.14562983,-0.11865172,-0.
 05795286,0.14353185,0.00150786,0.00131199,0.00035056,-0.00013767,-0.00
 001703,0.00024629,-0.00056479,0.00021733,0.00037384,-0.00001328,-0.000
 18840,0.00003424,-0.00095303,0.00006292,-0.00071742,0.00001386,-0.0002
 6001,0.00005963,0.00010018,-0.00017545,-0.00001221,-0.00003212,0.00000
 483,-0.00001754,0.00005663,0.00000842,0.00005610,0.00004569,-0.0000528
 0,-0.00013545,0.00061223,-0.00018084,-0.00005822,-0.00008142,-0.000054
 69,-0.00017249,-0.00006673,-0.00025134,-0.00000096,-0.00000824,0.00000
 149,-0.00001192,0.00003621,0.00004895,0.00005461,-0.00002793,-0.000072
 95,0.00000962,-0.00000585,-0.00000611,-0.00002023,0.00408379,-0.000479
 28,-0.00948520,-0.00003474,0.00000241,-0.00002825,-0.00000708,0.000032
 99,0.00000549,0.00002545,0.00002269,-0.00002093,0.00001027,-0.00001319
 ,0.00001004,-0.00000820,-0.00004342,-0.00000909,-0.00001654,-0.0000036
 6,0.00000664,-0.00000189,0.00000019,0.00000719,0.00003324,0.00001535,-
 0.00000467,-0.00024879,-0.00012214,0.00000657,-0.00000870,-0.00002048,
 0.00007262,-0.00001359,0.00000868,-0.00005173,0.05089234,-0.11092502,-
 0.09716292,-0.05514403,0.11113306,0.10663752,0.00083349,0.00140459,-0.
 00007308,-0.00379461,0.00072150,0.00446047,-0.00044416,0.00013976,0.00
 016301,-0.00111049,-0.00013628,0.00010288,-0.00009554,-0.00025856,-0.0
 0025748,-0.00097207,-0.00030904,-0.00099363,-0.00009973,-0.00039205,0.
 00035833,0.00001581,-0.00010311,0.00004433,0.00045656,-0.00017568,0.00
 024933,0.00198257,-0.00072141,0.00333506,0.00026271,-0.00011845,-0.000
 28069,-0.00001971,-0.00017861,-0.00004511,0.00085827,-0.00134607,0.001
 26073,0.00023512,-0.00012891,-0.00053723,-0.00021342,0.00015622,0.0000
 2999,-0.01535217,0.00877183,-0.00841133,0.00011047,0.00015603,0.000101
 62,0.00021540,0.00034144,-0.00008885,0.00005164,0.00235726,-0.00164637
 ,-0.00084409,-0.00253986,-0.00063821,0.00084714,-0.00002831,-0.0006506
 3,-0.00026578,-0.00093502,0.00236346,0.00050557,0.00121678,0.00039343,
 -0.00071011,0.00018043,0.00024534,-0.00017963,0.00048065,-0.00127469,-
 0.03055338,-0.00295289,-0.00219086,-0.04856569,-0.02779736,-0.01065517
 ,-0.00050224,0.00300237,0.00311115,0.00020099,-0.00058070,-0.00094208,
 -0.00008364,-0.00015616,0.00028606,-0.00002628,0.00001429,-0.00001794,
 0.11592096,0.00468353,0.00310790,-0.00090285,-0.00630119,0.00218375,0.
 00791361,-0.00073672,-0.00014386,0.00000388,-0.00058209,-0.00001463,-0
 .00027600,-0.00065708,-0.00033253,0.00002783,-0.00130111,-0.00074674,-
 0.00080440,-0.00006327,-0.00030017,0.00038274,0.00001526,-0.00010626,0
 .00003121,-0.00009831,0.00058620,0.00038997,0.00411340,0.00075728,0.00
 437975,0.00029346,0.00014618,0.00009796,0.00006450,-0.00016566,-0.0000
 7020,-0.00573557,-0.00247458,-0.00189199,0.00240111,0.00203485,-0.0007
 3296,-0.00020612,0.00064252,0.00078627,-0.01234657,-0.01556953,0.00957
 062,0.00015320,0.00005867,-0.00004699,-0.00029412,-0.00079142,0.000588
 55,0.00025923,0.00001887,-0.00117177,0.00002181,-0.00005225,-0.0000236
 3,-0.00030497,0.00025030,-0.00022060,-0.00032477,0.00010290,0.00077581
 ,-0.00006154,-0.00040015,-0.00001912,0.00007976,-0.00007187,0.00002833
 ,0.00005239,-0.00002619,-0.00020209,0.05181645,0.00169380,0.00744598,-
 0.02996189,-0.03473669,-0.01793739,-0.00229491,-0.00026929,0.01766144,
 -0.00028157,0.00017896,-0.00716391,0.00022028,0.00006209,-0.00014018,-
 0.00015093,0.00002402,-0.00004005,-0.00985470,0.12455226,0.00150923,0.
 00171069,-0.00033514,-0.00010174,0.00142485,-0.00002715,0.00005992,0.0
 0008679,-0.00008955,-0.00006843,0.00027583,-0.00007176,0.00003181,-0.0
 0001542,-0.00022842,0.00067559,0.00095688,-0.00018366,0.00003669,-0.00
 009473,0.00013370,0.00003203,-0.00002950,0.00000134,0.00002631,0.00002
 621,-0.00050766,-0.00076648,-0.00370966,-0.00010432,0.00012587,-0.0000
 6603,0.00000888,-0.00004643,0.00003279,0.00002985,-0.00162510,0.002344
 14,0.00144496,0.00157867,-0.00025993,-0.00062944,0.00003684,-0.0003567
 3,-0.00077815,0.01314415,0.01808087,-0.00526409,-0.00005457,-0.0000048
 6,0.00013170,-0.00031767,-0.00046590,0.00036297,-0.00026295,0.00148796
 ,0.00056041,-0.00054444,-0.00085893,-0.00034674,0.00062906,-0.00001066
 ,-0.00022285,0.00004413,-0.00076790,0.00044725,0.00026537,0.00055545,0
 .00015784,-0.00038684,0.00010016,0.00010025,-0.00011265,0.00032889,-0.
 00041799,-0.04771857,0.00076410,-0.00433038,-0.00183500,-0.00952940,-0
 .00572720,0.00610360,0.00752168,-0.01223648,-0.00009305,-0.00167801,0.
 00346879,-0.00000358,-0.00000470,-0.00002545,0.00000498,0.00000343,0.0
 0000636,-0.03740473,0.10100029,0.19654936,-0.00108721,-0.00022819,0.00
 015992,0.00108635,-0.00102895,-0.00012520,-0.00001782,-0.00009059,0.00
 009314,-0.00003828,-0.00018351,-0.00006146,0.00011609,0.00010179,0.000
 09903,-0.00009298,-0.00043499,-0.00003732,-0.00009095,0.00003000,-0.00
 010151,-0.00000386,0.00002982,0.00000149,0.00008110,0.00013562,0.00025
 135,0.00082607,0.00064725,-0.00061271,-0.00018638,-0.00003498,-0.00002
 927,0.00002879,0.00001054,0.00002108,0.00093604,-0.00080820,-0.0009345
 4,-0.00094079,-0.00008985,0.00050158,0.00000495,-0.00001137,-0.0000434
 1,-0.00368877,-0.00206229,0.00075714,-0.00005803,0.00000320,-0.0000309
 3,0.00004158,0.00026906,-0.00034963,0.00010162,-0.00026707,-0.00013918
 ,0.00000654,0.00001262,0.00002253,-0.00009314,-0.00000178,0.00008280,0
 .00000364,0.00003001,-0.00001221,0.00001183,0.00001525,0.00000429,0.00
 006518,-0.00001546,-0.00002898,0.00000873,-0.00001990,0.00001602,0.002
 16696,-0.00011646,0.00000442,0.00020723,0.00917767,0.00609178,-0.00125
 856,-0.00243264,0.00002791,0.00017895,0.00070473,0.00011156,-0.0000200
 8,-0.00002869,0.00007673,0.00000683,-0.00000681,-0.00000887,-0.0231262
 7,0.02808688,0.04500820,0.02772535,-0.00138994,-0.00113313,-0.00004911
 ,0.00108371,-0.00084502,-0.00158177,0.00021380,0.00003393,-0.00002933,
 0.00015711,0.00002265,0.00008853,0.00008657,-0.00010881,0.00000756,0.0
 0037906,0.00032731,0.00027174,0.00006920,0.00006390,-0.00005213,-0.000
 00867,0.00000357,-0.00000715,-0.00016380,-0.00025446,-0.00004289,-0.00
 116188,0.00006409,-0.00024718,-0.00001109,-0.00002683,-0.00000170,-0.0
 0002238,0.00004382,-0.00000940,0.00163459,-0.00061686,0.00073057,-0.00
 094607,-0.00076215,0.00038612,0.00002474,0.00004729,0.00015957,0.00147
 995,0.00175357,-0.00078566,0.00003551,-0.00003592,-0.00000301,0.000206
 27,0.00020756,-0.00001701,-0.00012813,-0.00025804,0.00011904,0.0001835
 6,0.00016285,0.00007343,0.00003066,-0.00007854,0.00002694,0.00004855,0
 .00023051,-0.00020153,-0.00007603,-0.00002723,-0.00003295,-0.00000434,
 0.00001141,-0.00000145,0.00000913,-0.00008222,0.00011266,-0.00121660,0
 .00026704,0.00007593,-0.00085439,0.00525047,0.00490832,0.00058456,-0.0
 0104339,-0.00090182,-0.00019052,0.00035200,0.00049138,-0.00003186,-0.0
 0000768,0.00000750,0.00002434,-0.00000296,0.00000857,0.03351101,-0.083
 57520,-0.10187020,-0.03507753,0.08430720,0.00069886,0.00008941,-0.0001
 4816,-0.00065907,0.00079866,0.00079301,-0.00024928,0.00000382,0.000067
 87,-0.00014742,-0.00008359,-0.00006458,-0.00004007,0.00010114,0.000001
 64,-0.00022877,-0.00028728,-0.00010412,-0.00005659,-0.00004098,0.00001
 545,0.00000080,0.00000037,0.00000531,0.00016288,0.00012029,0.00005010,
 0.00037877,0.00010595,0.00024130,-0.00003427,0.00000118,-0.00002971,0.
 00001633,-0.00002215,0.00000564,-0.00103881,-0.00114434,0.00024044,0.0
 0027842,0.00038709,-0.00010655,0.00002721,0.00001812,-0.00003747,-0.00
 130525,-0.00111682,0.00044581,-0.00002508,0.00004904,-0.00003633,-0.00
 005599,0.00007233,-0.00008780,0.00013932,0.00016502,-0.00015111,-0.000
 14401,-0.00021487,-0.00007603,-0.00001165,0.00003866,-0.00001823,-0.00
 003127,-0.00013659,0.00018440,0.00007443,0.00009415,0.00004299,-0.0000
 0323,-0.00000495,0.00000265,-0.00000986,0.00005369,-0.00010201,0.00068
 431,-0.00025553,0.00027346,0.00644136,0.00204732,-0.00542524,0.0002206
 4,0.00041062,0.00053111,0.00003485,-0.00026143,-0.00019520,-0.00000416
 ,-0.00001866,0.00004784,-0.00000448,-0.00000022,-0.00000538,0.04887518
 ,-0.10736243,-0.16578371,-0.05263424,0.10330371,0.16549890,0.00096934,
 -0.00052151,-0.00005572,-0.00111051,-0.00073318,0.00231288,0.00007724,
 -0.00019155,-0.00009858,0.00011610,-0.00031572,-0.00042187,-0.00015842
 ,0.00010654,0.00021860,-0.00076681,-0.00148077,0.00034532,-0.00006639,
 0.00005470,-0.00008039,-0.00000819,0.00001272,-0.00000101,-0.00033766,
 0.00039225,0.00043563,0.00255366,0.00581111,0.00354885,0.00000321,0.00
 020732,0.00020809,0.00007865,-0.00003710,-0.00008835,-0.00056634,-0.00
 024250,-0.00139859,-0.00027175,0.00049782,0.00039521,0.00057369,0.0008
 4383,0.00108780,-0.05316672,-0.03991406,0.02032087,0.00006704,0.000067
 39,-0.00024076,-0.00027575,-0.00010898,0.00027088,0.00022546,-0.002247
 07,-0.00000958,0.00078717,0.00173661,0.00052720,-0.00080107,0.00000763
 ,0.00036292,0.00013126,0.00106213,-0.00092930,-0.00041173,-0.00108204,
 -0.00031246,0.00052720,-0.00013540,-0.00014706,0.00012745,-0.00045114,
 0.00067235,0.00097482,0.02446954,-0.02315214,0.00098020,0.00950135,-0.
 01464822,0.00191707,-0.00164685,0.01260825,-0.00147175,0.00105532,-0.0
 0551621,0.00009162,0.00004027,-0.00016476,-0.00003490,0.00000848,-0.00
 001629,0.00446231,-0.02070383,0.02202976,-0.00290072,0.00152091,-0.001
 34988,0.04768520,-0.00088544,-0.00048871,0.00029929,-0.00017456,0.0004
 3202,-0.00282349,0.00013073,0.00014497,0.00003789,0.00040001,0.0001837
 3,0.00033963,0.00022597,-0.00001395,-0.00003993,0.00076837,0.00105187,
 0.00040323,0.00005813,0.00012779,-0.00016652,-0.00001190,0.00003512,-0
 .00001947,0.00026072,-0.00046599,-0.00049196,-0.00444867,-0.00310486,-
 0.00183452,-0.00007230,-0.00008582,-0.00007753,-0.00004799,0.00009453,
 0.00004618,0.00040469,0.00039737,0.00139443,0.00025489,-0.00056794,-0.
 00029741,-0.00001001,-0.00043973,-0.00079520,0.01869856,0.01293664,-0.
 00452859,-0.00015548,0.00001056,0.00000658,0.00018420,0.00018068,-0.00
 023849,-0.00034306,0.00084923,0.00030779,-0.00034207,-0.00069066,-0.00
 016450,0.00043329,-0.00018326,0.00000705,0.00019423,-0.00032782,0.0000
 5915,0.00022601,0.00066559,0.00012391,-0.00022844,0.00009916,0.0000353
 8,-0.00009970,0.00014598,-0.00019136,-0.02909256,-0.01654268,-0.003397
 61,-0.00929530,-0.01606648,0.02136273,-0.00030710,0.00000059,-0.011165
 67,0.00096721,-0.00057905,0.00497451,-0.00011341,-0.00002421,0.0001111
 7,0.00006138,-0.00001014,0.00002698,-0.00374098,0.00337647,-0.01697843
 ,0.00368481,-0.00429073,0.00308927,0.02241578,0.02314973,0.00127255,0.
 00025330,-0.00009102,-0.00049120,-0.00030264,0.00232567,-0.00010357,-0
 .00015204,-0.00003041,-0.00038244,-0.00021568,-0.00028231,-0.00024468,
 0.00013838,0.00010193,-0.00088933,-0.00116065,-0.00031395,-0.00007615,
 -0.00009302,0.00009734,0.00000364,-0.00001552,0.00001572,-0.00000877,0
 .00036234,0.00045900,0.00387665,0.00457087,0.00130587,0.00007518,0.000
 12162,0.00005653,0.00004445,-0.00010807,-0.00004299,-0.00096092,-0.000
 37262,-0.00149872,-0.00013859,0.00067825,0.00039576,-0.00009467,0.0004
 2893,0.00065792,-0.02409971,-0.01603164,0.00848436,0.00014363,0.000000
 73,0.00002297,-0.00022196,-0.00014548,0.00016502,0.00042650,-0.0011416
 6,-0.00040375,0.00043335,0.00100806,0.00028110,-0.00061190,0.00014806,
 0.00008697,-0.00016726,0.00047009,-0.00025058,-0.00028603,-0.00083107,
 -0.00017846,0.00034408,-0.00011322,-0.00006936,0.00012274,-0.00021735,
 0.00031668,0.02622133,0.00348165,-0.01897818,0.00996468,0.01514338,-0.
 01388931,0.00116430,-0.00002263,0.01004222,-0.00119672,0.00050242,-0.0
 0423304,0.00010083,0.00003644,-0.00010406,-0.00005279,0.00000820,-0.00
 002268,0.00072771,-0.01207769,-0.00609349,0.00181848,-0.00493728,0.003
 92373,-0.01671344,0.01058555,0.01774352\\0.00000127,-0.00000060,-0.000
 00076,0.00000319,-0.00000257,-0.00000381,0.00000042,0.00000092,0.00000
 101,-0.00000153,-0.00000055,-0.00000023,-0.00000169,-0.00000135,-0.000
 00009,-0.00000082,0.00000189,0.00000204,-0.00000149,-0.00000003,0.0000
 0210,-0.00000221,0.00000055,0.00000133,0.00000062,0.00000166,0.0000006
 4,0.00000175,-0.00000687,0.00000360,-0.00000209,0.00000091,0.00000178,
 -0.00000273,0.00000046,0.00000106,-0.00000009,-0.00000064,-0.00000044,
 -0.00000114,-0.00000247,-0.00000151,0.00000116,-0.00000115,-0.00000014
 ,-0.00002786,0.00001597,0.00000138,-0.00000062,-0.00000047,-0.00000084
 ,-0.00000262,0.00000075,0.00000097,-0.00000071,0.00000083,0.00000042,0
 .00000157,-0.00000011,-0.00000098,0.00000127,0.00000163,0.00000078,-0.
 00000129,0.00000010,0.00000143,0.00000163,0.00000080,-0.00000016,0.000
 00040,0.00000238,0.00000206,-0.00000089,0.00000022,0.00000041,0.000006
 14,-0.00001113,-0.00000006,-0.00000528,-0.00000225,0.00000287,-0.00000
 362,-0.00000205,-0.00000310,0.00000209,-0.00000095,-0.00000127,0.00000
 278,0.00000144,0.00000401,-0.00000205,0.00000198,0.00000076,0.00001854
 ,0.00000214,-0.00000699,0.00000062,-0.00000047,-0.00000499,0.00001530,
 -0.00000097,-0.00000327\\\@
 The archive entry for this job was punched.


 IF YOU GIVE A BOY AND A PIG EVERYTHING THEY WANT,
 YOU'LL GET A BAD BOY AND A GOOD PIG.
 Job cpu time:       0 days  6 hours  0 minutes 34.2 seconds.
 Elapsed time:       0 days  0 hours  9 minutes  1.4 seconds.
 File lengths (MBytes):  RWF=   1302 Int=      0 D2E=      0 Chk=     24 Scr=      2
 Normal termination of Gaussian 16 at Thu May  5 14:04:50 2022.
