 Entering Gaussian System, Link 0=/apps/GAU16/avx2/g16/g16
 Initial command:
 /apps/GAU16/avx2//g16/l1.exe "/localscratch/chegho/Gau-8159.inp" -scrdir="/localscratch/chegho/"
 Entering Link 1 = /apps/GAU16/avx2//g16/l1.exe PID=      8160.
  
 Copyright (c) 1988-2019, Gaussian, Inc.  All Rights Reserved.
  
 This is part of the Gaussian(R) 16 program.  It is based on
 the Gaussian(R) 09 system (copyright 2009, Gaussian, Inc.),
 the Gaussian(R) 03 system (copyright 2003, Gaussian, Inc.),
 the Gaussian(R) 98 system (copyright 1998, Gaussian, Inc.),
 the Gaussian(R) 94 system (copyright 1995, Gaussian, Inc.),
 the Gaussian 92(TM) system (copyright 1992, Gaussian, Inc.),
 the Gaussian 90(TM) system (copyright 1990, Gaussian, Inc.),
 the Gaussian 88(TM) system (copyright 1988, Gaussian, Inc.),
 the Gaussian 86(TM) system (copyright 1986, Carnegie Mellon
 University), and the Gaussian 82(TM) system (copyright 1983,
 Carnegie Mellon University). Gaussian is a federally registered
 trademark of Gaussian, Inc.
  
 This software contains proprietary and confidential information,
 including trade secrets, belonging to Gaussian, Inc.
  
 This software is provided under written license and may be
 used, copied, transmitted, or stored only in accord with that
 written license.
  
 The following legend is applicable only to US Government
 contracts under FAR:
  
                    RESTRICTED RIGHTS LEGEND
  
 Use, reproduction and disclosure by the US Government is
 subject to restrictions as set forth in subparagraphs (a)
 and (c) of the Commercial Computer Software - Restricted
 Rights clause in FAR 52.227-19.
  
 Gaussian, Inc.
 340 Quinnipiac St., Bldg. 40, Wallingford CT 06492
  
  
 ---------------------------------------------------------------
 Warning -- This program may not be used in any manner that
 competes with the business of Gaussian, Inc. or will provide
 assistance to any competitor of Gaussian, Inc.  The licensee
 of this program is prohibited from giving any competitor of
 Gaussian, Inc. access to this program.  By using this program,
 the user acknowledges that Gaussian, Inc. is engaged in the
 business of creating and licensing software in the field of
 computational chemistry and represents and warrants to the
 licensee that it is not a competitor of Gaussian, Inc. and that
 it will not use this program in any manner prohibited above.
 ---------------------------------------------------------------
  

 Cite this work as:
 Gaussian 16, Revision C.01,
 M. J. Frisch, G. W. Trucks, H. B. Schlegel, G. E. Scuseria, 
 M. A. Robb, J. R. Cheeseman, G. Scalmani, V. Barone, 
 G. A. Petersson, H. Nakatsuji, X. Li, M. Caricato, A. V. Marenich, 
 J. Bloino, B. G. Janesko, R. Gomperts, B. Mennucci, H. P. Hratchian, 
 J. V. Ortiz, A. F. Izmaylov, J. L. Sonnenberg, D. Williams-Young, 
 F. Ding, F. Lipparini, F. Egidi, J. Goings, B. Peng, A. Petrone, 
 T. Henderson, D. Ranasinghe, V. G. Zakrzewski, J. Gao, N. Rega, 
 G. Zheng, W. Liang, M. Hada, M. Ehara, K. Toyota, R. Fukuda, 
 J. Hasegawa, M. Ishida, T. Nakajima, Y. Honda, O. Kitao, H. Nakai, 
 T. Vreven, K. Throssell, J. A. Montgomery, Jr., J. E. Peralta, 
 F. Ogliaro, M. J. Bearpark, J. J. Heyd, E. N. Brothers, K. N. Kudin, 
 V. N. Staroverov, T. A. Keith, R. Kobayashi, J. Normand, 
 K. Raghavachari, A. P. Rendell, J. C. Burant, S. S. Iyengar, 
 J. Tomasi, M. Cossi, J. M. Millam, M. Klene, C. Adamo, R. Cammi, 
 J. W. Ochterski, R. L. Martin, K. Morokuma, O. Farkas, 
 J. B. Foresman, and D. J. Fox, Gaussian, Inc., Wallingford CT, 2019.
 
 ******************************************
 Gaussian 16:  ES64L-G16RevC.01  3-Jul-2019
                 5-May-2022 
 ******************************************
 %nprocshared=48
 Will use up to   48 processors via shared memory.
 %mem=32GB
 -----------------------------------------------------------
 # opt=(calcfc,ts,noeigen) freq b3lyp/gen nosymm pseudo=read
 -----------------------------------------------------------
 1/5=1,10=4,11=1,18=20,26=3,38=1/1,3;
 2/9=110,12=2,15=1,17=6,18=5,40=1/2;
 3/5=7,11=2,16=1,17=8,25=1,30=1,71=2,74=-5,140=1/1,2,3;
 4//1;
 5/5=2,38=5/2;
 8/6=4,10=90,11=11/1;
 11/6=1,8=1,9=11,15=111,16=1,31=1/1,2,10;
 10/6=1,13=1,31=1/2;
 6/7=2,8=2,9=2,10=2,28=1/1;
 7/10=1,25=1,30=1/1,2,3,16;
 1/5=1,10=4,11=1,18=20,26=3/3(2);
 2/9=110,15=1/2;
 99//99;
 2/9=110,15=1/2;
 3/5=7,6=1,11=2,16=1,17=8,25=1,30=1,71=1,74=-5,82=7/1,2,3;
 4/5=5,16=3,69=1/1;
 5/5=2,38=5/2;
 7/30=1/1,2,3,16;
 1/5=1,11=1,18=20,26=3/3(-5);
 2/9=110,15=1/2;
 6/7=2,8=2,9=2,10=2,19=2,28=1/1;
 99/9=1/99;
 -------------------
 Title Card Required
 -------------------
 Symbolic Z-matrix:
 Charge =  0 Multiplicity = 1
 42                    0.61902   0.82927   9.55544 
 16                    0.99181   2.99499   10.60194 
 16                   -1.5129    1.00672   10.66006 
 16                    0.26705   1.15838   7.25219 
 16                    0.84958  -1.56669   9.32387 
 42                   -1.8364    1.4613    8.37791 
 16                   -3.84946   2.50783   7.34351 
 1                    -4.54696   2.42974   5.9344 
 16                   -1.76688   3.8953    9.11589 
 42                    0.39165   3.32065   8.18136 
 16                   -2.49602  -0.79439   7.40768 
 1                    -1.4867   -1.17016   6.58645 
 16                    3.42845   0.82305   9.49677 
 1                     3.31223   0.52471   10.81442 
 16                   -0.17488   3.86644   5.66295 
 16                    2.51772   3.9954    7.35202 
 1                     0.38083   5.07924   5.41962 
 42                   -1.34042  -1.06532   9.53652 
 42                   -2.25401   4.16548   6.76281 
 6                    -2.02791   6.12177   6.86334 
 8                    -1.95979   7.27607   6.96323 
 42                    2.95771   3.15281   9.38692 
 16                   -2.46355  -2.16991   11.25879 
 1                    -2.69118  -1.2582    12.22663 
 16                    4.1691    4.59934   10.70386 
 1                     5.41021   4.48593   10.15801 
 16                   -3.81577   4.41585   4.84061 
 1                    -4.5571    3.0495    5.26075 
 1                    -3.04818   3.77291   3.93008 
 
 Add virtual bond connecting atoms H28        and H8         Dist= 1.73D+00.

 GradGradGradGradGradGradGradGradGradGradGradGradGradGradGradGradGradGrad
 Berny optimization.
 Initialization pass.
                           ----------------------------
                           !    Initial Parameters    !
                           ! (Angstroms and Degrees)  !
 --------------------------                            --------------------------
 ! Name  Definition              Value          Derivative Info.                !
 --------------------------------------------------------------------------------
 ! R1    R(1,2)                  2.434          calculate D2E/DX2 analytically  !
 ! R2    R(1,3)                  2.4076         calculate D2E/DX2 analytically  !
 ! R3    R(1,4)                  2.3531         calculate D2E/DX2 analytically  !
 ! R4    R(1,5)                  2.4181         calculate D2E/DX2 analytically  !
 ! R5    R(1,6)                  2.7955         calculate D2E/DX2 analytically  !
 ! R6    R(1,10)                 2.8543         calculate D2E/DX2 analytically  !
 ! R7    R(1,18)                 2.7257         calculate D2E/DX2 analytically  !
 ! R8    R(2,10)                 2.515          calculate D2E/DX2 analytically  !
 ! R9    R(2,22)                 2.3165         calculate D2E/DX2 analytically  !
 ! R10   R(3,6)                  2.3494         calculate D2E/DX2 analytically  !
 ! R11   R(3,18)                 2.3634         calculate D2E/DX2 analytically  !
 ! R12   R(4,6)                  2.4049         calculate D2E/DX2 analytically  !
 ! R13   R(4,10)                 2.3568         calculate D2E/DX2 analytically  !
 ! R14   R(5,18)                 2.2567         calculate D2E/DX2 analytically  !
 ! R15   R(6,7)                  2.4935         calculate D2E/DX2 analytically  !
 ! R16   R(6,9)                  2.5444         calculate D2E/DX2 analytically  !
 ! R17   R(6,10)                 2.9086         calculate D2E/DX2 analytically  !
 ! R18   R(6,11)                 2.5426         calculate D2E/DX2 analytically  !
 ! R19   R(6,18)                 2.8235         calculate D2E/DX2 analytically  !
 ! R20   R(7,8)                  1.5742         calculate D2E/DX2 analytically  !
 ! R21   R(7,19)                 2.3729         calculate D2E/DX2 analytically  !
 ! R22   R(8,28)                 0.9154         calculate D2E/DX2 analytically  !
 ! R23   R(9,10)                 2.4213         calculate D2E/DX2 analytically  !
 ! R24   R(9,19)                 2.4181         calculate D2E/DX2 analytically  !
 ! R25   R(10,15)                2.6384         calculate D2E/DX2 analytically  !
 ! R26   R(10,16)                2.3798         calculate D2E/DX2 analytically  !
 ! R27   R(10,19)                3.1186         calculate D2E/DX2 analytically  !
 ! R28   R(10,22)                2.8401         calculate D2E/DX2 analytically  !
 ! R29   R(11,12)                1.3544         calculate D2E/DX2 analytically  !
 ! R30   R(11,18)                2.4374         calculate D2E/DX2 analytically  !
 ! R31   R(13,14)                1.356          calculate D2E/DX2 analytically  !
 ! R32   R(13,22)                2.3794         calculate D2E/DX2 analytically  !
 ! R33   R(15,17)                1.3561         calculate D2E/DX2 analytically  !
 ! R34   R(15,19)                2.3711         calculate D2E/DX2 analytically  !
 ! R35   R(16,22)                2.246          calculate D2E/DX2 analytically  !
 ! R36   R(18,23)                2.334          calculate D2E/DX2 analytically  !
 ! R37   R(19,20)                1.9719         calculate D2E/DX2 analytically  !
 ! R38   R(19,27)                2.4893         calculate D2E/DX2 analytically  !
 ! R39   R(20,21)                1.1606         calculate D2E/DX2 analytically  !
 ! R40   R(22,25)                2.3009         calculate D2E/DX2 analytically  !
 ! R41   R(23,24)                1.349          calculate D2E/DX2 analytically  !
 ! R42   R(25,26)                1.3606         calculate D2E/DX2 analytically  !
 ! R43   R(27,29)                1.3534         calculate D2E/DX2 analytically  !
 ! A1    A(2,1,3)               82.6911         calculate D2E/DX2 analytically  !
 ! A2    A(2,1,4)              108.6206         calculate D2E/DX2 analytically  !
 ! A3    A(2,1,5)              155.2547         calculate D2E/DX2 analytically  !
 ! A4    A(2,1,6)               96.5726         calculate D2E/DX2 analytically  !
 ! A5    A(2,1,18)             137.0175         calculate D2E/DX2 analytically  !
 ! A6    A(3,1,4)              107.8377         calculate D2E/DX2 analytically  !
 ! A7    A(3,1,5)              101.6183         calculate D2E/DX2 analytically  !
 ! A8    A(3,1,10)              94.9336         calculate D2E/DX2 analytically  !
 ! A9    A(4,1,5)               93.3885         calculate D2E/DX2 analytically  !
 ! A10   A(4,1,18)              89.0199         calculate D2E/DX2 analytically  !
 ! A11   A(5,1,6)              105.5106         calculate D2E/DX2 analytically  !
 ! A12   A(5,1,10)             145.7259         calculate D2E/DX2 analytically  !
 ! A13   A(10,1,18)            123.101          calculate D2E/DX2 analytically  !
 ! A14   A(1,2,22)              87.9994         calculate D2E/DX2 analytically  !
 ! A15   A(1,6,9)               94.0202         calculate D2E/DX2 analytically  !
 ! A16   A(1,6,11)             100.8379         calculate D2E/DX2 analytically  !
 ! A17   A(3,6,4)              108.053          calculate D2E/DX2 analytically  !
 ! A18   A(3,6,7)              126.5369         calculate D2E/DX2 analytically  !
 ! A19   A(3,6,9)               84.237          calculate D2E/DX2 analytically  !
 ! A20   A(3,6,10)              94.81           calculate D2E/DX2 analytically  !
 ! A21   A(3,6,11)             103.5768         calculate D2E/DX2 analytically  !
 ! A22   A(4,6,7)              124.3888         calculate D2E/DX2 analytically  !
 ! A23   A(4,6,9)              103.4364         calculate D2E/DX2 analytically  !
 ! A24   A(4,6,11)              86.3618         calculate D2E/DX2 analytically  !
 ! A25   A(4,6,18)              85.7404         calculate D2E/DX2 analytically  !
 ! A26   A(7,6,9)               74.9822         calculate D2E/DX2 analytically  !
 ! A27   A(7,6,10)             108.7893         calculate D2E/DX2 analytically  !
 ! A28   A(7,6,11)              90.2636         calculate D2E/DX2 analytically  !
 ! A29   A(7,6,18)             133.4412         calculate D2E/DX2 analytically  !
 ! A30   A(9,6,18)             137.0729         calculate D2E/DX2 analytically  !
 ! A31   A(10,6,11)            137.7381         calculate D2E/DX2 analytically  !
 ! A32   A(10,6,18)            117.724          calculate D2E/DX2 analytically  !
 ! A33   A(6,7,8)              135.0892         calculate D2E/DX2 analytically  !
 ! A34   A(6,7,19)              81.4833         calculate D2E/DX2 analytically  !
 ! A35   A(8,7,19)              96.5175         calculate D2E/DX2 analytically  !
 ! A36   A(7,8,28)             129.0522         calculate D2E/DX2 analytically  !
 ! A37   A(6,9,19)              79.5801         calculate D2E/DX2 analytically  !
 ! A38   A(1,10,9)              95.2996         calculate D2E/DX2 analytically  !
 ! A39   A(1,10,15)            131.0855         calculate D2E/DX2 analytically  !
 ! A40   A(1,10,16)            110.1265         calculate D2E/DX2 analytically  !
 ! A41   A(1,10,19)            121.535          calculate D2E/DX2 analytically  !
 ! A42   A(1,10,22)             70.8584         calculate D2E/DX2 analytically  !
 ! A43   A(2,10,4)             105.8586         calculate D2E/DX2 analytically  !
 ! A44   A(2,10,6)              92.0046         calculate D2E/DX2 analytically  !
 ! A45   A(2,10,9)              82.6459         calculate D2E/DX2 analytically  !
 ! A46   A(2,10,16)             99.1449         calculate D2E/DX2 analytically  !
 ! A47   A(2,10,19)            132.4777         calculate D2E/DX2 analytically  !
 ! A48   A(4,10,9)             108.8311         calculate D2E/DX2 analytically  !
 ! A49   A(4,10,15)             78.5866         calculate D2E/DX2 analytically  !
 ! A50   A(4,10,16)             99.7863         calculate D2E/DX2 analytically  !
 ! A51   A(4,10,19)             91.3958         calculate D2E/DX2 analytically  !
 ! A52   A(4,10,22)             99.2592         calculate D2E/DX2 analytically  !
 ! A53   A(6,10,15)             91.8485         calculate D2E/DX2 analytically  !
 ! A54   A(6,10,16)            152.7678         calculate D2E/DX2 analytically  !
 ! A55   A(6,10,19)             63.5165         calculate D2E/DX2 analytically  !
 ! A56   A(6,10,22)            128.7292         calculate D2E/DX2 analytically  !
 ! A57   A(9,10,15)             97.3476         calculate D2E/DX2 analytically  !
 ! A58   A(9,10,16)            149.7285         calculate D2E/DX2 analytically  !
 ! A59   A(9,10,22)            130.9685         calculate D2E/DX2 analytically  !
 ! A60   A(15,10,16)            78.4943         calculate D2E/DX2 analytically  !
 ! A61   A(15,10,22)           127.6907         calculate D2E/DX2 analytically  !
 ! A62   A(16,10,19)           121.5059         calculate D2E/DX2 analytically  !
 ! A63   A(6,11,12)            106.5103         calculate D2E/DX2 analytically  !
 ! A64   A(12,11,18)            98.362          calculate D2E/DX2 analytically  !
 ! A65   A(14,13,22)           104.0829         calculate D2E/DX2 analytically  !
 ! A66   A(10,15,17)           105.5628         calculate D2E/DX2 analytically  !
 ! A67   A(17,15,19)           109.2554         calculate D2E/DX2 analytically  !
 ! A68   A(1,18,11)            105.6425         calculate D2E/DX2 analytically  !
 ! A69   A(1,18,23)            132.0482         calculate D2E/DX2 analytically  !
 ! A70   A(3,18,5)             108.0833         calculate D2E/DX2 analytically  !
 ! A71   A(3,18,11)            106.4492         calculate D2E/DX2 analytically  !
 ! A72   A(3,18,23)             91.6622         calculate D2E/DX2 analytically  !
 ! A73   A(5,18,6)             109.3057         calculate D2E/DX2 analytically  !
 ! A74   A(5,18,11)            113.7346         calculate D2E/DX2 analytically  !
 ! A75   A(5,18,23)            115.5541         calculate D2E/DX2 analytically  !
 ! A76   A(6,18,23)            129.9227         calculate D2E/DX2 analytically  !
 ! A77   A(11,18,23)           117.9661         calculate D2E/DX2 analytically  !
 ! A78   A(7,19,9)              79.5868         calculate D2E/DX2 analytically  !
 ! A79   A(7,19,10)            105.655          calculate D2E/DX2 analytically  !
 ! A80   A(7,19,15)            127.952          calculate D2E/DX2 analytically  !
 ! A81   A(7,19,20)            139.2607         calculate D2E/DX2 analytically  !
 ! A82   A(7,19,27)             80.642          calculate D2E/DX2 analytically  !
 ! A83   A(9,19,15)            105.1086         calculate D2E/DX2 analytically  !
 ! A84   A(9,19,20)             92.1858         calculate D2E/DX2 analytically  !
 ! A85   A(9,19,27)            152.7533         calculate D2E/DX2 analytically  !
 ! A86   A(10,19,20)            98.5282         calculate D2E/DX2 analytically  !
 ! A87   A(10,19,27)           155.6074         calculate D2E/DX2 analytically  !
 ! A88   A(15,19,20)            92.7644         calculate D2E/DX2 analytically  !
 ! A89   A(15,19,27)           101.8082         calculate D2E/DX2 analytically  !
 ! A90   A(20,19,27)            90.6601         calculate D2E/DX2 analytically  !
 ! A91   A(2,22,13)             94.4147         calculate D2E/DX2 analytically  !
 ! A92   A(2,22,16)            109.5438         calculate D2E/DX2 analytically  !
 ! A93   A(2,22,25)            100.9194         calculate D2E/DX2 analytically  !
 ! A94   A(10,22,13)           104.8454         calculate D2E/DX2 analytically  !
 ! A95   A(10,22,25)           132.9591         calculate D2E/DX2 analytically  !
 ! A96   A(13,22,16)           116.6103         calculate D2E/DX2 analytically  !
 ! A97   A(13,22,25)           119.0112         calculate D2E/DX2 analytically  !
 ! A98   A(16,22,25)           112.6968         calculate D2E/DX2 analytically  !
 ! A99   A(18,23,24)           106.9031         calculate D2E/DX2 analytically  !
 ! A100  A(22,25,26)           101.433          calculate D2E/DX2 analytically  !
 ! A101  A(19,27,29)            96.6553         calculate D2E/DX2 analytically  !
 ! A102  L(1,6,7,11,-1)        191.1014         calculate D2E/DX2 analytically  !
 ! A103  L(9,6,11,3,-1)        187.8139         calculate D2E/DX2 analytically  !
 ! A104  L(2,10,15,4,-1)       184.4451         calculate D2E/DX2 analytically  !
 ! A105  L(19,10,22,6,-1)      192.2457         calculate D2E/DX2 analytically  !
 ! A106  L(19,20,21,16,-1)     182.9239         calculate D2E/DX2 analytically  !
 ! A107  L(1,6,7,11,-2)        184.1487         calculate D2E/DX2 analytically  !
 ! A108  L(9,6,11,3,-2)        167.1408         calculate D2E/DX2 analytically  !
 ! A109  L(2,10,15,4,-2)       181.4513         calculate D2E/DX2 analytically  !
 ! A110  L(19,10,22,6,-2)      183.9521         calculate D2E/DX2 analytically  !
 ! A111  L(19,20,21,16,-2)     182.5554         calculate D2E/DX2 analytically  !
 ! D1    D(3,1,2,22)          -172.4441         calculate D2E/DX2 analytically  !
 ! D2    D(4,1,2,22)           -66.0242         calculate D2E/DX2 analytically  !
 ! D3    D(5,1,2,22)            85.622          calculate D2E/DX2 analytically  !
 ! D4    D(6,1,2,22)          -121.1164         calculate D2E/DX2 analytically  !
 ! D5    D(18,1,2,22)         -175.6008         calculate D2E/DX2 analytically  !
 ! D6    D(2,1,6,9)              4.3822         calculate D2E/DX2 analytically  !
 ! D7    D(2,1,6,11)          -174.7779         calculate D2E/DX2 analytically  !
 ! D8    D(5,1,6,9)            173.1113         calculate D2E/DX2 analytically  !
 ! D9    D(5,1,6,11)            -6.0488         calculate D2E/DX2 analytically  !
 ! D10   D(3,1,10,9)             0.9962         calculate D2E/DX2 analytically  !
 ! D11   D(3,1,10,15)         -103.5572         calculate D2E/DX2 analytically  !
 ! D12   D(3,1,10,16)          164.2832         calculate D2E/DX2 analytically  !
 ! D13   D(3,1,10,19)          -44.3275         calculate D2E/DX2 analytically  !
 ! D14   D(3,1,10,22)          132.663          calculate D2E/DX2 analytically  !
 ! D15   D(5,1,10,9)           120.0486         calculate D2E/DX2 analytically  !
 ! D16   D(5,1,10,15)           15.4952         calculate D2E/DX2 analytically  !
 ! D17   D(5,1,10,16)          -76.6644         calculate D2E/DX2 analytically  !
 ! D18   D(5,1,10,19)           74.7248         calculate D2E/DX2 analytically  !
 ! D19   D(5,1,10,22)         -108.2846         calculate D2E/DX2 analytically  !
 ! D20   D(18,1,10,9)           51.1126         calculate D2E/DX2 analytically  !
 ! D21   D(18,1,10,15)         -53.4407         calculate D2E/DX2 analytically  !
 ! D22   D(18,1,10,16)        -145.6003         calculate D2E/DX2 analytically  !
 ! D23   D(18,1,10,19)           5.7889         calculate D2E/DX2 analytically  !
 ! D24   D(18,1,10,22)        -177.2205         calculate D2E/DX2 analytically  !
 ! D25   D(2,1,18,11)          103.3847         calculate D2E/DX2 analytically  !
 ! D26   D(2,1,18,23)          -51.8931         calculate D2E/DX2 analytically  !
 ! D27   D(4,1,18,11)          -13.362          calculate D2E/DX2 analytically  !
 ! D28   D(4,1,18,23)         -168.6398         calculate D2E/DX2 analytically  !
 ! D29   D(10,1,18,11)          29.4394         calculate D2E/DX2 analytically  !
 ! D30   D(10,1,18,23)        -125.8384         calculate D2E/DX2 analytically  !
 ! D31   D(1,2,22,13)          -34.7836         calculate D2E/DX2 analytically  !
 ! D32   D(1,2,22,16)           85.4897         calculate D2E/DX2 analytically  !
 ! D33   D(1,2,22,25)         -155.4665         calculate D2E/DX2 analytically  !
 ! D34   D(1,3,6,18)            73.4383         calculate D2E/DX2 analytically  !
 ! D35   D(1,4,6,10)            78.277          calculate D2E/DX2 analytically  !
 ! D36   D(3,6,7,8)           -151.6651         calculate D2E/DX2 analytically  !
 ! D37   D(3,6,7,19)           117.6273         calculate D2E/DX2 analytically  !
 ! D38   D(4,6,7,8)             41.2979         calculate D2E/DX2 analytically  !
 ! D39   D(4,6,7,19)           -49.4098         calculate D2E/DX2 analytically  !
 ! D40   D(9,6,7,8)            137.4931         calculate D2E/DX2 analytically  !
 ! D41   D(9,6,7,19)            46.7855         calculate D2E/DX2 analytically  !
 ! D42   D(10,6,7,8)            97.0919         calculate D2E/DX2 analytically  !
 ! D43   D(10,6,7,19)            6.3843         calculate D2E/DX2 analytically  !
 ! D44   D(11,6,7,8)           -44.4728         calculate D2E/DX2 analytically  !
 ! D45   D(11,6,7,19)         -135.1804         calculate D2E/DX2 analytically  !
 ! D46   D(18,6,7,8)           -80.3166         calculate D2E/DX2 analytically  !
 ! D47   D(18,6,7,19)         -171.0242         calculate D2E/DX2 analytically  !
 ! D48   D(1,6,9,19)           129.5546         calculate D2E/DX2 analytically  !
 ! D49   D(3,6,9,19)          -176.2685         calculate D2E/DX2 analytically  !
 ! D50   D(4,6,9,19)            76.5065         calculate D2E/DX2 analytically  !
 ! D51   D(7,6,9,19)           -45.9827         calculate D2E/DX2 analytically  !
 ! D52   D(18,6,9,19)          174.8277         calculate D2E/DX2 analytically  !
 ! D53   D(3,6,10,2)             0.8775         calculate D2E/DX2 analytically  !
 ! D54   D(3,6,10,15)         -176.4951         calculate D2E/DX2 analytically  !
 ! D55   D(3,6,10,16)          115.431          calculate D2E/DX2 analytically  !
 ! D56   D(3,6,10,19)         -136.6413         calculate D2E/DX2 analytically  !
 ! D57   D(3,6,10,22)           39.4066         calculate D2E/DX2 analytically  !
 ! D58   D(7,6,10,2)           132.1548         calculate D2E/DX2 analytically  !
 ! D59   D(7,6,10,15)          -45.2178         calculate D2E/DX2 analytically  !
 ! D60   D(7,6,10,16)         -113.2917         calculate D2E/DX2 analytically  !
 ! D61   D(7,6,10,19)           -5.364          calculate D2E/DX2 analytically  !
 ! D62   D(7,6,10,22)          170.6838         calculate D2E/DX2 analytically  !
 ! D63   D(11,6,10,2)         -115.4111         calculate D2E/DX2 analytically  !
 ! D64   D(11,6,10,15)          67.2163         calculate D2E/DX2 analytically  !
 ! D65   D(11,6,10,16)          -0.8576         calculate D2E/DX2 analytically  !
 ! D66   D(11,6,10,19)         107.0701         calculate D2E/DX2 analytically  !
 ! D67   D(11,6,10,22)         -76.882          calculate D2E/DX2 analytically  !
 ! D68   D(18,6,10,2)          -49.9706         calculate D2E/DX2 analytically  !
 ! D69   D(18,6,10,15)         132.6567         calculate D2E/DX2 analytically  !
 ! D70   D(18,6,10,16)          64.5829         calculate D2E/DX2 analytically  !
 ! D71   D(18,6,10,19)         172.5105         calculate D2E/DX2 analytically  !
 ! D72   D(18,6,10,22)         -11.4416         calculate D2E/DX2 analytically  !
 ! D73   D(1,6,11,12)          -56.8223         calculate D2E/DX2 analytically  !
 ! D74   D(3,6,11,12)         -113.1227         calculate D2E/DX2 analytically  !
 ! D75   D(4,6,11,12)           -5.4191         calculate D2E/DX2 analytically  !
 ! D76   D(7,6,11,12)          119.029          calculate D2E/DX2 analytically  !
 ! D77   D(10,6,11,12)           0.0824         calculate D2E/DX2 analytically  !
 ! D78   D(4,6,18,5)            17.7537         calculate D2E/DX2 analytically  !
 ! D79   D(4,6,18,23)          170.5164         calculate D2E/DX2 analytically  !
 ! D80   D(7,6,18,5)           152.9482         calculate D2E/DX2 analytically  !
 ! D81   D(7,6,18,23)          -54.2891         calculate D2E/DX2 analytically  !
 ! D82   D(9,6,18,5)           -87.438          calculate D2E/DX2 analytically  !
 ! D83   D(9,6,18,23)           65.3247         calculate D2E/DX2 analytically  !
 ! D84   D(10,6,18,5)          -24.2801         calculate D2E/DX2 analytically  !
 ! D85   D(10,6,18,23)         128.4826         calculate D2E/DX2 analytically  !
 ! D86   D(6,7,8,28)          -106.1145         calculate D2E/DX2 analytically  !
 ! D87   D(19,7,8,28)          -21.654          calculate D2E/DX2 analytically  !
 ! D88   D(6,7,19,9)           -48.8563         calculate D2E/DX2 analytically  !
 ! D89   D(6,7,19,10)           -5.8523         calculate D2E/DX2 analytically  !
 ! D90   D(6,7,19,15)           52.2575         calculate D2E/DX2 analytically  !
 ! D91   D(6,7,19,20)         -130.001          calculate D2E/DX2 analytically  !
 ! D92   D(6,7,19,27)          149.9866         calculate D2E/DX2 analytically  !
 ! D93   D(8,7,19,9)           176.4229         calculate D2E/DX2 analytically  !
 ! D94   D(8,7,19,10)         -140.5732         calculate D2E/DX2 analytically  !
 ! D95   D(8,7,19,15)          -82.4633         calculate D2E/DX2 analytically  !
 ! D96   D(8,7,19,20)           95.2782         calculate D2E/DX2 analytically  !
 ! D97   D(8,7,19,27)           15.2657         calculate D2E/DX2 analytically  !
 ! D98   D(6,9,19,7)            47.9115         calculate D2E/DX2 analytically  !
 ! D99   D(6,9,19,15)          -78.8205         calculate D2E/DX2 analytically  !
 ! D100  D(6,9,19,20)         -172.2774         calculate D2E/DX2 analytically  !
 ! D101  D(6,9,19,27)           92.0237         calculate D2E/DX2 analytically  !
 ! D102  D(1,10,15,17)        -155.0016         calculate D2E/DX2 analytically  !
 ! D103  D(4,10,15,17)        -150.834          calculate D2E/DX2 analytically  !
 ! D104  D(6,10,15,17)         157.4317         calculate D2E/DX2 analytically  !
 ! D105  D(9,10,15,17)         101.3486         calculate D2E/DX2 analytically  !
 ! D106  D(16,10,15,17)        -48.2393         calculate D2E/DX2 analytically  !
 ! D107  D(22,10,15,17)        -57.8845         calculate D2E/DX2 analytically  !
 ! D108  D(1,10,19,7)            6.6619         calculate D2E/DX2 analytically  !
 ! D109  D(1,10,19,20)         153.5596         calculate D2E/DX2 analytically  !
 ! D110  D(1,10,19,27)         -95.4081         calculate D2E/DX2 analytically  !
 ! D111  D(2,10,19,7)          -60.6796         calculate D2E/DX2 analytically  !
 ! D112  D(2,10,19,20)          86.2181         calculate D2E/DX2 analytically  !
 ! D113  D(2,10,19,27)        -162.7495         calculate D2E/DX2 analytically  !
 ! D114  D(4,10,19,7)           52.4571         calculate D2E/DX2 analytically  !
 ! D115  D(4,10,19,20)        -160.6451         calculate D2E/DX2 analytically  !
 ! D116  D(4,10,19,27)         -49.6128         calculate D2E/DX2 analytically  !
 ! D117  D(6,10,19,7)            5.5425         calculate D2E/DX2 analytically  !
 ! D118  D(6,10,19,20)         152.4403         calculate D2E/DX2 analytically  !
 ! D119  D(6,10,19,27)         -96.5274         calculate D2E/DX2 analytically  !
 ! D120  D(16,10,19,7)         154.835          calculate D2E/DX2 analytically  !
 ! D121  D(16,10,19,20)        -58.2673         calculate D2E/DX2 analytically  !
 ! D122  D(16,10,19,27)         52.765          calculate D2E/DX2 analytically  !
 ! D123  D(1,10,22,13)          27.6845         calculate D2E/DX2 analytically  !
 ! D124  D(1,10,22,25)        -131.1256         calculate D2E/DX2 analytically  !
 ! D125  D(4,10,22,13)         -17.2916         calculate D2E/DX2 analytically  !
 ! D126  D(4,10,22,25)        -176.1018         calculate D2E/DX2 analytically  !
 ! D127  D(6,10,22,13)          32.2421         calculate D2E/DX2 analytically  !
 ! D128  D(6,10,22,25)        -126.5681         calculate D2E/DX2 analytically  !
 ! D129  D(9,10,22,13)         107.7858         calculate D2E/DX2 analytically  !
 ! D130  D(9,10,22,25)         -51.0243         calculate D2E/DX2 analytically  !
 ! D131  D(15,10,22,13)        -99.9713         calculate D2E/DX2 analytically  !
 ! D132  D(15,10,22,25)        101.2185         calculate D2E/DX2 analytically  !
 ! D133  D(12,11,18,1)          66.6321         calculate D2E/DX2 analytically  !
 ! D134  D(12,11,18,3)         125.0339         calculate D2E/DX2 analytically  !
 ! D135  D(12,11,18,5)           6.1283         calculate D2E/DX2 analytically  !
 ! D136  D(12,11,18,23)       -133.9545         calculate D2E/DX2 analytically  !
 ! D137  D(14,13,22,2)         -50.4222         calculate D2E/DX2 analytically  !
 ! D138  D(14,13,22,10)       -107.7413         calculate D2E/DX2 analytically  !
 ! D139  D(14,13,22,16)       -164.8755         calculate D2E/DX2 analytically  !
 ! D140  D(14,13,22,25)         54.6518         calculate D2E/DX2 analytically  !
 ! D141  D(17,15,19,7)         174.8583         calculate D2E/DX2 analytically  !
 ! D142  D(17,15,19,9)         -96.6807         calculate D2E/DX2 analytically  !
 ! D143  D(17,15,19,20)         -3.6663         calculate D2E/DX2 analytically  !
 ! D144  D(17,15,19,27)         87.5874         calculate D2E/DX2 analytically  !
 ! D145  D(1,18,23,24)          39.5061         calculate D2E/DX2 analytically  !
 ! D146  D(3,18,23,24)          -3.7239         calculate D2E/DX2 analytically  !
 ! D147  D(5,18,23,24)         107.2582         calculate D2E/DX2 analytically  !
 ! D148  D(6,18,23,24)         -44.1364         calculate D2E/DX2 analytically  !
 ! D149  D(11,18,23,24)       -113.3662         calculate D2E/DX2 analytically  !
 ! D150  D(7,19,27,29)        -103.7514         calculate D2E/DX2 analytically  !
 ! D151  D(9,19,27,29)        -147.6859         calculate D2E/DX2 analytically  !
 ! D152  D(10,19,27,29)          3.6338         calculate D2E/DX2 analytically  !
 ! D153  D(15,19,27,29)         23.2848         calculate D2E/DX2 analytically  !
 ! D154  D(20,19,27,29)        116.2474         calculate D2E/DX2 analytically  !
 ! D155  D(2,22,25,26)         167.9929         calculate D2E/DX2 analytically  !
 ! D156  D(10,22,25,26)       -136.8954         calculate D2E/DX2 analytically  !
 ! D157  D(13,22,25,26)         66.653          calculate D2E/DX2 analytically  !
 ! D158  D(16,22,25,26)        -75.2645         calculate D2E/DX2 analytically  !
 --------------------------------------------------------------------------------
 Trust Radius=3.00D-01 FncErr=1.00D-07 GrdErr=1.00D-06 EigMax=2.50D+02 EigMin=1.00D-04
 Number of steps in this run=    174 maximum allowed number of steps=    174.
 Search for a saddle point of order  1.
 GradGradGradGradGradGradGradGradGradGradGradGradGradGradGradGradGradGrad

                          Input orientation:                          
 ---------------------------------------------------------------------
 Center     Atomic      Atomic             Coordinates (Angstroms)
 Number     Number       Type             X           Y           Z
 ---------------------------------------------------------------------
      1         42           0        0.619017    0.829269    9.555440
      2         16           0        0.991810    2.994986   10.601937
      3         16           0       -1.512895    1.006724   10.660059
      4         16           0        0.267052    1.158377    7.252189
      5         16           0        0.849575   -1.566686    9.323873
      6         42           0       -1.836396    1.461295    8.377911
      7         16           0       -3.849458    2.507829    7.343510
      8          1           0       -4.546957    2.429741    5.934399
      9         16           0       -1.766878    3.895301    9.115888
     10         42           0        0.391652    3.320652    8.181361
     11         16           0       -2.496024   -0.794390    7.407675
     12          1           0       -1.486698   -1.170162    6.586447
     13         16           0        3.428450    0.823045    9.496766
     14          1           0        3.312230    0.524714   10.814425
     15         16           0       -0.174878    3.866438    5.662953
     16         16           0        2.517721    3.995401    7.352023
     17          1           0        0.380829    5.079239    5.419620
     18         42           0       -1.340421   -1.065323    9.536518
     19         42           0       -2.254015    4.165482    6.762814
     20          6           0       -2.027914    6.121774    6.863343
     21          8           0       -1.959787    7.276073    6.963234
     22         42           0        2.957714    3.152810    9.386918
     23         16           0       -2.463551   -2.169913   11.258792
     24          1           0       -2.691181   -1.258198   12.226625
     25         16           0        4.169099    4.599336   10.703863
     26          1           0        5.410207    4.485926   10.158008
     27         16           0       -3.815773    4.415853    4.840613
     28          1           0       -4.557104    3.049504    5.260745
     29          1           0       -3.048180    3.772914    3.930084
 ---------------------------------------------------------------------
                    Distance matrix (angstroms):
                    1          2          3          4          5
     1  Mo   0.000000
     2  S    2.434022   0.000000
     3  S    2.407638   3.198454   0.000000
     4  S    2.353116   3.888344   3.847699   0.000000
     5  S    2.418136   4.739465   3.740200   3.472344   0.000000
     6  Mo   2.795547   3.911170   2.349359   2.404891   4.156676
     7  S    5.260938   5.855984   4.325776   4.333015   6.527206
     8  H    6.508513   7.265215   5.793304   5.150497   7.522135
     9  S    3.909764   3.260256   3.285247   3.886000   6.059900
    10  Mo   2.854256   2.515042   3.889152   2.356760   5.039950
    11  S    4.117359   6.060335   3.845589   3.387044   3.932085
    12  H    4.152912   6.294094   4.618856   2.990141   3.620622
    13  S    2.810053   3.446149   5.079752   3.891659   3.520128
    14  H    2.988510   3.395842   4.851597   4.729076   3.558141
    15  S    5.000612   5.149189   5.910949   3.170894   6.631039
    16  S    4.299362   3.727087   6.010088   3.622731   6.132513
    17  H    5.934980   5.619058   6.901722   4.329482   7.722126
    18  Mo   2.725662   4.802138   2.363360   3.570290   2.256693
    19  Mo   5.213769   5.161812   5.071048   3.954484   7.003502
    20  C    6.501095   5.733465   6.390934   5.482096   8.570097
    21  O    7.411548   6.346636   7.291842   6.516787   9.573898
    22  Mo   3.301022   2.316454   5.119855   3.971712   5.169320
    23  S    4.625876   6.248773   3.369459   5.881035   3.883890
    24  H    4.738160   5.856074   2.995390   6.271841   4.588909
    25  S    5.304278   3.560828   6.722636   6.243414   7.137467
    26  H    6.057205   4.684251   7.764422   6.780001   7.624255
    27  S    7.400037   7.637053   7.126806   5.752939   8.812257
    28  H    7.082802   7.702061   6.526312   5.551098   8.188431
    29  H    7.331985   7.838387   7.436496   5.372425   8.532103
                    6          7          8          9         10
     6  Mo   0.000000
     7  S    2.493519   0.000000
     8  H    3.775683   1.574229   0.000000
     9  S    2.544372   3.066519   4.471977   0.000000
    10  Mo   2.908614   4.398828   5.498402   2.421325   0.000000
    11  S    2.542554   3.569391   4.095350   5.044090   5.086338
    12  H    3.202530   4.436597   4.769660   5.668817   5.122437
    13  S    5.420129   7.774507   8.881388   6.047748   4.146140
    14  H    5.772533   8.201815   9.445136   6.327971   4.824943
    15  S    3.989530   4.262937   4.610082   3.802375   2.638412
    16  S    5.141252   6.538648   7.373644   4.634547   2.379760
    17  H    5.172726   5.311199   5.618533   4.435848   3.274135
    18  Mo   2.823501   4.885895   5.955888   4.996657   4.906455
    19  Mo   3.177353   2.372859   2.992766   2.418110   3.118584
    20  C    4.904147   4.075436   4.565044   3.177937   3.929091
    21  O    5.985665   5.143114   5.589176   4.012574   4.760090
    22  Mo   5.182934   7.136463   8.292334   4.790253   2.840108
    23  S    4.677443   6.255513   7.338021   6.470256   6.911517
    24  H    4.789457   6.274502   7.525750   6.090121   6.843529
    25  S    7.164030   8.942239  10.169787   6.184913   4.718809
    26  H    8.051732   9.878039  11.009627   7.276359   5.518233
    27  S    5.015957   3.147409   2.382360   4.769373   5.482927
    28  H    4.431860   2.265410   0.915434   4.833514   5.752713
    29  H    5.157050   3.727461   2.840374   5.343152   5.487289
                   11         12         13         14         15
    11  S    0.000000
    12  H    1.354385   0.000000
    13  S    6.486894   6.049918   0.000000
    14  H    6.861618   6.616503   1.355999   0.000000
    15  S    5.491365   5.285930   6.078185   7.061495   0.000000
    16  S    6.934179   6.580617   3.936139   4.966401   3.181144
    17  H    6.835800   6.626021   6.635232   7.644654   1.356063
    18  Mo   2.437375   2.955555   5.129293   5.080199   6.378500
    19  Mo   5.007469   5.393420   7.137001   7.788057   2.371061
    20  C    6.953326   7.317234   8.048811   8.686499   3.156140
    21  O    8.100460   8.467861   8.780288   9.391841   4.062295
    22  Mo   7.017197   6.803199   2.379383   3.011702   4.918365
    23  S    4.089526   4.876941   6.839460   6.388906   8.543358
    24  H    4.845150   5.768027   7.016665   6.419815   8.699165
    25  S    9.185913   9.067980   4.033115   4.165212   6.694628
    26  H    9.897199   9.608053   4.216788   4.530297   7.196003
    27  S    5.956356   6.298896   9.330959  10.081459   3.772826
    28  H    4.861366   5.384279   9.309676   9.957125   4.475830
    29  H    5.767043   5.824817   9.035287   9.919666   3.356702
                   16         17         18         19         20
    16  S    0.000000
    17  H    3.078180   0.000000
    18  Mo   6.728165   7.593892   0.000000
    19  Mo   4.810983   3.095404   5.990777   0.000000
    20  C    5.042129   2.995540   7.698888   1.971879   0.000000
    21  O    5.564355   3.561925   8.751245   3.130897   1.160614
    22  Mo   2.245963   5.107927   6.024034   5.922292   6.327690
    23  S    8.836686   9.733274   2.334045   7.771419   9.394776
    24  H    8.859724   9.794676   3.016360   7.711073   9.147060
    25  S    3.785052   6.519549   7.987857   7.548277   7.447844
    26  H    4.059636   6.935343   8.762054   8.388702   8.297979
    27  S    6.826207   4.287983   7.630346   2.489303   3.193437
    28  H    7.437830   5.341184   6.749895   2.967463   4.289984
    29  H    6.537463   3.960215   7.599808   2.968024   3.893853
                   21         22         23         24         25
    21  O    0.000000
    22  Mo   6.859837   0.000000
    23  S   10.389045   7.824667   0.000000
    24  H   10.053457   7.709147   1.348978   0.000000
    25  S    7.662928   2.300921   9.493299   9.148385   0.000000
    26  H    8.503429   2.895945  10.368606  10.144290   1.360577
    27  S    4.016349   8.254956   9.294829   9.381510   9.908055
    28  H    5.244846   8.573708   8.222034   8.400086  10.400776
    29  H    4.759908   8.138325   9.453515   9.709384   9.932581
                   26         27         28         29
    26  H    0.000000
    27  S   10.648864   0.000000
    28  H   11.197936   1.610277   0.000000
    29  H   10.528045   1.353378   2.137951   0.000000
 Symmetry turned off by external request.
 Stoichiometry    CH8Mo6OS13
 Framework group  C1[X(CH8Mo6OS13)]
 Deg. of freedom    81
 Full point group                 C1      NOp   1
 Rotational constants (GHZ):           0.0832463           0.0778169           0.0465926
 General basis read from cards:  (5D, 7F)
 ======================================================================================================
                                       Pseudopotential Parameters
 ======================================================================================================
  Center     Atomic      Valence      Angular      Power
  Number     Number     Electrons     Momentum     of R      Exponent        Coefficient   SO-Coeffient
 ======================================================================================================
    1         42           14
                                      F and up 
                                                     0      537.9667807       -0.04694920    0.00000000
                                                     1      147.8982938      -20.20800840    0.00000000
                                                     2       45.7358898     -106.21163020    0.00000000
                                                     2       13.2911467      -41.81073680    0.00000000
                                                     2        4.7059961       -4.20541030    0.00000000
                                      S - F
                                                     0      110.2991760        2.80637170    0.00000000
                                                     1       23.2014645       44.51620120    0.00000000
                                                     2        5.3530131       82.77852270    0.00000000
                                      P - F
                                                     0       63.2901397        4.94208760    0.00000000
                                                     1       23.3315302       25.86049760    0.00000000
                                                     2       24.6759423      132.47087420    0.00000000
                                                     2        4.6493040       57.31497940    0.00000000
                                      D - F
                                                     0      104.4839977        3.00545910    0.00000000
                                                     1       66.2307245       26.36378510    0.00000000
                                                     2       39.1283176      183.38491990    0.00000000
                                                     2       13.1164437       98.44530680    0.00000000
                                                     2        3.6280263       22.49013770    0.00000000
    2         16
                                   No pseudopotential on this center.
    3         16
                                   No pseudopotential on this center.
    4         16
                                   No pseudopotential on this center.
    5         16
                                   No pseudopotential on this center.
    6         42           14
                                      F and up 
                                                     0      537.9667807       -0.04694920    0.00000000
                                                     1      147.8982938      -20.20800840    0.00000000
                                                     2       45.7358898     -106.21163020    0.00000000
                                                     2       13.2911467      -41.81073680    0.00000000
                                                     2        4.7059961       -4.20541030    0.00000000
                                      S - F
                                                     0      110.2991760        2.80637170    0.00000000
                                                     1       23.2014645       44.51620120    0.00000000
                                                     2        5.3530131       82.77852270    0.00000000
                                      P - F
                                                     0       63.2901397        4.94208760    0.00000000
                                                     1       23.3315302       25.86049760    0.00000000
                                                     2       24.6759423      132.47087420    0.00000000
                                                     2        4.6493040       57.31497940    0.00000000
                                      D - F
                                                     0      104.4839977        3.00545910    0.00000000
                                                     1       66.2307245       26.36378510    0.00000000
                                                     2       39.1283176      183.38491990    0.00000000
                                                     2       13.1164437       98.44530680    0.00000000
                                                     2        3.6280263       22.49013770    0.00000000
    7         16
                                   No pseudopotential on this center.
    8          1
                                   No pseudopotential on this center.
    9         16
                                   No pseudopotential on this center.
   10         42           14
                                      F and up 
                                                     0      537.9667807       -0.04694920    0.00000000
                                                     1      147.8982938      -20.20800840    0.00000000
                                                     2       45.7358898     -106.21163020    0.00000000
                                                     2       13.2911467      -41.81073680    0.00000000
                                                     2        4.7059961       -4.20541030    0.00000000
                                      S - F
                                                     0      110.2991760        2.80637170    0.00000000
                                                     1       23.2014645       44.51620120    0.00000000
                                                     2        5.3530131       82.77852270    0.00000000
                                      P - F
                                                     0       63.2901397        4.94208760    0.00000000
                                                     1       23.3315302       25.86049760    0.00000000
                                                     2       24.6759423      132.47087420    0.00000000
                                                     2        4.6493040       57.31497940    0.00000000
                                      D - F
                                                     0      104.4839977        3.00545910    0.00000000
                                                     1       66.2307245       26.36378510    0.00000000
                                                     2       39.1283176      183.38491990    0.00000000
                                                     2       13.1164437       98.44530680    0.00000000
                                                     2        3.6280263       22.49013770    0.00000000
   11         16
                                   No pseudopotential on this center.
   12          1
                                   No pseudopotential on this center.
   13         16
                                   No pseudopotential on this center.
   14          1
                                   No pseudopotential on this center.
   15         16
                                   No pseudopotential on this center.
   16         16
                                   No pseudopotential on this center.
   17          1
                                   No pseudopotential on this center.
   18         42           14
                                      F and up 
                                                     0      537.9667807       -0.04694920    0.00000000
                                                     1      147.8982938      -20.20800840    0.00000000
                                                     2       45.7358898     -106.21163020    0.00000000
                                                     2       13.2911467      -41.81073680    0.00000000
                                                     2        4.7059961       -4.20541030    0.00000000
                                      S - F
                                                     0      110.2991760        2.80637170    0.00000000
                                                     1       23.2014645       44.51620120    0.00000000
                                                     2        5.3530131       82.77852270    0.00000000
                                      P - F
                                                     0       63.2901397        4.94208760    0.00000000
                                                     1       23.3315302       25.86049760    0.00000000
                                                     2       24.6759423      132.47087420    0.00000000
                                                     2        4.6493040       57.31497940    0.00000000
                                      D - F
                                                     0      104.4839977        3.00545910    0.00000000
                                                     1       66.2307245       26.36378510    0.00000000
                                                     2       39.1283176      183.38491990    0.00000000
                                                     2       13.1164437       98.44530680    0.00000000
                                                     2        3.6280263       22.49013770    0.00000000
   19         42           14
                                      F and up 
                                                     0      537.9667807       -0.04694920    0.00000000
                                                     1      147.8982938      -20.20800840    0.00000000
                                                     2       45.7358898     -106.21163020    0.00000000
                                                     2       13.2911467      -41.81073680    0.00000000
                                                     2        4.7059961       -4.20541030    0.00000000
                                      S - F
                                                     0      110.2991760        2.80637170    0.00000000
                                                     1       23.2014645       44.51620120    0.00000000
                                                     2        5.3530131       82.77852270    0.00000000
                                      P - F
                                                     0       63.2901397        4.94208760    0.00000000
                                                     1       23.3315302       25.86049760    0.00000000
                                                     2       24.6759423      132.47087420    0.00000000
                                                     2        4.6493040       57.31497940    0.00000000
                                      D - F
                                                     0      104.4839977        3.00545910    0.00000000
                                                     1       66.2307245       26.36378510    0.00000000
                                                     2       39.1283176      183.38491990    0.00000000
                                                     2       13.1164437       98.44530680    0.00000000
                                                     2        3.6280263       22.49013770    0.00000000
   20          6
                                   No pseudopotential on this center.
   21          8
                                   No pseudopotential on this center.
   22         42           14
                                      F and up 
                                                     0      537.9667807       -0.04694920    0.00000000
                                                     1      147.8982938      -20.20800840    0.00000000
                                                     2       45.7358898     -106.21163020    0.00000000
                                                     2       13.2911467      -41.81073680    0.00000000
                                                     2        4.7059961       -4.20541030    0.00000000
                                      S - F
                                                     0      110.2991760        2.80637170    0.00000000
                                                     1       23.2014645       44.51620120    0.00000000
                                                     2        5.3530131       82.77852270    0.00000000
                                      P - F
                                                     0       63.2901397        4.94208760    0.00000000
                                                     1       23.3315302       25.86049760    0.00000000
                                                     2       24.6759423      132.47087420    0.00000000
                                                     2        4.6493040       57.31497940    0.00000000
                                      D - F
                                                     0      104.4839977        3.00545910    0.00000000
                                                     1       66.2307245       26.36378510    0.00000000
                                                     2       39.1283176      183.38491990    0.00000000
                                                     2       13.1164437       98.44530680    0.00000000
                                                     2        3.6280263       22.49013770    0.00000000
   23         16
                                   No pseudopotential on this center.
   24          1
                                   No pseudopotential on this center.
   25         16
                                   No pseudopotential on this center.
   26          1
                                   No pseudopotential on this center.
   27         16
                                   No pseudopotential on this center.
   28          1
                                   No pseudopotential on this center.
   29          1
                                   No pseudopotential on this center.
 ======================================================================================================
   434 basis functions,  1082 primitive gaussians,   461 cartesian basis functions
   157 alpha electrons      157 beta electrons
       nuclear repulsion energy      5784.9226912579 Hartrees.
 NAtoms=   29 NActive=   29 NUniq=   29 SFac= 1.00D+00 NAtFMM=   60 NAOKFM=F Big=F
 Integral buffers will be    131072 words long.
 Raffenetti 2 integral format.
 Two-electron integral symmetry is turned off.
 One-electron integrals computed using PRISM.
   1 Symmetry operations used in ECPInt.
 ECPInt:  NShTT=   10585 NPrTT=   74872 LenC2=    9177 LenP2D=   40584.
 LDataN:  DoStor=T MaxTD1= 5 Len=  102
 NBasis=   434 RedAO= T EigKep=  6.28D-04  NBF=   434
 NBsUse=   434 1.00D-06 EigRej= -1.00D+00 NBFU=   434
 Defaulting to unpruned grid for atomic number  42.
 Defaulting to unpruned grid for atomic number  42.
 Defaulting to unpruned grid for atomic number  42.
 Defaulting to unpruned grid for atomic number  42.
 Defaulting to unpruned grid for atomic number  42.
 Defaulting to unpruned grid for atomic number  42.
 ExpMin= 2.47D-02 ExpMax= 2.19D+04 ExpMxC= 3.30D+03 IAcc=3 IRadAn=         5 AccDes= 0.00D+00
 Harris functional with IExCor=  402 and IRadAn=       5 diagonalized for initial guess.
 HarFok:  IExCor=  402 AccDes= 0.00D+00 IRadAn=         5 IDoV= 1 UseB2=F ITyADJ=14
 ICtDFT=  3500011 ScaDFX=  1.000000  1.000000  1.000000  1.000000
 Defaulting to unpruned grid for atomic number  42.
 FoFCou: FMM=F IPFlag=           0 FMFlag=      100000 FMFlg1=           0
         NFxFlg=           0 DoJE=T BraDBF=F KetDBF=T FulRan=T
         wScrn=  0.000000 ICntrl=       500 IOpCl=  0 I1Cent=   200000004 NGrid=           0
         NMat0=    1 NMatS0=      1 NMatT0=    0 NMatD0=    1 NMtDS0=    0 NMtDT0=    0
 Symmetry not used in FoFCou.
 Requested convergence on RMS density matrix=1.00D-08 within 128 cycles.
 Requested convergence on MAX density matrix=1.00D-06.
 Requested convergence on             energy=1.00D-06.
 No special actions if energy rises.
 Defaulting to unpruned grid for atomic number  42.
 Defaulting to unpruned grid for atomic number  42.
 Defaulting to unpruned grid for atomic number  42.
 Defaulting to unpruned grid for atomic number  42.
 Defaulting to unpruned grid for atomic number  42.
 Defaulting to unpruned grid for atomic number  42.
 Defaulting to unpruned grid for atomic number  42.
 Defaulting to unpruned grid for atomic number  42.
 Defaulting to unpruned grid for atomic number  42.
 Defaulting to unpruned grid for atomic number  42.
 Defaulting to unpruned grid for atomic number  42.
 Defaulting to unpruned grid for atomic number  42.
 Defaulting to unpruned grid for atomic number  42.
 Defaulting to unpruned grid for atomic number  42.
 Defaulting to unpruned grid for atomic number  42.
 Defaulting to unpruned grid for atomic number  42.
 Defaulting to unpruned grid for atomic number  42.
 Defaulting to unpruned grid for atomic number  42.
 Defaulting to unpruned grid for atomic number  42.
 Defaulting to unpruned grid for atomic number  42.
 Defaulting to unpruned grid for atomic number  42.
 Defaulting to unpruned grid for atomic number  42.
 Defaulting to unpruned grid for atomic number  42.
 Defaulting to unpruned grid for atomic number  42.
 Defaulting to unpruned grid for atomic number  42.
 Defaulting to unpruned grid for atomic number  42.
 Defaulting to unpruned grid for atomic number  42.
 Defaulting to unpruned grid for atomic number  42.
 Defaulting to unpruned grid for atomic number  42.
 Defaulting to unpruned grid for atomic number  42.
 Defaulting to unpruned grid for atomic number  42.
 Defaulting to unpruned grid for atomic number  42.
 Defaulting to unpruned grid for atomic number  42.
 Defaulting to unpruned grid for atomic number  42.
 Defaulting to unpruned grid for atomic number  42.
 Defaulting to unpruned grid for atomic number  42.
 Defaulting to unpruned grid for atomic number  42.
 Defaulting to unpruned grid for atomic number  42.
 Defaulting to unpruned grid for atomic number  42.
 Defaulting to unpruned grid for atomic number  42.
 Defaulting to unpruned grid for atomic number  42.
 Defaulting to unpruned grid for atomic number  42.
 Defaulting to unpruned grid for atomic number  42.
 Defaulting to unpruned grid for atomic number  42.
 Defaulting to unpruned grid for atomic number  42.
 Defaulting to unpruned grid for atomic number  42.
 Defaulting to unpruned grid for atomic number  42.
 Defaulting to unpruned grid for atomic number  42.
 EnCoef did     7 forward-backward iterations
 EnCoef did   100 forward-backward iterations
 EnCoef did   100 forward-backward iterations
 EnCoef did   100 forward-backward iterations
 EnCoef did   100 forward-backward iterations
 EnCoef did    10 forward-backward iterations
 EnCoef did     7 forward-backward iterations
 EnCoef did     5 forward-backward iterations
 EnCoef did     5 forward-backward iterations
 EnCoef did   100 forward-backward iterations
 EnCoef did     8 forward-backward iterations
 EnCoef did     4 forward-backward iterations
 EnCoef did     6 forward-backward iterations
 EnCoef did     3 forward-backward iterations
 Restarting incremental Fock formation.
 SCF Done:  E(RB3LYP) =  -5700.37002485     A.U. after   33 cycles
            NFock= 33  Conv=0.62D-08     -V/T= 2.0523
 DoSCS=F DFT=T ScalE2(SS,OS)=  1.000000  1.000000
 Range of M.O.s used for correlation:     1   434
 NBasis=   434 NAE=   157 NBE=   157 NFC=     0 NFV=     0
 NROrb=    434 NOA=   157 NOB=   157 NVA=   277 NVB=   277

 **** Warning!!: The largest alpha MO coefficient is  0.10860379D+02


 **** Warning!!: The smallest alpha delta epsilon is  0.52057504D-01

   1 Symmetry operations used in ECPInt.
 ECPInt:  NShTT=   10585 NPrTT=   74872 LenC2=    9177 LenP2D=   40584.
 LDataN:  DoStor=T MaxTD1= 6 Len=  172
 Number of processors reduced to  20 by ecpmxn.
 Symmetrizing basis deriv contribution to polar:
 IMax=3 JMax=2 DiffMx= 0.00D+00
 G2DrvN: will do    30 centers at a time, making    1 passes.
 Calling FoFCou, ICntrl=  3107 FMM=F I1Cent=   0 AccDes= 0.00D+00.
 Defaulting to unpruned grid for atomic number  42.
 Defaulting to unpruned grid for atomic number  42.
 Defaulting to unpruned grid for atomic number  42.
 Defaulting to unpruned grid for atomic number  42.
 Defaulting to unpruned grid for atomic number  42.
 Defaulting to unpruned grid for atomic number  42.
 Defaulting to unpruned grid for atomic number  42.
 Defaulting to unpruned grid for atomic number  42.
 Defaulting to unpruned grid for atomic number  42.
 Defaulting to unpruned grid for atomic number  42.
 Defaulting to unpruned grid for atomic number  42.
 Defaulting to unpruned grid for atomic number  42.
 Defaulting to unpruned grid for atomic number  42.
 Defaulting to unpruned grid for atomic number  42.
 Defaulting to unpruned grid for atomic number  42.
 Defaulting to unpruned grid for atomic number  42.
 Defaulting to unpruned grid for atomic number  42.
 Defaulting to unpruned grid for atomic number  42.
 Defaulting to unpruned grid for atomic number  42.
 Defaulting to unpruned grid for atomic number  42.
 Defaulting to unpruned grid for atomic number  42.
 Defaulting to unpruned grid for atomic number  42.
 Defaulting to unpruned grid for atomic number  42.
 Defaulting to unpruned grid for atomic number  42.
 Defaulting to unpruned grid for atomic number  42.
 Defaulting to unpruned grid for atomic number  42.
 Defaulting to unpruned grid for atomic number  42.
 Defaulting to unpruned grid for atomic number  42.
 Defaulting to unpruned grid for atomic number  42.
 Defaulting to unpruned grid for atomic number  42.
 Defaulting to unpruned grid for atomic number  42.
 Defaulting to unpruned grid for atomic number  42.
 Defaulting to unpruned grid for atomic number  42.
 Defaulting to unpruned grid for atomic number  42.
 Defaulting to unpruned grid for atomic number  42.
 Defaulting to unpruned grid for atomic number  42.
 Defaulting to unpruned grid for atomic number  42.
 Defaulting to unpruned grid for atomic number  42.
 Defaulting to unpruned grid for atomic number  42.
 Defaulting to unpruned grid for atomic number  42.
 Defaulting to unpruned grid for atomic number  42.
 Defaulting to unpruned grid for atomic number  42.
 Defaulting to unpruned grid for atomic number  42.
 Defaulting to unpruned grid for atomic number  42.
 Defaulting to unpruned grid for atomic number  42.
 Defaulting to unpruned grid for atomic number  42.
 Defaulting to unpruned grid for atomic number  42.
 Defaulting to unpruned grid for atomic number  42.
 End of G2Drv F.D. properties file   721 does not exist.
 End of G2Drv F.D. properties file   722 does not exist.
 End of G2Drv F.D. properties file   788 does not exist.
          IDoAtm=11111111111111111111111111111
          Differentiating once with respect to nuclear coordinates.
 Defaulting to unpruned grid for atomic number  42.
 Defaulting to unpruned grid for atomic number  42.
 Defaulting to unpruned grid for atomic number  42.
 Defaulting to unpruned grid for atomic number  42.
 Defaulting to unpruned grid for atomic number  42.
 Defaulting to unpruned grid for atomic number  42.
 CalDSu exits because no D1Ps are significant.
 Defaulting to unpruned grid for atomic number  42.
 Defaulting to unpruned grid for atomic number  42.
 Defaulting to unpruned grid for atomic number  42.
 Defaulting to unpruned grid for atomic number  42.
 Defaulting to unpruned grid for atomic number  42.
 Defaulting to unpruned grid for atomic number  42.
 Defaulting to unpruned grid for atomic number  42.
 Defaulting to unpruned grid for atomic number  42.
 Defaulting to unpruned grid for atomic number  42.
 Defaulting to unpruned grid for atomic number  42.
 Defaulting to unpruned grid for atomic number  42.
 Defaulting to unpruned grid for atomic number  42.
 Defaulting to unpruned grid for atomic number  42.
 Defaulting to unpruned grid for atomic number  42.
 Defaulting to unpruned grid for atomic number  42.
 Defaulting to unpruned grid for atomic number  42.
 Defaulting to unpruned grid for atomic number  42.
 Defaulting to unpruned grid for atomic number  42.
 Defaulting to unpruned grid for atomic number  42.
 Defaulting to unpruned grid for atomic number  42.
 Defaulting to unpruned grid for atomic number  42.
 Defaulting to unpruned grid for atomic number  42.
 Defaulting to unpruned grid for atomic number  42.
 Defaulting to unpruned grid for atomic number  42.
 Defaulting to unpruned grid for atomic number  42.
 Defaulting to unpruned grid for atomic number  42.
 Defaulting to unpruned grid for atomic number  42.
 Defaulting to unpruned grid for atomic number  42.
 Defaulting to unpruned grid for atomic number  42.
 Defaulting to unpruned grid for atomic number  42.
 Defaulting to unpruned grid for atomic number  42.
 Defaulting to unpruned grid for atomic number  42.
 Defaulting to unpruned grid for atomic number  42.
 Defaulting to unpruned grid for atomic number  42.
 Defaulting to unpruned grid for atomic number  42.
 Defaulting to unpruned grid for atomic number  42.
 Defaulting to unpruned grid for atomic number  42.
 Defaulting to unpruned grid for atomic number  42.
 Defaulting to unpruned grid for atomic number  42.
 Defaulting to unpruned grid for atomic number  42.
 Defaulting to unpruned grid for atomic number  42.
 Defaulting to unpruned grid for atomic number  42.
 Defaulting to unpruned grid for atomic number  42.
 Defaulting to unpruned grid for atomic number  42.
 Defaulting to unpruned grid for atomic number  42.
 Defaulting to unpruned grid for atomic number  42.
 Defaulting to unpruned grid for atomic number  42.
 Defaulting to unpruned grid for atomic number  42.
          There are    90 degrees of freedom in the 1st order CPHF.  IDoFFX=6 NUNeed=     0.
     84 vectors produced by pass  0 Test12= 4.83D-14 1.11D-09 XBig12= 2.55D-01 1.07D-01.
 AX will form    84 AO Fock derivatives at one time.
     84 vectors produced by pass  1 Test12= 4.83D-14 1.11D-09 XBig12= 3.25D-01 8.97D-02.
     84 vectors produced by pass  2 Test12= 4.83D-14 1.11D-09 XBig12= 2.60D-02 2.21D-02.
     84 vectors produced by pass  3 Test12= 4.83D-14 1.11D-09 XBig12= 1.48D-03 4.07D-03.
     84 vectors produced by pass  4 Test12= 4.83D-14 1.11D-09 XBig12= 2.04D-05 3.86D-04.
     84 vectors produced by pass  5 Test12= 4.83D-14 1.11D-09 XBig12= 1.53D-07 4.70D-05.
     84 vectors produced by pass  6 Test12= 4.83D-14 1.11D-09 XBig12= 8.17D-10 2.33D-06.
     68 vectors produced by pass  7 Test12= 4.83D-14 1.11D-09 XBig12= 3.31D-12 1.53D-07.
     13 vectors produced by pass  8 Test12= 4.83D-14 1.11D-09 XBig12= 9.85D-15 7.98D-09.
 InvSVY:  IOpt=1 It=  1 EMax= 4.44D-16
 Solved reduced A of dimension   669 with    90 vectors.
 End of Minotr F.D. properties file   721 does not exist.
 End of Minotr F.D. properties file   722 does not exist.
 End of Minotr F.D. properties file   788 does not exist.

 **********************************************************************

            Population analysis using the SCF Density.

 **********************************************************************

 Alpha  occ. eigenvalues --  -88.92503 -88.90600 -88.90155 -88.90113 -88.90063
 Alpha  occ. eigenvalues --  -88.89585 -88.89485 -88.88538 -88.88231 -88.87842
 Alpha  occ. eigenvalues --  -88.87700 -88.87341 -88.86871 -19.22292 -10.29709
 Alpha  occ. eigenvalues --   -8.00101  -7.98243  -7.97736  -7.97575  -7.97544
 Alpha  occ. eigenvalues --   -7.97222  -7.97126  -7.96027  -7.95692  -7.95603
 Alpha  occ. eigenvalues --   -7.95488  -7.95126  -7.94630  -5.96311  -5.96170
 Alpha  occ. eigenvalues --   -5.95694  -5.94492  -5.94118  -5.94001  -5.93830
 Alpha  occ. eigenvalues --   -5.93761  -5.93681  -5.93647  -5.93591  -5.93538
 Alpha  occ. eigenvalues --   -5.93509  -5.93504  -5.93488  -5.93383  -5.93313
 Alpha  occ. eigenvalues --   -5.93013  -5.92957  -5.92951  -5.92919  -5.92071
 Alpha  occ. eigenvalues --   -5.92019  -5.91953  -5.91898  -5.91661  -5.91582
 Alpha  occ. eigenvalues --   -5.91577  -5.91497  -5.91489  -5.91428  -5.91390
 Alpha  occ. eigenvalues --   -5.91387  -5.91154  -5.91048  -5.91022  -5.90908
 Alpha  occ. eigenvalues --   -5.90471  -5.90362  -2.53705  -2.52458  -2.52101
 Alpha  occ. eigenvalues --   -2.52021  -2.51544  -2.50213  -1.56961  -1.56543
 Alpha  occ. eigenvalues --   -1.56029  -1.55902  -1.55660  -1.54711  -1.54575
 Alpha  occ. eigenvalues --   -1.54384  -1.54129  -1.54034  -1.53975  -1.53712
 Alpha  occ. eigenvalues --   -1.53526  -1.53398  -1.53132  -1.52697  -1.52549
 Alpha  occ. eigenvalues --   -1.51747  -1.12245  -0.79133  -0.76237  -0.75244
 Alpha  occ. eigenvalues --   -0.74862  -0.73977  -0.73457  -0.72888  -0.72647
 Alpha  occ. eigenvalues --   -0.72144  -0.71293  -0.70603  -0.69958  -0.69571
 Alpha  occ. eigenvalues --   -0.56071  -0.53550  -0.46027  -0.45850  -0.45718
 Alpha  occ. eigenvalues --   -0.44838  -0.44425  -0.44353  -0.44072  -0.43921
 Alpha  occ. eigenvalues --   -0.41871  -0.41129  -0.40355  -0.39952  -0.39745
 Alpha  occ. eigenvalues --   -0.38807  -0.38600  -0.38000  -0.37819  -0.36796
 Alpha  occ. eigenvalues --   -0.36507  -0.35980  -0.35828  -0.35645  -0.35334
 Alpha  occ. eigenvalues --   -0.34690  -0.34167  -0.33804  -0.33672  -0.33075
 Alpha  occ. eigenvalues --   -0.32775  -0.32679  -0.32085  -0.31867  -0.31568
 Alpha  occ. eigenvalues --   -0.31278  -0.30910  -0.30591  -0.30462  -0.29869
 Alpha  occ. eigenvalues --   -0.29336  -0.28409  -0.28085  -0.27430  -0.26624
 Alpha  occ. eigenvalues --   -0.25859  -0.23761  -0.23057  -0.22707  -0.22161
 Alpha  occ. eigenvalues --   -0.21496  -0.20017
 Alpha virt. eigenvalues --   -0.14811  -0.13771  -0.12955  -0.12431  -0.11911
 Alpha virt. eigenvalues --   -0.11644  -0.11174  -0.10440  -0.10357  -0.09911
 Alpha virt. eigenvalues --   -0.09690  -0.08867  -0.08392  -0.07678  -0.06937
 Alpha virt. eigenvalues --   -0.06593  -0.05983  -0.05214  -0.04868  -0.04510
 Alpha virt. eigenvalues --   -0.03622  -0.02603  -0.01992  -0.01529  -0.01152
 Alpha virt. eigenvalues --   -0.00888  -0.00135   0.00021   0.00675   0.02078
 Alpha virt. eigenvalues --    0.02365   0.02995   0.03243   0.03699   0.04139
 Alpha virt. eigenvalues --    0.04476   0.04726   0.05466   0.05907   0.05936
 Alpha virt. eigenvalues --    0.06139   0.06588   0.06952   0.07230   0.07793
 Alpha virt. eigenvalues --    0.08556   0.08711   0.09778   0.10346   0.10814
 Alpha virt. eigenvalues --    0.11332   0.11524   0.12256   0.14025   0.14516
 Alpha virt. eigenvalues --    0.14752   0.16037   0.16433   0.17712   0.18527
 Alpha virt. eigenvalues --    0.18836   0.19549   0.19832   0.21111   0.21356
 Alpha virt. eigenvalues --    0.21993   0.22732   0.24236   0.25873   0.26796
 Alpha virt. eigenvalues --    0.27259   0.27906   0.28277   0.28536   0.29785
 Alpha virt. eigenvalues --    0.30449   0.30622   0.31189   0.31644   0.31809
 Alpha virt. eigenvalues --    0.32217   0.32969   0.33433   0.33720   0.33891
 Alpha virt. eigenvalues --    0.34386   0.34788   0.34909   0.35641   0.36023
 Alpha virt. eigenvalues --    0.36548   0.36813   0.37088   0.37585   0.37638
 Alpha virt. eigenvalues --    0.38142   0.38443   0.39009   0.39358   0.39591
 Alpha virt. eigenvalues --    0.39742   0.40112   0.40527   0.40901   0.41243
 Alpha virt. eigenvalues --    0.41416   0.42480   0.42759   0.42918   0.43195
 Alpha virt. eigenvalues --    0.44379   0.44596   0.44845   0.45113   0.45523
 Alpha virt. eigenvalues --    0.46157   0.46788   0.47490   0.47829   0.48576
 Alpha virt. eigenvalues --    0.50171   0.50847   0.51688   0.52014   0.53221
 Alpha virt. eigenvalues --    0.53951   0.54726   0.55338   0.55991   0.56198
 Alpha virt. eigenvalues --    0.56890   0.57317   0.58313   0.59232   0.60357
 Alpha virt. eigenvalues --    0.60462   0.61999   0.62236   0.62885   0.63168
 Alpha virt. eigenvalues --    0.64415   0.64886   0.65906   0.66603   0.67336
 Alpha virt. eigenvalues --    0.67633   0.68763   0.69508   0.70292   0.70586
 Alpha virt. eigenvalues --    0.71147   0.71743   0.72186   0.72390   0.72697
 Alpha virt. eigenvalues --    0.73358   0.73888   0.74364   0.74539   0.75087
 Alpha virt. eigenvalues --    0.75222   0.75516   0.76316   0.76496   0.76843
 Alpha virt. eigenvalues --    0.77469   0.78337   0.78676   0.79257   0.79371
 Alpha virt. eigenvalues --    0.80268   0.80815   0.82330   0.82866   0.83168
 Alpha virt. eigenvalues --    0.83750   0.84263   0.84638   0.85486   0.86422
 Alpha virt. eigenvalues --    0.87198   0.87904   0.88197   0.88410   0.89633
 Alpha virt. eigenvalues --    0.89987   0.90316   0.91381   0.91465   0.92123
 Alpha virt. eigenvalues --    0.92627   0.93243   0.94189   0.94372   0.94929
 Alpha virt. eigenvalues --    0.95646   0.95798   0.96689   0.97314   0.98717
 Alpha virt. eigenvalues --    0.99004   0.99389   0.99719   1.00828   1.01863
 Alpha virt. eigenvalues --    1.02225   1.02517   1.03137   1.03796   1.04252
 Alpha virt. eigenvalues --    1.04731   1.06053   1.06682   1.07266   1.08227
 Alpha virt. eigenvalues --    1.08528   1.09123   1.09462   1.10595   1.11058
 Alpha virt. eigenvalues --    1.12233   1.12894   1.14223   1.14684   1.14884
 Alpha virt. eigenvalues --    1.15525   1.16553   1.18187   1.19217   1.19996
 Alpha virt. eigenvalues --    1.20668   1.22247   1.25424   1.29202   1.30083
 Alpha virt. eigenvalues --    1.34375   1.51945   1.53057   1.60758   1.62062
 Alpha virt. eigenvalues --    1.72074   1.74630   1.92117   1.95275   1.96499
 Alpha virt. eigenvalues --    2.04074   2.06430   2.06817   2.07016   2.07772
 Alpha virt. eigenvalues --    2.08036   2.09053   2.09298   2.09555   2.09657
 Alpha virt. eigenvalues --    2.10291   2.11272   2.21887   2.40223   2.40970
 Alpha virt. eigenvalues --    2.58244   2.58308   2.65917   2.71030   2.71422
 Alpha virt. eigenvalues --    2.71509   2.71574   2.72342   2.72741   3.00542
 Alpha virt. eigenvalues --    3.53627   7.43993   8.21492  10.89172  12.89379
 Alpha virt. eigenvalues --   14.27386  15.71311
          Condensed to atoms (all electrons):
               1          2          3          4          5          6
     1  Mo  14.596228   0.101487   0.134672   0.180654   0.171802  -0.266378
     2  S    0.101487  15.647958  -0.016746  -0.001080  -0.005392  -0.029738
     3  S    0.134672  -0.016746  15.525363   0.010133  -0.005053   0.148325
     4  S    0.180654  -0.001080   0.010133  15.406356  -0.012381   0.140677
     5  S    0.171802  -0.005392  -0.005053  -0.012381  15.662512  -0.024780
     6  Mo  -0.266378  -0.029738   0.148325   0.140677  -0.024780  14.659659
     7  S   -0.022496  -0.000131   0.004888   0.007848  -0.000023   0.184525
     8  H    0.000083  -0.000000  -0.000009   0.000049   0.000000   0.004949
     9  S   -0.037173  -0.000984   0.000703   0.001015  -0.000071   0.160880
    10  Mo  -0.336963   0.131336  -0.070758   0.202999  -0.010451  -0.427629
    11  S   -0.046850  -0.000161  -0.006749  -0.025840   0.000891   0.130197
    12  H   -0.010476  -0.000001  -0.000076   0.002589  -0.001887  -0.021997
    13  S    0.133398  -0.061002  -0.002161   0.009569  -0.015276  -0.006314
    14  H   -0.003649   0.000744   0.000320   0.000076  -0.003598  -0.002387
    15  S    0.002741  -0.003650  -0.000130  -0.023659   0.000017  -0.032715
    16  S    0.007523  -0.016129  -0.000126   0.002232  -0.000021  -0.006986
    17  H   -0.001884   0.000067  -0.000000   0.001082  -0.000000   0.007362
    18  Mo  -0.335000  -0.003293   0.149986  -0.074783   0.287966  -0.322506
    19  Mo   0.024118   0.004094   0.004600  -0.033360  -0.000458  -0.087791
    20  C    0.003454   0.000008   0.000006  -0.000124   0.000000  -0.006827
    21  O    0.000921  -0.000000   0.000000   0.000000   0.000000  -0.001887
    22  Mo  -0.096462   0.128683   0.002021  -0.019184   0.006981   0.011496
    23  S   -0.029147   0.000013  -0.021302   0.000055   0.014480  -0.022956
    24  H    0.010540   0.000000  -0.003740  -0.000003  -0.000423   0.008675
    25  S   -0.017531   0.008148   0.000008  -0.000020   0.000009  -0.001261
    26  H    0.003097   0.000192  -0.000000  -0.000000  -0.000000   0.000001
    27  S    0.000620  -0.000000   0.000003   0.000024  -0.000000  -0.005424
    28  H   -0.000291  -0.000000   0.000003  -0.000010  -0.000000  -0.000492
    29  H   -0.000076  -0.000000  -0.000000   0.000006   0.000000   0.006839
               7          8          9         10         11         12
     1  Mo  -0.022496   0.000083  -0.037173  -0.336963  -0.046850  -0.010476
     2  S   -0.000131  -0.000000  -0.000984   0.131336  -0.000161  -0.000001
     3  S    0.004888  -0.000009   0.000703  -0.070758  -0.006749  -0.000076
     4  S    0.007848   0.000049   0.001015   0.202999  -0.025840   0.002589
     5  S   -0.000023   0.000000  -0.000071  -0.010451   0.000891  -0.001887
     6  Mo   0.184525   0.004949   0.160880  -0.427629   0.130197  -0.021997
     7  S   15.766286   0.144198  -0.067332  -0.019897  -0.020131   0.000368
     8  H    0.144198   0.800879   0.000645   0.003652   0.000218  -0.000008
     9  S   -0.067332   0.000645  15.574141   0.138038  -0.004946  -0.000015
    10  Mo  -0.019897   0.003652   0.138038  14.886667   0.000310   0.006726
    11  S   -0.020131   0.000218  -0.004946   0.000310  15.472492   0.263796
    12  H    0.000368  -0.000008  -0.000015   0.006726   0.263796   0.657581
    13  S    0.000002  -0.000000  -0.000190  -0.032957  -0.000010  -0.000001
    14  H   -0.000000  -0.000000   0.000001   0.008941   0.000000  -0.000000
    15  S    0.002592   0.000204  -0.016304   0.122757  -0.000219   0.000007
    16  S    0.000055   0.000000  -0.003454   0.169093   0.000011  -0.000001
[...]
 -0.00007629,-0.00003962,0.00061815,0.00018796,0.04165384,0.00043768,0.
 00034137,0.00246671,0.00044873,0.00001901,-0.00003004,-0.00515985,-0.0
 0614572,0.00569078,-0.00022341,-0.00009069,-0.00024483,-0.00368283,0.0
 0216570,-0.00361141,-0.00097531,-0.00032103,0.00079399,0.00022554,0.00
 069837,-0.00068452,0.00021488,-0.00030233,0.00054033,-0.00036003,-0.00
 022434,-0.00001375,0.00065137,-0.00007215,0.00022783,0.00352042,-0.000
 97936,0.00250719,-0.00024337,0.00009065,-0.00083946,-0.00003779,-0.000
 07903,-0.00010434,0.00005289,0.00009073,-0.00001356,0.00020346,-0.0002
 9150,0.00007733,-0.00002298,-0.00013034,0.00000997,-0.00017005,0.00004
 326,0.00001702,-0.01543358,-0.03486465,0.01788597,-0.00019091,-0.00095
 168,0.00057990,0.00013401,0.00120156,0.00024417,-0.00002743,-0.0007324
 5,-0.00014312,-0.00015715,0.00032857,0.00054276,-0.00821007,0.17877215
 ,0.00359600,-0.00066497,0.00205436,-0.00025536,0.00032707,0.00038329,0
 .00092836,0.00279424,0.00180101,-0.00021124,-0.00060519,0.00086095,0.0
 0551288,0.00038874,0.00184653,-0.00402226,0.00252157,-0.00115713,-0.00
 000257,0.00018204,-0.00015749,0.00005684,-0.00007904,0.00013322,-0.000
 37305,-0.00012623,-0.00018346,-0.00018923,-0.00034702,0.00055772,-0.00
 016602,0.00108450,0.00068267,0.00036779,0.00026029,0.00047234,0.000229
 38,0.00036114,-0.00014469,-0.00006159,-0.00004227,0.00000226,0.0000313
 2,-0.00019142,-0.00003849,0.00017696,0.00025470,-0.00029421,-0.0000276
 4,0.00000236,0.00001770,0.03596928,0.02740333,-0.07839610,-0.00013724,
 0.00041770,0.00034546,0.00008972,-0.00063963,-0.00018826,-0.00003534,0
 .00052591,0.00012143,0.00012425,-0.00037115,-0.00014162,-0.07261347,0.
 09602815,0.19299931,0.00222401,0.00084674,0.00004188,-0.00020898,0.000
 22587,0.00007442,-0.00078211,-0.00048262,-0.00019853,-0.00009926,0.000
 02419,-0.00014690,-0.00135716,0.00108286,0.00024770,0.00113336,-0.0001
 1984,-0.00047118,-0.00010202,-0.00031909,0.00011827,-0.00006544,0.0000
 6654,-0.00012665,0.00042660,0.00008056,0.00005795,-0.00077341,0.000043
 31,-0.00018845,-0.00075196,-0.00030386,-0.00114935,0.00004936,0.000108
 13,0.00011076,0.00000886,-0.00002223,0.00004473,-0.00001930,-0.0000051
 4,-0.00001058,-0.00005294,0.00010538,0.00002088,0.00003603,-0.00006789
 ,0.00011546,0.00000968,0.00000029,-0.00000803,-0.00293311,0.00012543,0
 .00780072,0.00004092,-0.00003155,-0.00000925,0.00001504,-0.00015288,0.
 00003464,-0.00001561,0.00007856,-0.00000244,-0.00004479,-0.00034023,0.
 00004058,-0.01076444,0.02922747,0.03085643,0.01398390,-0.00147301,-0.0
 0023146,-0.00105116,-0.00007034,-0.00007059,-0.00008325,-0.00062124,-0
 .00062857,0.00106078,0.00013914,0.00002336,-0.00032604,0.00007396,-0.0
 0041691,0.00041492,0.00119439,-0.00088021,0.00044551,-0.00002400,-0.00
 003042,0.00013559,-0.00005951,0.00009133,-0.00014338,0.00003671,0.0000
 6892,0.00006475,0.00003656,0.00006395,-0.00000909,-0.00022098,0.000444
 38,-0.00028981,-0.00001156,-0.00008162,0.00003227,-0.00006548,0.000014
 69,-0.00003379,-0.00000789,-0.00001616,0.00001793,-0.00001947,0.000050
 98,-0.00003089,-0.00002873,-0.00000043,0.00000057,0.00003669,-0.000011
 61,0.00000002,-0.00206110,0.00412190,0.00809971,-0.00000533,0.00016793
 ,-0.00021803,-0.00005726,-0.00017177,-0.00003698,0.00001894,0.00009541
 ,0.00002068,0.00002078,0.00004156,-0.00010025,0.03331465,-0.13856832,-
 0.12982901,-0.03017580,0.13598561,0.00106075,0.00032957,0.00071006,-0.
 00006849,0.00011058,0.00010627,-0.00069706,0.00064439,0.00072770,-0.00
 020524,-0.00013722,0.00002467,-0.00079632,0.00041771,-0.00062989,0.000
 33822,-0.00059925,-0.00000329,0.00005956,0.00000921,-0.00007218,-0.000
 01684,0.00000116,-0.00000630,0.00014822,-0.00000804,0.00001983,-0.0001
 5350,0.00012532,-0.00006223,0.00046132,-0.00027799,-0.00009314,-0.0000
 8235,-0.00000222,-0.00013383,-0.00003159,-0.00006708,-0.00001068,0.000
 01334,0.00000670,-0.00001131,0.00002601,-0.00002472,0.00002189,0.00001
 268,-0.00005354,0.00004702,-0.00002828,0.00000661,0.00000150,0.0042309
 1,-0.00064477,-0.01003615,-0.00007864,-0.00010562,0.00002406,0.0000251
 0,0.00007636,0.00006528,-0.00000782,-0.00005734,-0.00002303,-0.0001056
 5,-0.00005803,0.00009457,0.03321291,-0.12141477,-0.12150927,-0.0373213
 3,0.12173761,0.13080341,-0.00148605,0.00054294,0.00139681,-0.00386342,
 -0.00400679,-0.00118649,0.00016909,0.00021540,-0.00009084,0.00007577,0
 .00031185,-0.00004756,-0.00003603,-0.00031526,-0.00041489,-0.00056614,
 0.00015827,-0.00001857,0.00021061,-0.00004905,0.00016884,-0.00014357,0
 .00009100,-0.00023425,0.00074938,-0.00005504,0.00019344,-0.00059812,-0
 .00210343,-0.00007946,0.00014839,0.00009408,-0.00021617,-0.00004204,-0
 .00009237,-0.00000926,0.00419869,-0.00576245,0.00486789,-0.00063278,-0
 .00076062,-0.00126988,0.00023590,-0.00051216,-0.00013558,0.00139556,0.
 00295234,-0.00284384,0.00000423,0.00001063,0.00009664,0.00042214,-0.00
 000436,0.00009120,-0.00022493,0.00078199,0.00022457,-0.00016357,-0.000
 93792,-0.00003335,0.00005257,0.00070891,0.00014073,-0.04295074,-0.0274
 8457,-0.03177339,-0.00007640,-0.00006346,0.00011908,0.00000243,0.00001
 056,0.00000921,0.23800644,0.00242138,-0.00220986,-0.00044613,-0.002197
 12,0.00185529,0.00118575,-0.00029260,0.00020090,0.00023321,0.00058665,
 0.00016458,0.00021540,-0.00012389,0.00029363,0.00007628,-0.00028322,0.
 00044383,0.00027768,0.00015481,-0.00012548,0.00026666,-0.00010638,0.00
 006024,-0.00017942,-0.00079022,-0.00021595,0.00146177,-0.00669410,0.00
 412980,-0.00662525,-0.00020518,-0.00022553,-0.00001265,0.00007735,0.00
 006556,0.00002168,-0.00415324,-0.00269102,-0.00419305,0.00161009,0.001
 77640,0.00018007,0.00041331,0.00017617,0.00003022,-0.00334604,0.003244
 19,-0.00249285,-0.00003237,-0.00013917,0.00004659,0.00001092,0.0002083
 2,-0.00016634,0.00132496,-0.00063003,0.00043762,0.00030060,-0.00090639
 ,-0.00011319,-0.00005074,0.00068048,0.00013792,-0.02337424,-0.06432646
 ,-0.03600409,-0.00013600,-0.00017431,0.00016041,0.00002474,0.00003188,
 -0.00001507,0.00934944,0.07046140,0.00179277,-0.00308948,-0.00061246,0
 .00066714,0.00383232,0.00187273,-0.00060717,0.00016398,0.00018604,0.00
 053532,0.00003897,0.00021709,0.00041734,0.00084612,-0.00011077,-0.0001
 8939,-0.00026501,0.00058272,0.00016193,-0.00024197,0.00014228,-0.00017
 542,0.00009523,-0.00017288,-0.00027149,-0.00045388,0.00110072,-0.00492
 740,0.00342758,-0.00637032,-0.00022146,-0.00027353,0.00008183,0.000106
 83,0.00007120,-0.00004141,-0.00608068,0.00436119,0.00247011,0.00327841
 ,-0.00215641,0.00075519,0.00051193,0.00031382,0.00028507,-0.00407454,-
 0.00083804,-0.00603637,0.00005482,-0.00011565,0.00001704,-0.00038125,0
 .00088015,0.00006665,0.00106401,-0.00060439,0.00033751,0.00042241,-0.0
 0048263,-0.00007001,-0.00011739,0.00043801,0.00009733,-0.02231341,-0.0
 5111459,-0.04539417,-0.00014842,-0.00022168,0.00017782,0.00002173,0.00
 000526,-0.00003334,-0.05919182,0.06003898,0.10177491,-0.00056508,0.000
 72458,0.00013692,0.00071201,-0.00008577,-0.00016853,0.00009412,-0.0000
 4524,-0.00007136,-0.00014601,0.00003492,-0.00001082,0.00007842,-0.0002
 5269,-0.00000177,0.00010693,-0.00016226,-0.00000593,-0.00007620,0.0000
 6753,-0.00003598,0.00002825,0.00000121,-0.00001663,0.00013575,0.000223
 15,-0.00026522,0.00098868,-0.00063937,0.00137763,0.00004095,0.00004547
 ,-0.00001563,-0.00001666,-0.00002337,-0.00000060,0.00217500,-0.0006120
 5,-0.00069170,-0.00075492,0.00026717,-0.00009796,-0.00001454,-0.000163
 48,-0.00009638,0.00081098,-0.00072976,0.00091120,-0.00001634,0.0000311
 5,0.00001495,0.00000619,-0.00002091,-0.00011113,-0.00037070,0.00028699
 ,0.00003299,-0.00010292,-0.00028494,0.00000923,0.00002698,0.00019332,0
 .00002712,-0.01323691,-0.00585389,-0.00609255,-0.00002518,-0.00002407,
 0.00005131,-0.00000604,0.00000531,0.00000244,-0.19496540,0.02558001,0.
 08961603,0.20509168,-0.00126654,0.00071961,0.00059166,0.00047020,-0.00
 145578,-0.00056456,0.00011485,-0.00001562,-0.00009103,-0.00012199,0.00
 002329,-0.00014113,0.00007142,-0.00018246,-0.00014162,-0.00010564,-0.0
 0018305,0.00005116,0.00006456,-0.00001915,0.00000004,-0.00006153,0.000
 03318,-0.00006981,0.00064596,-0.00011062,-0.00017254,0.00090565,-0.000
 99716,0.00113861,0.00012403,0.00007118,-0.00005168,-0.00003374,-0.0000
 5160,-0.00002904,0.00126133,0.00083054,0.00292995,-0.00069536,-0.00127
 062,-0.00032628,-0.00001545,-0.00016858,0.00002962,0.00196132,0.000765
 33,-0.00134664,0.00003852,0.00004111,0.00001447,0.00005310,0.00006076,
 0.00002986,-0.00026331,0.00047199,-0.00004372,-0.00011304,-0.00021834,
 0.00000157,0.00002614,0.00017476,0.00004241,-0.01177199,0.00203804,-0.
 00057408,-0.00000789,-0.00000411,0.00002365,-0.00000542,-0.00000467,0.
 00000304,0.02717610,-0.01224786,-0.01468426,-0.01852550,0.01184705,-0.
 00093174,0.00046181,0.00039664,-0.00037851,-0.00189973,-0.00068017,0.0
 0027768,-0.00001497,-0.00004408,-0.00008483,0.00008719,0.00005848,-0.0
 0016800,-0.00040002,0.00003415,-0.00010587,0.00004850,-0.00017356,-0.0
 0002521,0.00009831,-0.00001267,0.00006348,-0.00002050,0.00003859,-0.00
 009921,0.00030101,-0.00013004,0.00119288,-0.00097650,0.00143200,0.0000
 7966,0.00009071,-0.00006285,-0.00003689,-0.00002526,0.00001912,0.00269
 872,-0.00371064,-0.00074945,-0.00120861,0.00085855,-0.00024272,-0.0001
 2919,-0.00011609,-0.00003331,0.00003270,-0.00047239,0.00190465,-0.0000
 4639,0.00002918,0.00000319,0.00025585,-0.00029817,-0.00013046,-0.00041
 042,0.00023379,-0.00019071,-0.00011498,-0.00021028,-0.00004585,0.00004
 191,0.00010465,0.00001951,-0.00684999,0.00690911,0.00279097,0.00000745
 ,0.00004130,0.00000286,-0.00000491,0.00000539,0.00001369,0.09040475,-0
 .01457824,-0.05145927,-0.08441477,0.01343534,0.04730464,-0.00107944,0.
 00069795,-0.00002444,-0.00042024,0.00054312,-0.00063542,0.00072601,-0.
 00014793,-0.00058270,-0.00025405,0.00038125,-0.00027432,-0.00009812,0.
 00019296,-0.00022628,0.00290719,-0.00209881,0.00188357,-0.01701414,0.0
 0096952,-0.01957269,0.00702200,-0.03421187,0.03785379,-0.00229554,-0.0
 0268621,-0.01006856,0.00618326,-0.00230068,0.00246310,0.00049631,-0.00
 049038,-0.00047711,-0.00010363,-0.00034508,0.00007510,0.00009779,0.000
 15980,-0.00009621,-0.00028341,-0.00005155,0.00011130,-0.00555491,0.006
 40524,-0.00302784,-0.00112544,-0.00036845,-0.00051845,0.00288325,-0.00
 056182,0.00071081,-0.00018830,-0.00107656,0.00034631,-0.03537984,0.025
 04832,-0.00794568,0.00184281,-0.01083014,-0.01092927,-0.00071055,0.004
 88693,0.00326804,-0.00045420,-0.00004874,0.00009501,-0.00007286,-0.000
 25752,0.00001758,0.00002576,0.00007852,0.00000593,0.00032519,-0.000020
 72,0.00010194,0.00005308,0.00017829,-0.00004974,0.11662648,-0.00100149
 ,0.00081570,-0.00022475,-0.00000001,-0.00023462,-0.00010809,0.00045124
 ,-0.00008040,-0.00031232,0.00022051,-0.00012258,0.00030380,-0.00004352
 ,-0.00009744,0.00001493,0.00135512,0.00091675,0.00132003,-0.02006881,-
 0.00713409,-0.00567203,0.00712962,-0.03818437,0.04573675,-0.00044999,-
 0.00044806,0.00331712,-0.00167989,0.00141456,-0.00076267,0.00034047,-0
 .00050535,-0.00059424,-0.00012497,-0.00033360,0.00004005,0.00020939,-0
 .00022816,-0.00006376,-0.00000210,0.00000113,-0.00002045,-0.00060992,0
 .00116084,-0.00002888,0.00000219,-0.00013173,-0.00015283,0.00040637,0.
 00005507,-0.00076949,-0.00037697,0.00000301,0.00003003,0.01874676,-0.0
 1889716,0.01347511,-0.00643981,-0.00693924,-0.00881889,0.00119207,0.00
 316872,0.00155682,-0.00027014,-0.00007259,-0.00017901,-0.00017436,-0.0
 0026342,0.00007425,0.00006395,0.00004266,-0.00000270,-0.00000565,0.000
 27878,0.00019202,0.00000899,-0.00007361,-0.00000342,-0.06582284,0.1275
 7230,-0.00072272,-0.00017230,0.00005193,-0.00010707,0.00033738,-0.0001
 9255,-0.00009443,-0.00045941,-0.00003036,-0.00040510,0.00000746,-0.000
 28108,0.00012159,0.00035578,-0.00003810,0.00327743,0.00115092,0.001001
 06,-0.00417169,0.01551385,-0.01561752,-0.00337019,0.00112065,-0.001903
 21,-0.00100760,-0.00105354,-0.00404615,-0.00211958,0.00079911,-0.00292
 551,-0.00002151,-0.00008978,-0.00016179,-0.00002832,-0.00016466,0.0000
 4525,-0.00018264,0.00000738,-0.00016389,0.00010271,0.00009222,0.000013
 38,-0.00052610,-0.00181805,0.00151308,0.00058144,0.00011271,0.00054228
 ,-0.00027421,0.00026284,-0.00007884,-0.00029562,-0.00050218,0.00046334
 ,-0.01661428,0.01807031,-0.02739098,-0.00143659,-0.00287925,-0.0055598
 5,0.00014328,0.00100415,0.00098351,0.00054439,-0.00000291,-0.00025190,
 0.00010206,-0.00008628,-0.00014394,-0.00003011,0.00004982,-0.00002207,
 -0.00013677,-0.00011724,-0.00004035,-0.00005393,-0.00001516,-0.0000139
 9,-0.06855332,0.05701045,0.19962357,0.00117911,-0.00050805,0.00015805,
 0.00012276,-0.00009570,0.00018462,-0.00041078,0.00022228,0.00060499,0.
 00017387,-0.00012528,0.00023821,-0.00012284,-0.00009226,0.00011685,-0.
 00389003,0.00032178,-0.00344003,0.01137743,-0.00576919,0.01433067,-0.0
 1746420,0.02112743,-0.02104454,0.00067032,0.00250549,0.00060870,-0.001
 32978,0.00025062,-0.00094668,-0.00016893,0.00066869,0.00037179,0.00007
 433,0.00023576,-0.00003063,-0.00006351,0.00000435,0.00007602,0.0001085
 3,0.00000489,-0.00003581,0.00041860,-0.00113479,0.00000695,0.00020135,
 0.00011283,0.00015928,-0.00045344,0.00000578,0.00036417,0.00029211,0.0
 0067387,-0.00015966,-0.01493403,-0.00974655,-0.01751952,-0.00055154,0.
 00758082,0.00465785,-0.00001506,-0.00384687,-0.00150759,0.00027620,0.0
 0001645,0.00006224,0.00003769,0.00021450,-0.00002376,0.00000103,-0.000
 07739,0.00000044,-0.00016428,-0.00012047,-0.00011902,-0.00001605,-0.00
 004991,0.00001534,0.00022874,0.01303563,0.00601614,0.02817318,0.002350
 78,-0.00096865,0.00026347,0.00023953,-0.00002935,0.00028584,-0.0007991
 2,0.00034138,0.00098394,0.00021486,-0.00024088,0.00011472,0.00002254,-
 0.00019229,0.00026076,-0.00744366,0.00081703,-0.00331092,0.04324550,-0
 .01212896,0.05282159,-0.02088647,-0.00191207,-0.04177533,0.00205753,0.
 00314266,0.00150396,-0.00250423,0.00085666,-0.00128758,-0.00102222,0.0
 0055267,0.00073371,0.00022729,0.00065738,-0.00005417,-0.00027753,0.000
 01859,0.00016801,0.00023753,0.00001246,-0.00005513,0.00101380,-0.00283
 526,0.00034432,0.00049304,0.00034073,0.00037935,-0.00106885,0.00027750
 ,0.00071617,0.00049670,0.00121848,-0.00097915,-0.02026026,-0.01043775,
 -0.01994709,0.00010399,0.01422711,0.00763913,-0.00026996,-0.00684203,-
 0.00228202,0.00051370,0.00000975,0.00011949,0.00017292,0.00053942,0.00
 006519,-0.00010245,-0.00014235,0.00000991,-0.00024222,-0.00022234,-0.0
 0023834,-0.00002263,-0.00007185,0.00004721,0.02091255,0.00639290,0.000
 70367,-0.02099898,0.00362347,-0.00084988,0.00032008,-0.00006669,-0.000
 14177,-0.00005616,-0.00005377,0.00029715,-0.00004551,-0.00046685,-0.00
 003762,-0.00000113,0.00027267,-0.00007722,0.00016093,-0.00018020,0.002
 40416,-0.00118158,-0.00102912,-0.02948021,0.00692568,-0.03177153,0.019
 50760,0.00650145,-0.00025394,-0.00117310,-0.00113740,-0.00000848,0.000
 94514,-0.00031154,0.00037201,0.00081546,-0.00013393,-0.00027290,-0.000
 09821,-0.00040650,0.00001919,0.00019121,-0.00002787,-0.00009294,-0.000
 10179,0.00002115,0.00000404,-0.00013342,0.00037998,0.00005014,-0.00020
 758,-0.00018670,-0.00009634,0.00012761,-0.00001611,-0.00014219,-0.0004
 4056,-0.00018576,0.00065610,0.00075789,0.00703489,0.00078568,-0.000965
 10,-0.00573678,-0.00297663,0.00036171,0.00266127,0.00103117,-0.0001655
 7,-0.00002380,-0.00011861,-0.00011950,-0.00033271,-0.00008339,0.000104
 37,0.00007036,-0.00001841,0.00004648,0.00010299,0.00012821,-0.00000689
 ,0.00000940,-0.00003822,-0.01130994,-0.02201432,-0.01062749,0.01546485
 ,0.00197582,0.04633674,0.00024314,-0.00033821,0.00016628,0.00003671,-0
 .00005901,0.00010645,-0.00025355,-0.00001908,-0.00016411,-0.00001037,-
 0.00010590,0.00007989,0.00004844,0.00009761,-0.00010583,0.00037373,0.0
 0095127,-0.00087734,0.00081014,0.00057225,0.00117050,0.00031584,0.0001
 8007,-0.00049220,0.00021551,0.00022125,0.00215812,-0.00155323,0.000780
 78,-0.00039339,0.00012933,-0.00002634,-0.00014598,-0.00001858,-0.00011
 207,-0.00001756,-0.00002798,-0.00002590,-0.00002232,0.00005846,0.00006
 075,-0.00003337,-0.00001602,-0.00196771,0.00054039,0.00033012,0.000037
 68,0.00019686,-0.00103896,0.00005897,-0.00034325,-0.00018930,0.0002525
 6,0.00025937,0.00408296,-0.00308446,-0.00695191,-0.00117655,0.00024538
 ,0.00133714,0.00041188,-0.00020486,-0.00045757,0.00013399,-0.00007741,
 -0.00025558,-0.00002152,-0.00009114,-0.00000841,0.00001957,0.00001287,
 -0.00001393,-0.00008292,0.00007225,0.00006622,-0.00003606,-0.00005416,
 -0.00001115,-0.07438321,0.05390818,0.08926272,-0.00375078,0.00359631,0
 .00428474,0.07534921,0.00046111,-0.00035831,0.00025569,0.00001674,-0.0
 0000961,0.00027309,-0.00030328,0.00009700,-0.00020856,-0.00000451,-0.0
 0008875,0.00011417,0.00002057,0.00008308,-0.00015741,0.00027668,0.0005
 5601,-0.00135528,0.00129045,-0.00061079,0.00290216,0.00046180,0.000865
 79,-0.00076584,-0.00018517,0.00024283,0.00076692,0.00045989,-0.0005366
 1,0.00032596,0.00012463,0.00002294,-0.00010047,0.00000689,-0.00008048,
 -0.00002614,-0.00001816,0.00003778,-0.00000182,-0.00000317,0.00005666,
 -0.00002251,0.00123867,-0.00046881,0.00042477,0.00008527,-0.00005799,0
 .00006667,-0.00036501,-0.00003108,0.00012962,-0.00007066,0.00024362,0.
 00030183,-0.00543529,0.00079965,-0.00399043,0.00059889,0.00010570,0.00
 045295,-0.00007952,0.00002851,-0.00015111,-0.00009610,-0.00006688,-0.0
 0016332,-0.00004084,-0.00009535,0.00002067,0.00002497,0.00001054,-0.00
 000981,-0.00000816,0.00004295,0.00007502,-0.00002387,-0.00000177,-0.00
 002585,0.06086484,-0.06807599,-0.08923793,-0.00441573,0.00299557,0.005
 63379,-0.05488193,0.06429377,-0.00021889,0.00032031,-0.00009194,-0.000
 00313,-0.00015009,-0.00001634,0.00016437,-0.00009549,0.00004884,0.0000
 8123,-0.00002093,-0.00000257,-0.00001778,-0.00009209,0.00013142,-0.000
 34102,-0.00010388,0.00120754,-0.00060907,0.00085865,-0.00167680,-0.000
 00241,-0.00041489,0.00075363,-0.00016299,-0.00044208,0.00113647,-0.000
 75751,0.00114044,-0.00074511,-0.00005231,-0.00000912,0.00003516,-0.000
 03014,0.00005001,-0.00000071,0.00003685,-0.00014223,-0.00001741,0.0000
 4557,0.00000435,-0.00001841,0.00022782,-0.00052245,0.00076497,0.000092
 22,-0.00002973,0.00014539,-0.00048923,0.00018604,-0.00033966,-0.000050
 36,-0.00009133,-0.00026110,0.00425733,-0.00271823,-0.00757726,-0.00222
 612,0.00006982,-0.00042380,0.00070244,0.00015294,0.00002957,0.00001535
 ,0.00002817,-0.00010411,0.00004537,0.00008707,-0.00002088,-0.00002279,
 -0.00000947,0.00000519,-0.00007755,0.00007031,0.00004809,-0.00002206,-
 0.00004923,-0.00001114,0.08735949,-0.08334352,-0.13474783,0.00139010,0
 .00079349,-0.00135824,-0.08933477,0.08447317,0.14310704\\-0.00000268,0
 .00000316,-0.00000068,-0.00000008,0.00000136,-0.00000059,0.00000135,0.
 00000280,-0.00000078,-0.00000042,-0.00000269,-0.00000009,0.00000047,0.
 00000069,0.00000169,-0.00000656,-0.00001001,0.00000689,-0.00001387,0.0
 0001389,-0.00003181,0.00000038,-0.00003190,0.00004003,-0.00000116,-0.0
 0001285,-0.00000538,0.00000109,0.00002614,0.00001694,-0.00000134,0.000
 00191,-0.00000185,0.00000057,-0.00000101,0.00000188,0.00000174,0.00000
 013,0.00000160,-0.00000150,0.00000022,0.00000025,-0.00000144,0.0000029
 2,-0.00000195,-0.00000127,-0.00000167,-0.00000277,0.00000117,-0.000001
 61,-0.00000074,0.00000489,0.00000088,0.00000198,0.00001930,-0.00002502
 ,-0.00001538,0.00000632,-0.00000570,-0.00000924,-0.00000099,0.00000214
 ,0.00000208,-0.00000191,-0.00000065,-0.00000017,-0.00000978,0.00000270
 ,-0.00000374,0.00000632,-0.00000089,0.00000387,0.00000073,0.00000091,-
 0.00000077,-0.00000022,0.00000081,-0.00000064,0.00001673,0.00005687,0.
 00001005,-0.00001359,-0.00001820,-0.00001028,-0.00000425,-0.00000536,-
 0.00000040\\\@
 The archive entry for this job was punched.


 Where a calculator on the ENIAC is equipped with 18,000
 vacuum tubes and weighs 30 tons, computers inthe future
 may  have only 1,000 vacuum tubes and weigh only 1 1/2 tons.
              ---Popular Mechanics, March 1949
 Job cpu time:       0 days  4 hours  7 minutes 34.3 seconds.
 Elapsed time:       0 days  0 hours 13 minutes  7.3 seconds.
 File lengths (MBytes):  RWF=    833 Int=      0 D2E=      0 Chk=     18 Scr=      2
 Normal termination of Gaussian 16 at Fri May  6 00:31:28 2022.
