 Entering Gaussian System, Link 0=g16
 Initial command:
 /home/chesagar/softwares/G16_AVX2//g16/l1.exe "/home/chesagar/scratch/Gau-45571.inp" -scrdir="/home/chesagar/scratch/"
 Entering Link 1 = /home/chesagar/softwares/G16_AVX2//g16/l1.exe PID=     45572.
  
 Copyright (c) 1988-2019, Gaussian, Inc.  All Rights Reserved.
  
 This is part of the Gaussian(R) 16 program.  It is based on
 the Gaussian(R) 09 system (copyright 2009, Gaussian, Inc.),
 the Gaussian(R) 03 system (copyright 2003, Gaussian, Inc.),
 the Gaussian(R) 98 system (copyright 1998, Gaussian, Inc.),
 the Gaussian(R) 94 system (copyright 1995, Gaussian, Inc.),
 the Gaussian 92(TM) system (copyright 1992, Gaussian, Inc.),
 the Gaussian 90(TM) system (copyright 1990, Gaussian, Inc.),
 the Gaussian 88(TM) system (copyright 1988, Gaussian, Inc.),
 the Gaussian 86(TM) system (copyright 1986, Carnegie Mellon
 University), and the Gaussian 82(TM) system (copyright 1983,
 Carnegie Mellon University). Gaussian is a federally registered
 trademark of Gaussian, Inc.
  
 This software contains proprietary and confidential information,
 including trade secrets, belonging to Gaussian, Inc.
  
 This software is provided under written license and may be
 used, copied, transmitted, or stored only in accord with that
 written license.
  
 The following legend is applicable only to US Government
 contracts under FAR:
  
                    RESTRICTED RIGHTS LEGEND
  
 Use, reproduction and disclosure by the US Government is
 subject to restrictions as set forth in subparagraphs (a)
 and (c) of the Commercial Computer Software - Restricted
 Rights clause in FAR 52.227-19.
  
 Gaussian, Inc.
 340 Quinnipiac St., Bldg. 40, Wallingford CT 06492
  
  
 ---------------------------------------------------------------
 Warning -- This program may not be used in any manner that
 competes with the business of Gaussian, Inc. or will provide
 assistance to any competitor of Gaussian, Inc.  The licensee
 of this program is prohibited from giving any competitor of
 Gaussian, Inc. access to this program.  By using this program,
 the user acknowledges that Gaussian, Inc. is engaged in the
 business of creating and licensing software in the field of
 computational chemistry and represents and warrants to the
 licensee that it is not a competitor of Gaussian, Inc. and that
 it will not use this program in any manner prohibited above.
 ---------------------------------------------------------------
  

 Cite this work as:
 Gaussian 16, Revision C.01,
 M. J. Frisch, G. W. Trucks, H. B. Schlegel, G. E. Scuseria, 
 M. A. Robb, J. R. Cheeseman, G. Scalmani, V. Barone, 
 G. A. Petersson, H. Nakatsuji, X. Li, M. Caricato, A. V. Marenich, 
 J. Bloino, B. G. Janesko, R. Gomperts, B. Mennucci, H. P. Hratchian, 
 J. V. Ortiz, A. F. Izmaylov, J. L. Sonnenberg, D. Williams-Young, 
 F. Ding, F. Lipparini, F. Egidi, J. Goings, B. Peng, A. Petrone, 
 T. Henderson, D. Ranasinghe, V. G. Zakrzewski, J. Gao, N. Rega, 
 G. Zheng, W. Liang, M. Hada, M. Ehara, K. Toyota, R. Fukuda, 
 J. Hasegawa, M. Ishida, T. Nakajima, Y. Honda, O. Kitao, H. Nakai, 
 T. Vreven, K. Throssell, J. A. Montgomery, Jr., J. E. Peralta, 
 F. Ogliaro, M. J. Bearpark, J. J. Heyd, E. N. Brothers, K. N. Kudin, 
 V. N. Staroverov, T. A. Keith, R. Kobayashi, J. Normand, 
 K. Raghavachari, A. P. Rendell, J. C. Burant, S. S. Iyengar, 
 J. Tomasi, M. Cossi, J. M. Millam, M. Klene, C. Adamo, R. Cammi, 
 J. W. Ochterski, R. L. Martin, K. Morokuma, O. Farkas, 
 J. B. Foresman, and D. J. Fox, Gaussian, Inc., Wallingford CT, 2019.
 
 ******************************************
 Gaussian 16:  ES64L-G16RevC.01  3-Jul-2019
                10-Mar-2022 
 ******************************************
 %nprocshared=48
 Will use up to   48 processors via shared memory.
 %mem=32GB
 -----------------------------------------------------------
 # opt=(calcfc,ts,noeigen) freq b3lyp/gen nosymm pseudo=read
 -----------------------------------------------------------
 1/5=1,10=4,11=1,18=20,26=3,38=1/1,3;
 2/9=110,12=2,15=1,17=6,18=5,40=1/2;
 3/5=7,11=2,16=1,17=8,25=1,30=1,71=2,74=-5,140=1/1,2,3;
 4//1;
 5/5=2,38=5/2;
 8/6=4,10=90,11=11/1;
 11/6=1,8=1,9=11,15=111,16=1,31=1/1,2,10;
 10/6=1,13=1,31=1/2;
 6/7=2,8=2,9=2,10=2,28=1/1;
 7/10=1,25=1,30=1/1,2,3,16;
 1/5=1,10=4,11=1,18=20,26=3/3(2);
 2/9=110,15=1/2;
 99//99;
 2/9=110,15=1/2;
 3/5=7,6=1,11=2,16=1,17=8,25=1,30=1,71=1,74=-5,82=7/1,2,3;
 4/5=5,16=3,69=1/1;
 5/5=2,38=5/2;
 7/30=1/1,2,3,16;
 1/5=1,11=1,18=20,26=3/3(-5);
 2/9=110,15=1/2;
 6/7=2,8=2,9=2,10=2,19=2,28=1/1;
 99/9=1/99;
 -------------------
 Title Card Required
 -------------------
 Symbolic Z-matrix:
 Charge =  0 Multiplicity = 1
 42                    1.62576  -0.01464  -0.85835 
 6                     3.24204  -0.92954  -1.70095 
 6                     1.22142  -1.63837   0.09688 
 6                     0.50037  -0.67624  -2.41917 
 8                    -0.12557  -1.07326  -3.30436 
 8                     4.14544  -1.4561   -2.18716 
 8                     0.97675  -2.59736   0.71255 
 16                   -0.22558   1.23132   0.17389 
 1                     0.80347   1.79463   1.35305 
 1                    -0.22132   2.4454   -0.43278 
 16                    2.96273   1.04804   0.94068 
 1                     1.57682   1.77031   1.52127 
 1                     2.98983   0.13334   1.93443 
 
 Add virtual bond connecting atoms H9         and S8         Dist= 3.14D+00.
 Add virtual bond connecting atoms H12        and S11        Dist= 3.15D+00.

 GradGradGradGradGradGradGradGradGradGradGradGradGradGradGradGradGradGrad
 Berny optimization.
 Initialization pass.
                           ----------------------------
                           !    Initial Parameters    !
                           ! (Angstroms and Degrees)  !
 --------------------------                            --------------------------
 ! Name  Definition              Value          Derivative Info.                !
 --------------------------------------------------------------------------------
 ! R1    R(1,2)                  2.0395         calculate D2E/DX2 analytically  !
 ! R2    R(1,3)                  1.9268         calculate D2E/DX2 analytically  !
 ! R3    R(1,4)                  2.0348         calculate D2E/DX2 analytically  !
 ! R4    R(1,8)                  2.4587         calculate D2E/DX2 analytically  !
 ! R5    R(1,11)                 2.4806         calculate D2E/DX2 analytically  !
 ! R6    R(2,6)                  1.1532         calculate D2E/DX2 analytically  !
 ! R7    R(3,7)                  1.1656         calculate D2E/DX2 analytically  !
 ! R8    R(4,5)                  1.1546         calculate D2E/DX2 analytically  !
 ! R9    R(8,9)                  1.6633         calculate D2E/DX2 analytically  !
 ! R10   R(8,10)                 1.3572         calculate D2E/DX2 analytically  !
 ! R11   R(9,12)                 0.7918         calculate D2E/DX2 analytically  !
 ! R12   R(11,12)                1.6672         calculate D2E/DX2 analytically  !
 ! R13   R(11,13)                1.3509         calculate D2E/DX2 analytically  !
 ! A1    A(2,1,3)               89.6041         calculate D2E/DX2 analytically  !
 ! A2    A(2,1,4)               88.5986         calculate D2E/DX2 analytically  !
 ! A3    A(2,1,11)              93.7082         calculate D2E/DX2 analytically  !
 ! A4    A(3,1,4)               89.4394         calculate D2E/DX2 analytically  !
 ! A5    A(3,1,8)               93.4915         calculate D2E/DX2 analytically  !
 ! A6    A(3,1,11)              96.5791         calculate D2E/DX2 analytically  !
 ! A7    A(4,1,8)               94.0342         calculate D2E/DX2 analytically  !
 ! A8    A(8,1,11)              83.3538         calculate D2E/DX2 analytically  !
 ! A9    A(1,8,9)               90.195          calculate D2E/DX2 analytically  !
 ! A10   A(1,8,10)             105.2646         calculate D2E/DX2 analytically  !
 ! A11   A(9,8,10)              90.6869         calculate D2E/DX2 analytically  !
 ! A12   A(8,9,12)             138.1118         calculate D2E/DX2 analytically  !
 ! A13   A(1,11,12)             89.4337         calculate D2E/DX2 analytically  !
 ! A14   A(1,11,13)            104.7289         calculate D2E/DX2 analytically  !
 ! A15   A(12,11,13)            93.086          calculate D2E/DX2 analytically  !
 ! A16   A(9,12,11)            138.6973         calculate D2E/DX2 analytically  !
 ! A17   L(2,1,8,3,-1)         183.0956         calculate D2E/DX2 analytically  !
 ! A18   L(4,1,11,2,-1)        182.3068         calculate D2E/DX2 analytically  !
 ! A19   L(1,2,6,5,-1)         179.1876         calculate D2E/DX2 analytically  !
 ! A20   L(1,3,7,13,-1)        178.1698         calculate D2E/DX2 analytically  !
 ! A21   L(1,4,5,6,-1)         179.0258         calculate D2E/DX2 analytically  !
 ! A22   L(2,1,8,3,-2)         177.39           calculate D2E/DX2 analytically  !
 ! A23   L(4,1,11,2,-2)        173.9838         calculate D2E/DX2 analytically  !
 ! A24   L(1,2,6,5,-2)         180.2835         calculate D2E/DX2 analytically  !
 ! A25   L(1,3,7,13,-2)        178.7563         calculate D2E/DX2 analytically  !
 ! A26   L(1,4,5,6,-2)         179.101          calculate D2E/DX2 analytically  !
 ! D1    D(3,1,8,9)             93.6513         calculate D2E/DX2 analytically  !
 ! D2    D(3,1,8,10)          -175.5834         calculate D2E/DX2 analytically  !
 ! D3    D(4,1,8,9)           -176.6651         calculate D2E/DX2 analytically  !
 ! D4    D(4,1,8,10)           -85.8999         calculate D2E/DX2 analytically  !
 ! D5    D(11,1,8,9)            -2.5749         calculate D2E/DX2 analytically  !
 ! D6    D(11,1,8,10)           88.1903         calculate D2E/DX2 analytically  !
 ! D7    D(2,1,11,12)          178.8681         calculate D2E/DX2 analytically  !
 ! D8    D(2,1,11,13)          -88.0899         calculate D2E/DX2 analytically  !
 ! D9    D(3,1,11,12)          -91.103          calculate D2E/DX2 analytically  !
 ! D10   D(3,1,11,13)            1.939          calculate D2E/DX2 analytically  !
 ! D11   D(8,1,11,12)            1.6643         calculate D2E/DX2 analytically  !
 ! D12   D(8,1,11,13)           94.7063         calculate D2E/DX2 analytically  !
 ! D13   D(1,8,9,12)             5.7454         calculate D2E/DX2 analytically  !
 ! D14   D(10,8,9,12)          -99.5228         calculate D2E/DX2 analytically  !
 ! D15   D(8,9,12,11)           -5.6377         calculate D2E/DX2 analytically  !
 ! D16   D(1,11,12,9)            1.0074         calculate D2E/DX2 analytically  !
 ! D17   D(13,11,12,9)        -103.7126         calculate D2E/DX2 analytically  !
 --------------------------------------------------------------------------------
 Trust Radius=3.00D-01 FncErr=1.00D-07 GrdErr=1.00D-06 EigMax=2.50D+02 EigMin=1.00D-04
 Number of steps in this run=     66 maximum allowed number of steps=    100.
 Search for a saddle point of order  1.
 GradGradGradGradGradGradGradGradGradGradGradGradGradGradGradGradGradGrad

                          Input orientation:                          
 ---------------------------------------------------------------------
 Center     Atomic      Atomic             Coordinates (Angstroms)
 Number     Number       Type             X           Y           Z
 ---------------------------------------------------------------------
      1         42           0        1.625762   -0.014637   -0.858350
      2          6           0        3.242042   -0.929535   -1.700950
      3          6           0        1.221424   -1.638373    0.096880
      4          6           0        0.500368   -0.676235   -2.419169
      5          8           0       -0.125568   -1.073261   -3.304360
      6          8           0        4.145441   -1.456096   -2.187160
      7          8           0        0.976748   -2.597364    0.712554
      8         16           0       -0.225579    1.231318    0.173888
      9          1           0        0.803469    1.794632    1.353050
     10          1           0       -0.221315    2.445404   -0.432783
     11         16           0        2.962728    1.048042    0.940676
     12          1           0        1.576820    1.770306    1.521271
     13          1           0        2.989829    0.133342    1.934426
 ---------------------------------------------------------------------
                    Distance matrix (angstroms):
                    1          2          3          4          5
     1  Mo   0.000000
     2  C    2.039454   0.000000
     3  C    1.926778   2.795987   0.000000
     4  C    2.034792   2.845483   2.788572   0.000000
     5  O    3.189170   3.732610   3.701645   1.154551   0.000000
     6  O    3.192542   1.153168   3.714827   3.734778   4.431277
     7  O    3.091834   3.706509   1.165583   3.704776   4.435492
     8  S    2.458736   4.495409   3.214790   3.299955   4.173643
     9  H    2.973199   4.763889   3.679426   4.519590   5.547917
    10  H    3.105576   4.999330   4.363402   3.769773   4.542700
    11  S    2.480576   3.311648   3.310734   4.508315   5.661963
    12  H    2.975065   4.521594   3.711373   4.761447   5.854119
    13  H    3.111619   3.795955   3.105287   5.080022   6.213410
                    6          7          8          9         10
     6  O    0.000000
     7  O    4.444260   0.000000
     8  S    5.648235   4.049019   0.000000
     9  H    5.853981   4.441834   1.663336   0.000000
    10  H    6.112945   5.308169   1.357230   2.159372   0.000000
    11  S    4.177664   4.157540   3.284335   2.321605   3.738601
    12  H    5.546165   4.482260   2.313999   0.791809   2.739959
    13  H    4.566095   3.605859   3.826734   2.806787   4.610939
                   11         12         13
    11  S    0.000000
    12  H    1.667182   0.000000
    13  H    1.350907   2.201577   0.000000
 Symmetry turned off by external request.
 Stoichiometry    C3H4MoO3S2
 Framework group  C1[X(C3H4MoO3S2)]
 Deg. of freedom    33
 Full point group                 C1      NOp   1
 Rotational constants (GHZ):           0.8840976           0.7790056           0.5954963
 General basis read from cards:  (5D, 7F)
 ======================================================================================================
                                       Pseudopotential Parameters
 ======================================================================================================
  Center     Atomic      Valence      Angular      Power
  Number     Number     Electrons     Momentum     of R      Exponent        Coefficient   SO-Coeffient
 ======================================================================================================
    1         42           14
                                      F and up 
                                                     0      537.9667807       -0.04694920    0.00000000
                                                     1      147.8982938      -20.20800840    0.00000000
                                                     2       45.7358898     -106.21163020    0.00000000
                                                     2       13.2911467      -41.81073680    0.00000000
                                                     2        4.7059961       -4.20541030    0.00000000
                                      S - F
                                                     0      110.2991760        2.80637170    0.00000000
                                                     1       23.2014645       44.51620120    0.00000000
                                                     2        5.3530131       82.77852270    0.00000000
                                      P - F
                                                     0       63.2901397        4.94208760    0.00000000
                                                     1       23.3315302       25.86049760    0.00000000
                                                     2       24.6759423      132.47087420    0.00000000
                                                     2        4.6493040       57.31497940    0.00000000
                                      D - F
                                                     0      104.4839977        3.00545910    0.00000000
                                                     1       66.2307245       26.36378510    0.00000000
                                                     2       39.1283176      183.38491990    0.00000000
                                                     2       13.1164437       98.44530680    0.00000000
                                                     2        3.6280263       22.49013770    0.00000000
    2          6
                                   No pseudopotential on this center.
    3          6
                                   No pseudopotential on this center.
    4          6
                                   No pseudopotential on this center.
    5          8
                                   No pseudopotential on this center.
    6          8
                                   No pseudopotential on this center.
    7          8
                                   No pseudopotential on this center.
    8         16
                                   No pseudopotential on this center.
    9          1
                                   No pseudopotential on this center.
   10          1
                                   No pseudopotential on this center.
   11         16
                                   No pseudopotential on this center.
   12          1
                                   No pseudopotential on this center.
   13          1
                                   No pseudopotential on this center.
 ======================================================================================================
   162 basis functions,   349 primitive gaussians,   172 cartesian basis functions
    46 alpha electrons       46 beta electrons
       nuclear repulsion energy       649.2893384037 Hartrees.
 NAtoms=   13 NActive=   13 NUniq=   13 SFac= 1.00D+00 NAtFMM=   60 NAOKFM=F Big=F
 Integral buffers will be    131072 words long.
 Raffenetti 2 integral format.
 Two-electron integral symmetry is turned off.
 One-electron integrals computed using PRISM.
   1 Symmetry operations used in ECPInt.
 ECPInt:  NShTT=    1485 NPrTT=    9652 LenC2=    1405 LenP2D=    6336.
 LDataN:  DoStor=T MaxTD1= 5 Len=  102
 NBasis=   162 RedAO= T EigKep=  3.86D-03  NBF=   162
 NBsUse=   162 1.00D-06 EigRej= -1.00D+00 NBFU=   162
 Defaulting to unpruned grid for atomic number  42.
 ExpMin= 2.47D-02 ExpMax= 2.19D+04 ExpMxC= 3.30D+03 IAcc=3 IRadAn=         5 AccDes= 0.00D+00
 Harris functional with IExCor=  402 and IRadAn=       5 diagonalized for initial guess.
 HarFok:  IExCor=  402 AccDes= 0.00D+00 IRadAn=         5 IDoV= 1 UseB2=F ITyADJ=14
 ICtDFT=  3500011 ScaDFX=  1.000000  1.000000  1.000000  1.000000
 Defaulting to unpruned grid for atomic number  42.
 FoFCou: FMM=F IPFlag=           0 FMFlag=      100000 FMFlg1=           0
         NFxFlg=           0 DoJE=T BraDBF=F KetDBF=T FulRan=T
         wScrn=  0.000000 ICntrl=       500 IOpCl=  0 I1Cent=   200000004 NGrid=           0
         NMat0=    1 NMatS0=      1 NMatT0=    0 NMatD0=    1 NMtDS0=    0 NMtDT0=    0
 Symmetry not used in FoFCou.
 Requested convergence on RMS density matrix=1.00D-08 within 128 cycles.
 Requested convergence on MAX density matrix=1.00D-06.
 Requested convergence on             energy=1.00D-06.
 No special actions if energy rises.
 Defaulting to unpruned grid for atomic number  42.
 Defaulting to unpruned grid for atomic number  42.
 Defaulting to unpruned grid for atomic number  42.
 Defaulting to unpruned grid for atomic number  42.
 Defaulting to unpruned grid for atomic number  42.
 Defaulting to unpruned grid for atomic number  42.
 Defaulting to unpruned grid for atomic number  42.
 Defaulting to unpruned grid for atomic number  42.
 Defaulting to unpruned grid for atomic number  42.
 Defaulting to unpruned grid for atomic number  42.
 Defaulting to unpruned grid for atomic number  42.
 Defaulting to unpruned grid for atomic number  42.
 Defaulting to unpruned grid for atomic number  42.
 Defaulting to unpruned grid for atomic number  42.
 Defaulting to unpruned grid for atomic number  42.
 Defaulting to unpruned grid for atomic number  42.
 Defaulting to unpruned grid for atomic number  42.
 Defaulting to unpruned grid for atomic number  42.
 Defaulting to unpruned grid for atomic number  42.
 Defaulting to unpruned grid for atomic number  42.
 Defaulting to unpruned grid for atomic number  42.
 Defaulting to unpruned grid for atomic number  42.
 Defaulting to unpruned grid for atomic number  42.
 Defaulting to unpruned grid for atomic number  42.
 Defaulting to unpruned grid for atomic number  42.
 Defaulting to unpruned grid for atomic number  42.
 Defaulting to unpruned grid for atomic number  42.
 Defaulting to unpruned grid for atomic number  42.
 Defaulting to unpruned grid for atomic number  42.
 Defaulting to unpruned grid for atomic number  42.
 Defaulting to unpruned grid for atomic number  42.
 Defaulting to unpruned grid for atomic number  42.
 Defaulting to unpruned grid for atomic number  42.
 Defaulting to unpruned grid for atomic number  42.
 Defaulting to unpruned grid for atomic number  42.
 Defaulting to unpruned grid for atomic number  42.
 Defaulting to unpruned grid for atomic number  42.
 Defaulting to unpruned grid for atomic number  42.
 Defaulting to unpruned grid for atomic number  42.
 Defaulting to unpruned grid for atomic number  42.
 Defaulting to unpruned grid for atomic number  42.
 Defaulting to unpruned grid for atomic number  42.
 Defaulting to unpruned grid for atomic number  42.
 Defaulting to unpruned grid for atomic number  42.
 Defaulting to unpruned grid for atomic number  42.
 Defaulting to unpruned grid for atomic number  42.
 Defaulting to unpruned grid for atomic number  42.
 Defaulting to unpruned grid for atomic number  42.
 EnCoef did   100 forward-backward iterations
 EnCoef did     3 forward-backward iterations
 EnCoef did     2 forward-backward iterations
 SCF Done:  E(RB3LYP) =  -1206.30864905     A.U. after   19 cycles
            NFock= 19  Conv=0.53D-08     -V/T= 2.0424
 DoSCS=F DFT=T ScalE2(SS,OS)=  1.000000  1.000000
 Range of M.O.s used for correlation:     1   162
 NBasis=   162 NAE=    46 NBE=    46 NFC=     0 NFV=     0
 NROrb=    162 NOA=    46 NOB=    46 NVA=   116 NVB=   116

 **** Warning!!: The smallest alpha delta epsilon is  0.97588387D-01

   1 Symmetry operations used in ECPInt.
 ECPInt:  NShTT=    1485 NPrTT=    9652 LenC2=    1405 LenP2D=    6336.
 LDataN:  DoStor=T MaxTD1= 6 Len=  172
 Symmetrizing basis deriv contribution to polar:
 IMax=3 JMax=2 DiffMx= 0.00D+00
 G2DrvN: will do    14 centers at a time, making    1 passes.
 Calling FoFCou, ICntrl=  3107 FMM=F I1Cent=   0 AccDes= 0.00D+00.
 Defaulting to unpruned grid for atomic number  42.
 Defaulting to unpruned grid for atomic number  42.
 Defaulting to unpruned grid for atomic number  42.
 Defaulting to unpruned grid for atomic number  42.
 Defaulting to unpruned grid for atomic number  42.
 Defaulting to unpruned grid for atomic number  42.
 Defaulting to unpruned grid for atomic number  42.
 Defaulting to unpruned grid for atomic number  42.
 Defaulting to unpruned grid for atomic number  42.
 Defaulting to unpruned grid for atomic number  42.
 Defaulting to unpruned grid for atomic number  42.
 Defaulting to unpruned grid for atomic number  42.
 Defaulting to unpruned grid for atomic number  42.
 Defaulting to unpruned grid for atomic number  42.
 Defaulting to unpruned grid for atomic number  42.
 Defaulting to unpruned grid for atomic number  42.
 Defaulting to unpruned grid for atomic number  42.
 Defaulting to unpruned grid for atomic number  42.
 Defaulting to unpruned grid for atomic number  42.
 Defaulting to unpruned grid for atomic number  42.
 Defaulting to unpruned grid for atomic number  42.
 Defaulting to unpruned grid for atomic number  42.
 Defaulting to unpruned grid for atomic number  42.
 Defaulting to unpruned grid for atomic number  42.
 Defaulting to unpruned grid for atomic number  42.
 Defaulting to unpruned grid for atomic number  42.
 Defaulting to unpruned grid for atomic number  42.
 Defaulting to unpruned grid for atomic number  42.
 Defaulting to unpruned grid for atomic number  42.
 Defaulting to unpruned grid for atomic number  42.
 Defaulting to unpruned grid for atomic number  42.
 Defaulting to unpruned grid for atomic number  42.
 Defaulting to unpruned grid for atomic number  42.
 Defaulting to unpruned grid for atomic number  42.
 Defaulting to unpruned grid for atomic number  42.
 Defaulting to unpruned grid for atomic number  42.
 Defaulting to unpruned grid for atomic number  42.
 Defaulting to unpruned grid for atomic number  42.
 Defaulting to unpruned grid for atomic number  42.
 Defaulting to unpruned grid for atomic number  42.
 Defaulting to unpruned grid for atomic number  42.
 Defaulting to unpruned grid for atomic number  42.
 Defaulting to unpruned grid for atomic number  42.
 Defaulting to unpruned grid for atomic number  42.
 Defaulting to unpruned grid for atomic number  42.
 Defaulting to unpruned grid for atomic number  42.
 Defaulting to unpruned grid for atomic number  42.
 Defaulting to unpruned grid for atomic number  42.
 End of G2Drv F.D. properties file   721 does not exist.
 End of G2Drv F.D. properties file   722 does not exist.
 End of G2Drv F.D. properties file   788 does not exist.
          IDoAtm=1111111111111
          Differentiating once with respect to nuclear coordinates.
 Defaulting to unpruned grid for atomic number  42.
 Keep R1 ints in memory in canonical form, NReq=135067039.
 Defaulting to unpruned grid for atomic number  42.
 Defaulting to unpruned grid for atomic number  42.
 Defaulting to unpruned grid for atomic number  42.
 Defaulting to unpruned grid for atomic number  42.
 Defaulting to unpruned grid for atomic number  42.
 Defaulting to unpruned grid for atomic number  42.
 Defaulting to unpruned grid for atomic number  42.
 Defaulting to unpruned grid for atomic number  42.
 Defaulting to unpruned grid for atomic number  42.
 Defaulting to unpruned grid for atomic number  42.
 Defaulting to unpruned grid for atomic number  42.
 Defaulting to unpruned grid for atomic number  42.
 Defaulting to unpruned grid for atomic number  42.
 Defaulting to unpruned grid for atomic number  42.
 Defaulting to unpruned grid for atomic number  42.
 Defaulting to unpruned grid for atomic number  42.
 Defaulting to unpruned grid for atomic number  42.
 Defaulting to unpruned grid for atomic number  42.
 Defaulting to unpruned grid for atomic number  42.
 Defaulting to unpruned grid for atomic number  42.
 Defaulting to unpruned grid for atomic number  42.
 Defaulting to unpruned grid for atomic number  42.
 Defaulting to unpruned grid for atomic number  42.
 Defaulting to unpruned grid for atomic number  42.
 Defaulting to unpruned grid for atomic number  42.
 Defaulting to unpruned grid for atomic number  42.
 Defaulting to unpruned grid for atomic number  42.
 Defaulting to unpruned grid for atomic number  42.
 Defaulting to unpruned grid for atomic number  42.
 Defaulting to unpruned grid for atomic number  42.
 Defaulting to unpruned grid for atomic number  42.
 Defaulting to unpruned grid for atomic number  42.
 Defaulting to unpruned grid for atomic number  42.
 Defaulting to unpruned grid for atomic number  42.
 Defaulting to unpruned grid for atomic number  42.
 Defaulting to unpruned grid for atomic number  42.
 Defaulting to unpruned grid for atomic number  42.
 Defaulting to unpruned grid for atomic number  42.
 Defaulting to unpruned grid for atomic number  42.
 Defaulting to unpruned grid for atomic number  42.
 Defaulting to unpruned grid for atomic number  42.
 Defaulting to unpruned grid for atomic number  42.
 Defaulting to unpruned grid for atomic number  42.
 Defaulting to unpruned grid for atomic number  42.
 Defaulting to unpruned grid for atomic number  42.
 Defaulting to unpruned grid for atomic number  42.
 Defaulting to unpruned grid for atomic number  42.
 Defaulting to unpruned grid for atomic number  42.
          There are    42 degrees of freedom in the 1st order CPHF.  IDoFFX=6 NUNeed=     0.
     36 vectors produced by pass  0 Test12= 1.27D-14 2.38D-09 XBig12= 1.95D-01 1.61D-01.
 AX will form    36 AO Fock derivatives at one time.
     36 vectors produced by pass  1 Test12= 1.27D-14 2.38D-09 XBig12= 1.43D-01 9.68D-02.
     36 vectors produced by pass  2 Test12= 1.27D-14 2.38D-09 XBig12= 5.27D-03 9.27D-03.
     36 vectors produced by pass  3 Test12= 1.27D-14 2.38D-09 XBig12= 8.49D-05 1.09D-03.
     36 vectors produced by pass  4 Test12= 1.27D-14 2.38D-09 XBig12= 6.89D-07 1.49D-04.
     36 vectors produced by pass  5 Test12= 1.27D-14 2.38D-09 XBig12= 2.60D-09 6.43D-06.
     25 vectors produced by pass  6 Test12= 1.27D-14 2.38D-09 XBig12= 4.41D-12 3.35D-07.
      6 vectors produced by pass  7 Test12= 1.27D-14 2.38D-09 XBig12= 7.00D-15 1.20D-08.
 InvSVY:  IOpt=1 It=  1 EMax= 1.33D-15
 Solved reduced A of dimension   247 with    36 vectors.
 End of Minotr F.D. properties file   721 does not exist.
 End of Minotr F.D. properties file   722 does not exist.
 End of Minotr F.D. properties file   788 does not exist.

 **********************************************************************

            Population analysis using the SCF Density.

 **********************************************************************

 Alpha  occ. eigenvalues --  -88.90338 -88.90066 -19.23093 -19.22892 -19.20106
 Alpha  occ. eigenvalues --  -10.30352 -10.30222 -10.28376  -7.97966  -7.97758
 Alpha  occ. eigenvalues --   -5.94191  -5.94069  -5.93973  -5.93858  -5.93504
 Alpha  occ. eigenvalues --   -5.93303  -2.46871  -1.49936  -1.49510  -1.49171
 Alpha  occ. eigenvalues --   -1.13336  -1.13079  -1.10179  -0.77683  -0.74872
 Alpha  occ. eigenvalues --   -0.56936  -0.55989  -0.54373  -0.53715  -0.46456
 Alpha  occ. eigenvalues --   -0.45742  -0.45645  -0.45388  -0.45102  -0.44772
 Alpha  occ. eigenvalues --   -0.43620  -0.42869  -0.42418  -0.42279  -0.41140
 Alpha  occ. eigenvalues --   -0.33654  -0.32539  -0.29615  -0.24354  -0.22815
 Alpha  occ. eigenvalues --   -0.22488
 Alpha virt. eigenvalues --   -0.12729  -0.08634  -0.02970  -0.02388  -0.00540
 Alpha virt. eigenvalues --    0.00358   0.00797   0.01374   0.02081   0.02888
 Alpha virt. eigenvalues --    0.03460   0.04312   0.05093   0.05800   0.09800
 Alpha virt. eigenvalues --    0.16558   0.17832   0.21969   0.24102   0.25575
 Alpha virt. eigenvalues --    0.27477   0.31119   0.33218   0.34176   0.35758
 Alpha virt. eigenvalues --    0.37648   0.37931   0.38728   0.40001   0.40661
 Alpha virt. eigenvalues --    0.45482   0.52711   0.53392   0.56042   0.58483
 Alpha virt. eigenvalues --    0.62110   0.63843   0.66388   0.67411   0.70138
 Alpha virt. eigenvalues --    0.70401   0.71521   0.71728   0.72425   0.72909
 Alpha virt. eigenvalues --    0.74471   0.75396   0.77388   0.79249   0.81670
 Alpha virt. eigenvalues --    0.84933   0.85812   0.87139   0.88257   0.90269
 Alpha virt. eigenvalues --    0.91049   0.95357   0.99155   0.99487   1.02053
 Alpha virt. eigenvalues --    1.02449   1.03208   1.04053   1.07780   1.09765
 Alpha virt. eigenvalues --    1.10899   1.12950   1.17065   1.23254   1.25171
 Alpha virt. eigenvalues --    1.49422   1.49625   1.50816   1.51185   1.51647
 Alpha virt. eigenvalues --    1.52101   1.53446   1.54306   1.54765   1.57523
 Alpha virt. eigenvalues --    1.58703   1.60717   1.69108   1.73955   1.76886
 Alpha virt. eigenvalues --    1.77330   1.87128   1.95060   1.95288   1.95312
 Alpha virt. eigenvalues --    1.97010   1.97771   2.01392   2.05139   2.06192
 Alpha virt. eigenvalues --    2.09190   2.10608   2.37043   2.39551   2.40073
 Alpha virt. eigenvalues --    2.41402   2.52036   2.58079   2.58734   2.58864
 Alpha virt. eigenvalues --    2.59123   2.59741   2.59867   2.68744   2.71976
 Alpha virt. eigenvalues --    2.78237   2.96869   3.01502   3.02332   3.89510
 Alpha virt. eigenvalues --   11.78526
          Condensed to atoms (all electrons):
               1          2          3          4          5          6
     1  Mo  13.174283   0.179060   0.269435   0.185616  -0.013609  -0.013313
     2  C    0.179060   5.011220  -0.013031  -0.012421  -0.000857   0.626348
     3  C    0.269435  -0.013031   4.902743  -0.009818  -0.001086  -0.001065
     4  C    0.185616  -0.012421  -0.009818   5.006126   0.624264  -0.000871
     5  O   -0.013609  -0.000857  -0.001086   0.624264   7.636736   0.000016
     6  O   -0.013313   0.626348  -0.001065  -0.000871   0.000016   7.631403
     7  O   -0.020644  -0.001107   0.596863  -0.001118   0.000029   0.000029
     8  S    0.255154  -0.007610   0.006258   0.008574  -0.001108   0.000028
     9  H   -0.061451   0.000116  -0.000664   0.000070  -0.000001  -0.000000
    10  H   -0.031847   0.000124   0.000104  -0.000646  -0.000001  -0.000000
    11  S    0.253608   0.010635  -0.003493  -0.007190   0.000026  -0.001051
    12  H   -0.057789   0.000085  -0.000019   0.000105  -0.000000  -0.000001
    13  H   -0.030234  -0.000486  -0.002735   0.000052  -0.000000  -0.000002
               7          8          9         10         11         12
     1  Mo  -0.020644   0.255154  -0.061451  -0.031847   0.253608  -0.057789
     2  C   -0.001107  -0.007610   0.000116   0.000124   0.010635   0.000085
     3  C    0.596863   0.006258  -0.000664   0.000104  -0.003493  -0.000019
     4  C   -0.001118   0.008574   0.000070  -0.000646  -0.007190   0.000105
     5  O    0.000029  -0.001108  -0.000001  -0.000001   0.000026  -0.000000
     6  O    0.000029   0.000028  -0.000000  -0.000000  -0.001051  -0.000001
     7  O    7.713055   0.000089   0.000002  -0.000003  -0.000516  -0.000007
     8  S    0.000089  15.560524   0.134992   0.266219  -0.066946  -0.135592
     9  H    0.000002   0.134992   0.784158  -0.015580  -0.138915   0.276526
    10  H   -0.000003   0.266219  -0.015580   0.678158   0.000938   0.003389
    11  S   -0.000516  -0.066946  -0.138915   0.000938  15.587241   0.127756
    12  H   -0.000007  -0.135592   0.276526   0.003389   0.127756   0.781706
    13  H    0.000751   0.001340   0.003165   0.000035   0.283214  -0.010372
              13
     1  Mo  -0.030234
     2  C   -0.000486
     3  C   -0.002735
     4  C    0.000052
     5  O   -0.000000
     6  O   -0.000002
     7  O    0.000751
     8  S    0.001340
     9  H    0.003165
    10  H    0.000035
    11  S    0.283214
    12  H   -0.010372
    13  H    0.629016
 Mulliken charges:
               1
     1  Mo  -0.088270
     2  C    0.207924
     3  C    0.256510
     4  C    0.207256
     5  O   -0.244411
     6  O   -0.241519
     7  O   -0.287424
     8  S   -0.021924
     9  H    0.017584
    10  H    0.099110
    11  S   -0.045307
    12  H    0.014214
    13  H    0.126258
 Sum of Mulliken charges =   0.00000
 Mulliken charges with hydrogens summed into heavy atoms:
               1
     1  Mo  -0.088270
     2  C    0.207924
     3  C    0.256510
     4  C    0.207256
     5  O   -0.244411
     6  O   -0.241519
     7  O   -0.287424
     8  S    0.094770
    11  S    0.095165
 APT charges:
               1
     1  Mo   0.048247
     2  C   -1.761390
     3  C   -0.491208
     4  C   -0.939791
     5  O    0.885168
     6  O    1.783805
     7  O    0.471473
     8  S   -0.422579
     9  H   -0.039788
    10  H    0.430225
    11  S   -0.251420
    12  H    0.007727
    13  H    0.279531
 Sum of APT charges =   0.00000
 APT charges with hydrogens summed into heavy atoms:
               1
     1  Mo   0.048247
     2  C   -1.761390
     3  C   -0.491208
     4  C   -0.939791
     5  O    0.885168
     6  O    1.783805
     7  O    0.471473
     8  S   -0.032143
    11  S    0.035838
 Electronic spatial extent (au):  <R**2>=           2985.3107
 Charge=             -0.0000 electrons
 Dipole moment (field-independent basis, Debye):
    X=              0.2218    Y=              3.6421    Z=              0.9900  Tot=              3.7807
 Quadrupole moment (field-independent basis, Debye-Ang):
   XX=            -88.1728   YY=            -83.6577   ZZ=            -83.8197
   XY=              2.3129   XZ=              3.1237   YZ=             -3.2943
 Traceless Quadrupole moment (field-independent basis, Debye-Ang):
   XX=             -2.9561   YY=              1.5590   ZZ=              1.3970
   XY=              2.3129   XZ=              3.1237   YZ=             -3.2943
 Octapole moment (field-independent basis, Debye-Ang**2):
  XXX=           -414.3539  YYY=             55.6348  ZZZ=            163.0939  XYY=           -136.2542
  XXY=             12.1852  XXZ=             63.4153  XZZ=           -121.2930  YZZ=             20.4546
  YYZ=             39.2601  XYZ=             -7.7056
 Hexadecapole moment (field-independent basis, Debye-Ang**3):
 XXXX=          -2312.6542 YYYY=           -807.6271 ZZZZ=          -1131.5392 XXXY=            111.2509
 XXXZ=            271.4174 YYYX=            109.2596 YYYZ=           -181.4516 ZZZX=            208.4215
 ZZZY=           -214.5101 XXYY=           -524.2097 XXZZ=           -548.8727 YYZZ=           -326.2783
 XXYZ=           -108.8733 YYXZ=             59.0422 ZZXY=             42.9324
 N-N= 6.492893384037D+02 E-N=-4.132319030472D+03  KE= 1.157264100073D+03
  Exact polarizability:       0.000       0.000       0.000       0.000       0.000       0.000
 Approx polarizability:     303.103     -26.841     261.094      -1.313      80.160     344.180
   1 Symmetry operations used in ECPInt.
 ECPInt:  NShTT=    1485 NPrTT=    9652 LenC2=    1405 LenP2D=    6336.
 LDataN:  DoStor=T MaxTD1= 7 Len=  274
 Calling FoFJK, ICntrl=    100127 FMM=F ISym2X=0 I1Cent= 0 IOpClX= 0 NMat=1 NMatS=1 NMatT=0.
 Defaulting to unpruned grid for atomic number  42.
 Defaulting to unpruned grid for atomic number  42.
 Defaulting to unpruned grid for atomic number  42.
 Defaulting to unpruned grid for atomic number  42.
 Defaulting to unpruned grid for atomic number  42.
 Defaulting to unpruned grid for atomic number  42.
 Defaulting to unpruned grid for atomic number  42.
 Defaulting to unpruned grid for atomic number  42.
 Defaulting to unpruned grid for atomic number  42.
 Defaulting to unpruned grid for atomic number  42.
 Defaulting to unpruned grid for atomic number  42.
 Defaulting to unpruned grid for atomic number  42.
 Defaulting to unpruned grid for atomic number  42.
 Defaulting to unpruned grid for atomic number  42.
 Defaulting to unpruned grid for atomic number  42.
 Defaulting to unpruned grid for atomic number  42.
 Defaulting to unpruned grid for atomic number  42.
 Defaulting to unpruned grid for atomic number  42.
 Defaulting to unpruned grid for atomic number  42.
 Defaulting to unpruned grid for atomic number  42.
 Defaulting to unpruned grid for atomic number  42.
 Defaulting to unpruned grid for atomic number  42.
 Defaulting to unpruned grid for atomic number  42.
 Defaulting to unpruned grid for atomic number  42.
 Defaulting to unpruned grid for atomic number  42.
 Defaulting to unpruned grid for atomic number  42.
 Defaulting to unpruned grid for atomic number  42.
 Defaulting to unpruned grid for atomic number  42.
 Defaulting to unpruned grid for atomic number  42.
 Defaulting to unpruned grid for atomic number  42.
 Defaulting to unpruned grid for atomic number  42.
 Defaulting to unpruned grid for atomic number  42.
 Defaulting to unpruned grid for atomic number  42.
 Defaulting to unpruned grid for atomic number  42.
 Defaulting to unpruned grid for atomic number  42.
 Defaulting to unpruned grid for atomic number  42.
 Defaulting to unpruned grid for atomic number  42.
 Defaulting to unpruned grid for atomic number  42.
 Defaulting to unpruned grid for atomic number  42.
 Defaulting to unpruned grid for atomic number  42.
 Defaulting to unpruned grid for atomic number  42.
 Defaulting to unpruned grid for atomic number  42.
 Defaulting to unpruned grid for atomic number  42.
 Defaulting to unpruned grid for atomic number  42.
 Defaulting to unpruned grid for atomic number  42.
 Defaulting to unpruned grid for atomic number  42.
 Defaulting to unpruned grid for atomic number  42.
 Defaulting to unpruned grid for atomic number  42.
 -------------------------------------------------------------------
 Center     Atomic                   Forces (Hartrees/Bohr)
 Number     Number              X              Y              Z
 -------------------------------------------------------------------
      1       42          -0.001013292    0.002417355    0.004240476
      2        6          -0.000561139   -0.000017912   -0.000360429
      3        6           0.000140976   -0.001247851    0.000561183
      4        6          -0.000232626   -0.000484844   -0.002084024
      5        8          -0.000390005   -0.000022274    0.000156466
      6        8           0.001678733   -0.000719283   -0.000669048
      7        8           0.000181145    0.000778957   -0.000367029
      8       16          -0.009658828   -0.005004363   -0.010671301
      9        1          -0.053536593    0.006932435   -0.004272469
     10        1           0.000335365    0.000109404    0.000260562
     11       16           0.012285191   -0.006394147   -0.005500461
     12        1           0.050865193    0.003374656    0.018456726
     13        1          -0.000094119    0.000277866    0.000249346
 -------------------------------------------------------------------
 Cartesian Forces:  Max     0.053536593 RMS     0.012773131
 FormGI is forming the generalized inverse of G from B-inverse, IUseBI=4.

 GradGradGradGradGradGradGradGradGradGradGradGradGradGradGradGradGradGrad
 Berny optimization.
 Internal  Forces:  Max     0.059102257 RMS     0.008560665
 Search for a saddle point.
 Step number   1 out of a maximum of   66
 All quantities printed in internal units (Hartrees-Bohrs-Radians)
 Swapping is turned off.
 Second derivative matrix not updated -- analytic derivatives used.
 ITU=  0
     Eigenvalues ---   -0.01244   0.00306   0.00528   0.00748   0.01878
     Eigenvalues ---    0.02350   0.02803   0.03322   0.03512   0.04599
     Eigenvalues ---    0.04844   0.05046   0.05908   0.06058   0.06971
     Eigenvalues ---    0.07873   0.08925   0.09227   0.10233   0.10775
     Eigenvalues ---    0.12611   0.13854   0.15025   0.15454   0.15992
     Eigenvalues ---    0.17803   0.21873   0.25195   0.26189   0.28457
     Eigenvalues ---    1.05385   1.11859   1.14626
 Eigenvectors required to have negative eigenvalues:
                          R12       R9        R11       R5        R4
   1                   -0.62267  -0.61521   0.25419   0.18963   0.17304
                          A8        R3        R1        A12       A16
   1                   -0.14232  -0.10365  -0.10268   0.10050   0.09928
 RFO step:  Lambda0=2.314717306D-04 Lambda=-1.48093483D-02.
 Linear search not attempted -- option 19 set.
 Iteration  1 RMS(Cart)=  0.02184223 RMS(Int)=  0.00674246
 Iteration  2 RMS(Cart)=  0.00615023 RMS(Int)=  0.00005218
 Iteration  3 RMS(Cart)=  0.00001281 RMS(Int)=  0.00004709
 Iteration  4 RMS(Cart)=  0.00000000 RMS(Int)=  0.00004709
 Variable       Old X    -DE/DX   Delta X   Delta X   Delta X     New X
                                 (Linear)    (Quad)   (Total)
    R1        3.85401   0.00164   0.00000  -0.00918  -0.00918   3.84483
    R2        3.64108   0.00042   0.00000   0.00168   0.00168   3.64277
    R3        3.84520   0.00199   0.00000  -0.00586  -0.00586   3.83934
    R4        4.64634   0.00307   0.00000   0.02934   0.02935   4.67569
    R5        4.68761   0.00295   0.00000   0.02694   0.02696   4.71457
    R6        2.17917   0.00193   0.00000   0.00369   0.00369   2.18287
    R7        2.20263  -0.00087   0.00000   0.00020   0.00020   2.20284
    R8        2.18179   0.00010   0.00000   0.00190   0.00190   2.18368
    R9        3.14325   0.01023   0.00000  -0.05162  -0.05164   3.09161
   R10        2.56479  -0.00002   0.00000  -0.00030  -0.00030   2.56449
   R11        1.49630   0.05910   0.00000   0.25194   0.25193   1.74824
   R12        3.15052   0.01001   0.00000  -0.05715  -0.05715   3.09337
   R13        2.55284  -0.00001   0.00000   0.00012   0.00012   2.55297
    A1        1.56389  -0.00010   0.00000  -0.00095  -0.00095   1.56294
    A2        1.54634  -0.00047   0.00000  -0.00176  -0.00177   1.54457
    A3        1.63552  -0.00550   0.00000  -0.00243  -0.00244   1.63308
    A4        1.56101   0.00054   0.00000   0.00142   0.00142   1.56243
    A5        1.63173  -0.00036   0.00000   0.00700   0.00707   1.63881
    A6        1.68562  -0.00014   0.00000  -0.00146  -0.00153   1.68409
    A7        1.64121  -0.00542   0.00000  -0.00207  -0.00209   1.63911
    A8        1.45480   0.01137   0.00000   0.00560   0.00564   1.46044
    A9        1.57420   0.00156   0.00000   0.02349   0.02346   1.59766
   A10        1.83721  -0.00023   0.00000   0.00569   0.00565   1.84287
   A11        1.58278  -0.00035   0.00000  -0.00052  -0.00064   1.58214
   A12        2.41050  -0.00732   0.00000  -0.02686  -0.02687   2.38363
   A13        1.56091   0.00170   0.00000   0.02515   0.02515   1.58606
   A14        1.82786   0.00030   0.00000   0.00748   0.00753   1.83539
   A15        1.62466  -0.00030   0.00000  -0.00602  -0.00622   1.61844
   A16        2.42072  -0.00734   0.00000  -0.02734  -0.02733   2.39339
   A17        3.19562  -0.00046   0.00000   0.00605   0.00612   3.20175
   A18        3.18185  -0.00597   0.00000  -0.00419  -0.00421   3.17765
   A19        3.12741   0.00055   0.00000   0.00184   0.00184   3.12926
   A20        3.10965  -0.00020   0.00000  -0.00118  -0.00118   3.10847
   A21        3.12459   0.00081   0.00000   0.00418   0.00418   3.12877
   A22        3.09604   0.00586   0.00000   0.00379   0.00381   3.09985
   A23        3.03659  -0.00040   0.00000   0.00008   0.00013   3.03672
   A24        3.14654  -0.00017   0.00000  -0.00465  -0.00465   3.14189
   A25        3.11989  -0.00013   0.00000   0.00162   0.00162   3.12150
   A26        3.12590  -0.00034   0.00000  -0.00123  -0.00123   3.12467
    D1        1.63452  -0.00022   0.00000  -0.00536  -0.00533   1.62920
    D2       -3.06451  -0.00016   0.00000   0.00056   0.00059  -3.06391
    D3       -3.08339  -0.00003   0.00000  -0.00357  -0.00354  -3.08693
    D4       -1.49924   0.00003   0.00000   0.00235   0.00238  -1.49686
    D5       -0.04494  -0.00068   0.00000  -0.00338  -0.00332  -0.04826
    D6        1.53921  -0.00061   0.00000   0.00254   0.00260   1.54181
    D7        3.12184  -0.00008   0.00000  -0.00500  -0.00497   3.11687
    D8       -1.53746   0.00006   0.00000  -0.00459  -0.00455  -1.54201
    D9       -1.59005  -0.00082   0.00000  -0.00633  -0.00630  -1.59635
   D10        0.03384  -0.00069   0.00000  -0.00592  -0.00589   0.02796
   D11        0.02905   0.00008   0.00000   0.00153   0.00164   0.03068
   D12        1.65294   0.00021   0.00000   0.00194   0.00205   1.65499
   D13        0.10028  -0.00023   0.00000  -0.00265  -0.00266   0.09762
   D14       -1.73700  -0.00001   0.00000  -0.00865  -0.00868  -1.74568
   D15       -0.09840   0.00025   0.00000   0.00696   0.00693  -0.09146
   D16        0.01758   0.00002   0.00000  -0.00553  -0.00551   0.01207
   D17       -1.81013  -0.00036   0.00000  -0.01434  -0.01429  -1.82441
         Item               Value     Threshold  Converged?
 Maximum Force            0.059102     0.000450     NO 
 RMS     Force            0.008561     0.000300     NO 
 Maximum Displacement     0.122722     0.001800     NO 
 RMS     Displacement     0.026619     0.001200     NO 
 Predicted change in Energy=-7.704522D-03
 GradGradGradGradGradGradGradGradGradGradGradGradGradGradGradGradGradGrad

                          Input orientation:                          
 ---------------------------------------------------------------------
 Center     Atomic      Atomic             Coordinates (Angstroms)
 Number     Number       Type             X           Y           Z
 ---------------------------------------------------------------------
      1         42           0        1.625055   -0.021051   -0.860954
      2          6           0        3.236869   -0.933272   -1.703267
      3          6           0        1.222772   -1.646861    0.093413
      4          6           0        0.503714   -0.679959   -2.421788
      5          8           0       -0.125590   -1.075251   -3.306679
      6          8           0        4.143651   -1.455907   -2.192051
      7          8           0        0.981657   -2.607083    0.708778
      8         16           0       -0.239004    1.241780    0.164979
      9          1           0        0.738527    1.810346    1.347221
     10          1           0       -0.235519    2.455162   -0.442747
     11         16           0        2.975516    1.041092    0.948008
     12          1           0        1.641085    1.775710    1.547343
     13          1           0        3.003437    0.132835    1.947717
 ---------------------------------------------------------------------
                    Distance matrix (angstroms):
                    1          2          3          4          5
     1  Mo   0.000000
     2  C    2.034597   0.000000
     3  C    1.927669   2.791748   0.000000
     4  C    2.031691   2.837354   2.788939   0.000000
     5  O    3.187109   3.727897   3.702086   1.155556   0.000000
     6  O    3.189664   1.155123   3.713669   3.728809   4.428737
     7  O    3.092827   3.702105   1.165691   3.707112   4.438062
     8  S    2.474267   4.505873   3.238234   3.306974   4.175392
     9  H    3.002662   4.803606   3.709287   4.523515   5.543658
    10  H    3.125422   5.012771   4.386419   3.780483   4.547307
    11  S    2.494842   3.315973   3.320774   4.519663   5.674339
    12  H    3.004746   4.522342   3.742044   4.803949   5.900054
    13  H    3.132451   3.810611   3.126744   5.099198   6.233695
                    6          7          8          9         10
     6  O    0.000000
     7  O    4.442771   0.000000
     8  S    5.660457   4.074245   0.000000
     9  H    5.898281   4.469944   1.636010   0.000000
    10  H    6.126471   5.332340   1.357070   2.137414   0.000000
    11  S    4.178458   4.164359   3.314597   2.399008   3.774194
    12  H    5.539788   4.510755   2.393898   0.925126   2.818467
    13  H    4.578413   3.623494   3.862815   2.881745   4.647403
                   11         12         13
    11  S    0.000000
    12  H    1.636940   0.000000
    13  H    1.350973   2.171484   0.000000
 Symmetry turned off by external request.
 Stoichiometry    C3H4MoO3S2
 Framework group  C1[X(C3H4MoO3S2)]
 Deg. of freedom    33
 Full point group                 C1      NOp   1
 Rotational constants (GHZ):           0.8787820           0.7768908           0.5924522
 Basis read from rwf:  (5D, 7F)
 Pseudo-potential data read from rwf file.
   162 basis functions,   349 primitive gaussians,   172 cartesian basis functions
    46 alpha electrons       46 beta electrons
       nuclear repulsion energy       647.6025863920 Hartrees.
 NAtoms=   13 NActive=   13 NUniq=   13 SFac= 1.00D+00 NAtFMM=   60 NAOKFM=F Big=F
 Integral buffers will be    131072 words long.
 Raffenetti 2 integral format.
 Two-electron integral symmetry is turned off.
 One-electron integrals computed using PRISM.
   1 Symmetry operations used in ECPInt.
 ECPInt:  NShTT=    1485 NPrTT=    9652 LenC2=    1404 LenP2D=    6317.
 LDataN:  DoStor=T MaxTD1= 5 Len=  102
 NBasis=   162 RedAO= T EigKep=  4.09D-03  NBF=   162
 NBsUse=   162 1.00D-06 EigRej= -1.00D+00 NBFU=   162
 Defaulting to unpruned grid for atomic number  42.
 Initial guess from the checkpoint file:  "/home/chesagar/scratch/Gau-45572.chk"
 B after Tr=    -0.000664   -0.003798   -0.005307
         Rot=    1.000000   -0.000165    0.000251    0.000414 Ang=  -0.06 deg.
 ExpMin= 2.47D-02 ExpMax= 2.19D+04 ExpMxC= 3.30D+03 IAcc=3 IRadAn=         5 AccDes= 0.00D+00
 Harris functional with IExCor=  402 and IRadAn=       5 diagonalized for initial guess.
 HarFok:  IExCor=  402 AccDes= 0.00D+00 IRadAn=         5 IDoV= 1 UseB2=F ITyADJ=14
 ICtDFT=  3500011 ScaDFX=  1.000000  1.000000  1.000000  1.000000
 Defaulting to unpruned grid for atomic number  42.
 FoFCou: FMM=F IPFlag=           0 FMFlag=      100000 FMFlg1=           0
         NFxFlg=           0 DoJE=T BraDBF=F KetDBF=T FulRan=T
         wScrn=  0.000000 ICntrl=       500 IOpCl=  0 I1Cent=   200000004 NGrid=           0
         NMat0=    1 NMatS0=      1 NMatT0=    0 NMatD0=    1 NMtDS0=    0 NMtDT0=    0
 Symmetry not used in FoFCou.
 Requested convergence on RMS density matrix=1.00D-08 within 128 cycles.
 Requested convergence on MAX density matrix=1.00D-06.
 Requested convergence on             energy=1.00D-06.
 No special actions if energy rises.
 Defaulting to unpruned grid for atomic number  42.
 Defaulting to unpruned grid for atomic number  42.
 Defaulting to unpruned grid for atomic number  42.
 Defaulting to unpruned grid for atomic number  42.
 Defaulting to unpruned grid for atomic number  42.
 Defaulting to unpruned grid for atomic number  42.
 Defaulting to unpruned grid for atomic number  42.
 Defaulting to unpruned grid for atomic number  42.
 Defaulting to unpruned grid for atomic number  42.
 Defaulting to unpruned grid for atomic number  42.
 Defaulting to unpruned grid for atomic number  42.
 Defaulting to unpruned grid for atomic number  42.
 Defaulting to unpruned grid for atomic number  42.
 Defaulting to unpruned grid for atomic number  42.
 Defaulting to unpruned grid for atomic number  42.
 Defaulting to unpruned grid for atomic number  42.
 Defaulting to unpruned grid for atomic number  42.
 Defaulting to unpruned grid for atomic number  42.
 Defaulting to unpruned grid for atomic number  42.
 Defaulting to unpruned grid for atomic number  42.
 Defaulting to unpruned grid for atomic number  42.
 Defaulting to unpruned grid for atomic number  42.
 Defaulting to unpruned grid for atomic number  42.
 Defaulting to unpruned grid for atomic number  42.
 Defaulting to unpruned grid for atomic number  42.
 Defaulting to unpruned grid for atomic number  42.
 Defaulting to unpruned grid for atomic number  42.
 Defaulting to unpruned grid for atomic number  42.
 Defaulting to unpruned grid for atomic number  42.
 Defaulting to unpruned grid for atomic number  42.
 Defaulting to unpruned grid for atomic number  42.
 Defaulting to unpruned grid for atomic number  42.
 Defaulting to unpruned grid for atomic number  42.
 Defaulting to unpruned grid for atomic number  42.
 Defaulting to unpruned grid for atomic number  42.
 Defaulting to unpruned grid for atomic number  42.
 Defaulting to unpruned grid for atomic number  42.
 Defaulting to unpruned grid for atomic number  42.
 Defaulting to unpruned grid for atomic number  42.
 Defaulting to unpruned grid for atomic number  42.
 Defaulting to unpruned grid for atomic number  42.
 Defaulting to unpruned grid for atomic number  42.
 Defaulting to unpruned grid for atomic number  42.
 Defaulting to unpruned grid for atomic number  42.
 Defaulting to unpruned grid for atomic number  42.
 Defaulting to unpruned grid for atomic number  42.
 Defaulting to unpruned grid for atomic number  42.
 Defaulting to unpruned grid for atomic number  42.
 EnCoef did     4 forward-backward iterations
 SCF Done:  E(RB3LYP) =  -1206.31830687     A.U. after   14 cycles
            NFock= 14  Conv=0.71D-08     -V/T= 2.0425
   1 Symmetry operations used in ECPInt.
 ECPInt:  NShTT=    1485 NPrTT=    9652 LenC2=    1404 LenP2D=    6317.
 LDataN:  DoStor=T MaxTD1= 6 Len=  172
 Calling FoFJK, ICntrl=      2127 FMM=F ISym2X=0 I1Cent= 0 IOpClX= 0 NMat=1 NMatS=1 NMatT=0.
 Defaulting to unpruned grid for atomic number  42.
 Defaulting to unpruned grid for atomic number  42.
 Defaulting to unpruned grid for atomic number  42.
 Defaulting to unpruned grid for atomic number  42.
 Defaulting to unpruned grid for atomic number  42.
 Defaulting to unpruned grid for atomic number  42.
 Defaulting to unpruned grid for atomic number  42.
 Defaulting to unpruned grid for atomic number  42.
 Defaulting to unpruned grid for atomic number  42.
 Defaulting to unpruned grid for atomic number  42.
 Defaulting to unpruned grid for atomic number  42.
 Defaulting to unpruned grid for atomic number  42.
 Defaulting to unpruned grid for atomic number  42.
 Defaulting to unpruned grid for atomic number  42.
 Defaulting to unpruned grid for atomic number  42.
 Defaulting to unpruned grid for atomic number  42.
 Defaulting to unpruned grid for atomic number  42.
 Defaulting to unpruned grid for atomic number  42.
 Defaulting to unpruned grid for atomic number  42.
 Defaulting to unpruned grid for atomic number  42.
 Defaulting to unpruned grid for atomic number  42.
 Defaulting to unpruned grid for atomic number  42.
 Defaulting to unpruned grid for atomic number  42.
 Defaulting to unpruned grid for atomic number  42.
 Defaulting to unpruned grid for atomic number  42.
 Defaulting to unpruned grid for atomic number  42.
 Defaulting to unpruned grid for atomic number  42.
 Defaulting to unpruned grid for atomic number  42.
 Defaulting to unpruned grid for atomic number  42.
 Defaulting to unpruned grid for atomic number  42.
 Defaulting to unpruned grid for atomic number  42.
 Defaulting to unpruned grid for atomic number  42.
 Defaulting to unpruned grid for atomic number  42.
 Defaulting to unpruned grid for atomic number  42.
 Defaulting to unpruned grid for atomic number  42.
 Defaulting to unpruned grid for atomic number  42.
 Defaulting to unpruned grid for atomic number  42.
 Defaulting to unpruned grid for atomic number  42.
 Defaulting to unpruned grid for atomic number  42.
 Defaulting to unpruned grid for atomic number  42.
 Defaulting to unpruned grid for atomic number  42.
 Defaulting to unpruned grid for atomic number  42.
 Defaulting to unpruned grid for atomic number  42.
 Defaulting to unpruned grid for atomic number  42.
 Defaulting to unpruned grid for atomic number  42.
 Defaulting to unpruned grid for atomic number  42.
 Defaulting to unpruned grid for atomic number  42.
 Defaulting to unpruned grid for atomic number  42.
 -------------------------------------------------------------------
 Center     Atomic                   Forces (Hartrees/Bohr)
 Number     Number              X              Y              Z
 -------------------------------------------------------------------
      1       42          -0.000130482   -0.000004482    0.000307533
      2        6          -0.000078204    0.000031899   -0.000065240
      3        6           0.000109632   -0.000045799   -0.000035808
      4        6           0.000074036   -0.000011738   -0.000124799
      5        8          -0.000067617   -0.000020019   -0.000026088
      6        8           0.000115175   -0.000016673   -0.000043758
      7        8           0.000001550   -0.000015956    0.000027661
      8       16          -0.000358289   -0.000316389   -0.000585524
      9        1          -0.024182730    0.001644038   -0.005118272
     10        1           0.000040904    0.000004783    0.000009353
     11       16           0.000435277   -0.000398272   -0.000562825
     12        1           0.024036832   -0.000954519    0.006121622
     13        1           0.000003914    0.000103126    0.000096143
 -------------------------------------------------------------------
 Cartesian Forces:  Max     0.024182730 RMS     0.005618874

 GradGradGradGradGradGradGradGradGradGradGradGradGradGradGradGradGradGrad
 Berny optimization.
 FormGI is forming the generalized inverse of G from B-inverse, IUseBI=4.
 Internal  Forces:  Max     0.023681795 RMS     0.003268909
 Search for a saddle point.
 Step number   2 out of a maximum of   66
 All quantities printed in internal units (Hartrees-Bohrs-Radians)
 Swapping is turned off.
 Update second derivatives using D2CorX and points    1    2
 ITU=  0  0
     Eigenvalues ---   -0.01945   0.00306   0.00529   0.00750   0.01876
     Eigenvalues ---    0.02346   0.02802   0.03320   0.03511   0.04599
     Eigenvalues ---    0.04844   0.05046   0.05905   0.06058   0.06962
     Eigenvalues ---    0.07711   0.08924   0.09226   0.10232   0.10775
     Eigenvalues ---    0.12561   0.13847   0.15013   0.15453   0.15864
     Eigenvalues ---    0.15999   0.21872   0.23274   0.25196   0.26191
     Eigenvalues ---    1.05385   1.11859   1.14626
 Eigenvectors required to have negative eigenvalues:
                          R12       R9        R11       R5        R4
   1                    0.61367   0.60621  -0.34744  -0.17555  -0.16131
                          A8        R3        R1        A18       A22
   1                    0.12661   0.09820   0.09720  -0.08052   0.07817
 RFO step:  Lambda0=2.730335533D-03 Lambda=-3.02334484D-03.
 Linear search not attempted -- option 19 set.
 Maximum step size (   0.300) exceeded in Quadratic search.
    -- Step size scaled by   0.800
 Iteration  1 RMS(Cart)=  0.04378439 RMS(Int)=  0.00107539
 Iteration  2 RMS(Cart)=  0.00165788 RMS(Int)=  0.00039918
 Iteration  3 RMS(Cart)=  0.00000171 RMS(Int)=  0.00039918
 Iteration  4 RMS(Cart)=  0.00000000 RMS(Int)=  0.00039918
 Variable       Old X    -DE/DX   Delta X   Delta X   Delta X     New X
                                 (Linear)    (Quad)   (Total)
    R1        3.84483   0.00007   0.00000   0.03287   0.03287   3.87770
    R2        3.64277   0.00002   0.00000  -0.00001  -0.00001   3.64276
    R3        3.83934   0.00012   0.00000   0.03420   0.03420   3.87354
    R4        4.67569   0.00102   0.00000  -0.05897  -0.05943   4.61625
    R5        4.71457   0.00097   0.00000  -0.06871  -0.06918   4.64539
    R6        2.18287   0.00012   0.00000  -0.00394  -0.00394   2.17892
    R7        2.20284   0.00003   0.00000  -0.00195  -0.00195   2.20089
    R8        2.18368   0.00006   0.00000  -0.00409  -0.00409   2.17960
    R9        3.09161  -0.00036   0.00000   0.18357   0.18404   3.27566
   R10        2.56449   0.00000   0.00000   0.00011   0.00011   2.56460
   R11        1.74824   0.02368   0.00000  -0.00389  -0.00321   1.74502
   R12        3.09337  -0.00042   0.00000   0.18404   0.18451   3.27788
   R13        2.55297   0.00000   0.00000   0.00015   0.00015   2.55312
    A1        1.56294  -0.00001   0.00000   0.00636   0.00633   1.56927
    A2        1.54457  -0.00009   0.00000  -0.01496  -0.01498   1.52959
    A3        1.63308  -0.00151   0.00000  -0.01745  -0.01673   1.61634
    A4        1.56243   0.00010   0.00000   0.00556   0.00566   1.56809
    A5        1.63881  -0.00004   0.00000   0.01332   0.01354   1.65234
    A6        1.68409  -0.00006   0.00000  -0.00499  -0.00530   1.67879
    A7        1.63911  -0.00149   0.00000  -0.01666  -0.01601   1.62310
    A8        1.46044   0.00308   0.00000   0.04674   0.04538   1.50582
    A9        1.59766   0.00103   0.00000   0.01940   0.01902   1.61668
   A10        1.84287  -0.00011   0.00000  -0.03556  -0.03548   1.80739
   A11        1.58214  -0.00012   0.00000  -0.01134  -0.01104   1.57110
   A12        2.38363  -0.00259   0.00000  -0.04316  -0.04208   2.34156
   A13        1.58606   0.00107   0.00000   0.02217   0.02169   1.60775
   A14        1.83539   0.00010   0.00000   0.00147   0.00139   1.83678
   A15        1.61844  -0.00017   0.00000  -0.00498  -0.00495   1.61349
   A16        2.39339  -0.00261   0.00000  -0.04451  -0.04341   2.34998
   A17        3.20175  -0.00005   0.00000   0.01968   0.01986   3.22161
   A18        3.17765  -0.00160   0.00000  -0.03241  -0.03172   3.14593
   A19        3.12926   0.00006   0.00000   0.00142   0.00142   3.13067
   A20        3.10847  -0.00003   0.00000  -0.00444  -0.00444   3.10403
   A21        3.12877   0.00009   0.00000   0.00143   0.00143   3.13020
   A22        3.09985   0.00158   0.00000   0.03143   0.03069   3.13054
   A23        3.03672  -0.00004   0.00000  -0.00091  -0.00052   3.03620
   A24        3.14189  -0.00006   0.00000  -0.00501  -0.00501   3.13689
   A25        3.12150  -0.00000   0.00000  -0.00443  -0.00443   3.11707
   A26        3.12467  -0.00003   0.00000  -0.00334  -0.00334   3.12133
    D1        1.62920  -0.00011   0.00000  -0.00324  -0.00282   1.62637
    D2       -3.06391   0.00005   0.00000  -0.01075  -0.01071  -3.07463
    D3       -3.08693  -0.00011   0.00000   0.00212   0.00248  -3.08445
    D4       -1.49686   0.00005   0.00000  -0.00539  -0.00541  -1.50227
    D5       -0.04826  -0.00023   0.00000   0.00053   0.00061  -0.04766
    D6        1.54181  -0.00007   0.00000  -0.00698  -0.00728   1.53453
    D7        3.11687  -0.00010   0.00000  -0.02075  -0.02072   3.09615
    D8       -1.54201   0.00002   0.00000  -0.01983  -0.01987  -1.56188
    D9       -1.59635  -0.00029   0.00000  -0.01663  -0.01649  -1.61284
   D10        0.02796  -0.00017   0.00000  -0.01572  -0.01564   0.01232
   D11        0.03068   0.00001   0.00000   0.00240   0.00240   0.03308
   D12        1.65499   0.00013   0.00000   0.00332   0.00325   1.65824
   D13        0.09762  -0.00014   0.00000  -0.01101  -0.01103   0.08659
   D14       -1.74568  -0.00004   0.00000   0.02455   0.02462  -1.72106
   D15       -0.09146   0.00016   0.00000   0.01830   0.01803  -0.07343
   D16        0.01207  -0.00004   0.00000  -0.00739  -0.00763   0.00445
   D17       -1.82441  -0.00020   0.00000  -0.00991  -0.01000  -1.83441
         Item               Value     Threshold  Converged?
 Maximum Force            0.023682     0.000450     NO 
 RMS     Force            0.003269     0.000300     NO 
 Maximum Displacement     0.130141     0.001800     NO 
 RMS     Displacement     0.043960     0.001200     NO 
 Predicted change in Energy=-5.401229D-05
 GradGradGradGradGradGradGradGradGradGradGradGradGradGradGradGradGradGrad

                          Input orientation:                          
 ---------------------------------------------------------------------
 Center     Atomic      Atomic             Coordinates (Angstroms)
 Number     Number       Type             X           Y           Z
 ---------------------------------------------------------------------
      1         42           0        1.614237   -0.017336   -0.838060
      2          6           0        3.236153   -0.920071   -1.712770
      3          6           0        1.223540   -1.647758    0.113239
      4          6           0        0.496826   -0.680985   -2.423178
      5          8           0       -0.125245   -1.076966   -3.310050
      6          8           0        4.141106   -1.427260   -2.216074
      7          8           0        0.989137   -2.606128    0.732121
      8         16           0       -0.254943    1.227022    0.123758
      9          1           0        0.723542    1.861746    1.406091
     10          1           0       -0.200097    2.424972   -0.511615
     11         16           0        2.990014    0.997045    0.928627
     12          1           0        1.622667    1.817087    1.611749
     13          1           0        3.015234    0.086174    1.926135
 ---------------------------------------------------------------------
                    Distance matrix (angstroms):
                    1          2          3          4          5
     1  Mo   0.000000
     2  C    2.051990   0.000000
     3  C    1.927664   2.813263   0.000000
     4  C    2.049790   2.840027   2.810013   0.000000
     5  O    3.203022   3.724906   3.723430   1.153393   0.000000
     6  O    3.204976   1.153037   3.739854   3.725666   4.418285
     7  O    3.091611   3.724159   1.164660   3.728868   4.463107
     8  S    2.442817   4.491169   3.232705   3.269944   4.137176
     9  H    3.059493   4.876373   3.773338   4.602194   5.621250
    10  H    3.059941   4.943673   4.359393   3.713051   4.483348
    11  S    2.458234   3.273056   3.283332   4.501819   5.654445
    12  H    3.060513   4.598673   3.796049   4.877347   5.971168
    13  H    3.100691   3.781926   3.082739   5.084038   6.215556
                    6          7          8          9         10
     6  O    0.000000
     7  O    4.473979   0.000000
     8  S    5.643161   4.075644   0.000000
     9  H    5.968030   4.526221   1.733403   0.000000
    10  H    6.049042   5.317247   1.357126   2.201801   0.000000
    11  S    4.134177   4.126134   3.351186   2.472361   3.780222
    12  H    5.614316   4.554112   2.467329   0.923425   2.863680
    13  H    4.551480   3.574805   3.904376   2.945327   4.663792
                   11         12         13
    11  S    0.000000
    12  H    1.734578   0.000000
    13  H    1.351053   2.243689   0.000000
 Symmetry turned off by external request.
 Stoichiometry    C3H4MoO3S2
 Framework group  C1[X(C3H4MoO3S2)]
 Deg. of freedom    33
 Full point group                 C1      NOp   1
 Rotational constants (GHZ):           0.8714868           0.7861984           0.5966047
 Basis read from rwf:  (5D, 7F)
 Pseudo-potential data read from rwf file.
   162 basis functions,   349 primitive gaussians,   172 cartesian basis functions
    46 alpha electrons       46 beta electrons
       nuclear repulsion energy       648.0035429429 Hartrees.
 NAtoms=   13 NActive=   13 NUniq=   13 SFac= 1.00D+00 NAtFMM=   60 NAOKFM=F Big=F
 Integral buffers will be    131072 words long.
 Raffenetti 2 integral format.
 Two-electron integral symmetry is turned off.
 One-electron integrals computed using PRISM.
   1 Symmetry operations used in ECPInt.
 ECPInt:  NShTT=    1485 NPrTT=    9652 LenC2=    1402 LenP2D=    6320.
 LDataN:  DoStor=T MaxTD1= 5 Len=  102
 NBasis=   162 RedAO= T EigKep=  4.23D-03  NBF=   162
 NBsUse=   162 1.00D-06 EigRej= -1.00D+00 NBFU=   162
 Defaulting to unpruned grid for atomic number  42.
 Initial guess from the checkpoint file:  "/home/chesagar/scratch/Gau-45572.chk"
 B after Tr=    -0.006650   -0.011855    0.003321
         Rot=    1.000000   -0.000344   -0.000407   -0.000594 Ang=  -0.09 deg.
 ExpMin= 2.47D-02 ExpMax= 2.19D+04 ExpMxC= 3.30D+03 IAcc=3 IRadAn=         5 AccDes= 0.00D+00
 Harris functional with IExCor=  402 and IRadAn=       5 diagonalized for initial guess.
 HarFok:  IExCor=  402 AccDes= 0.00D+00 IRadAn=         5 IDoV= 1 UseB2=F ITyADJ=14
 ICtDFT=  3500011 ScaDFX=  1.000000  1.000000  1.000000  1.000000
 Defaulting to unpruned grid for atomic number  42.
 FoFCou: FMM=F IPFlag=           0 FMFlag=      100000 FMFlg1=           0
         NFxFlg=           0 DoJE=T BraDBF=F KetDBF=T FulRan=T
         wScrn=  0.000000 ICntrl=       500 IOpCl=  0 I1Cent=   200000004 NGrid=           0
         NMat0=    1 NMatS0=      1 NMatT0=    0 NMatD0=    1 NMtDS0=    0 NMtDT0=    0
 Symmetry not used in FoFCou.
 Requested convergence on RMS density matrix=1.00D-08 within 128 cycles.
 Requested convergence on MAX density matrix=1.00D-06.
 Requested convergence on             energy=1.00D-06.
 No special actions if energy rises.
 Defaulting to unpruned grid for atomic number  42.
 Defaulting to unpruned grid for atomic number  42.
 Defaulting to unpruned grid for atomic number  42.
 Defaulting to unpruned grid for atomic number  42.
 Defaulting to unpruned grid for atomic number  42.
 Defaulting to unpruned grid for atomic number  42.
 Defaulting to unpruned grid for atomic number  42.
 Defaulting to unpruned grid for atomic number  42.
 Defaulting to unpruned grid for atomic number  42.
 Defaulting to unpruned grid for atomic number  42.
 Defaulting to unpruned grid for atomic number  42.
 Defaulting to unpruned grid for atomic number  42.
 Defaulting to unpruned grid for atomic number  42.
 Defaulting to unpruned grid for atomic number  42.
 Defaulting to unpruned grid for atomic number  42.
 Defaulting to unpruned grid for atomic number  42.
 Defaulting to unpruned grid for atomic number  42.
 Defaulting to unpruned grid for atomic number  42.
 Defaulting to unpruned grid for atomic number  42.
 Defaulting to unpruned grid for atomic number  42.
 Defaulting to unpruned grid for atomic number  42.
 Defaulting to unpruned grid for atomic number  42.
 Defaulting to unpruned grid for atomic number  42.
 Defaulting to unpruned grid for atomic number  42.
 Defaulting to unpruned grid for atomic number  42.
 Defaulting to unpruned grid for atomic number  42.
 Defaulting to unpruned grid for atomic number  42.
 Defaulting to unpruned grid for atomic number  42.
 Defaulting to unpruned grid for atomic number  42.
 Defaulting to unpruned grid for atomic number  42.
 Defaulting to unpruned grid for atomic number  42.
 Defaulting to unpruned grid for atomic number  42.
 Defaulting to unpruned grid for atomic number  42.
 Defaulting to unpruned grid for atomic number  42.
 Defaulting to unpruned grid for atomic number  42.
 Defaulting to unpruned grid for atomic number  42.
 Defaulting to unpruned grid for atomic number  42.
 Defaulting to unpruned grid for atomic number  42.
 Defaulting to unpruned grid for atomic number  42.
 Defaulting to unpruned grid for atomic number  42.
 Defaulting to unpruned grid for atomic number  42.
 Defaulting to unpruned grid for atomic number  42.
 Defaulting to unpruned grid for atomic number  42.
 Defaulting to unpruned grid for atomic number  42.
 Defaulting to unpruned grid for atomic number  42.
 Defaulting to unpruned grid for atomic number  42.
 Defaulting to unpruned grid for atomic number  42.
 Defaulting to unpruned grid for atomic number  42.
 SCF Done:  E(RB3LYP) =  -1206.31858047     A.U. after   15 cycles
            NFock= 15  Conv=0.37D-08     -V/T= 2.0425
   1 Symmetry operations used in ECPInt.
 ECPInt:  NShTT=    1485 NPrTT=    9652 LenC2=    1402 LenP2D=    6320.
 LDataN:  DoStor=T MaxTD1= 6 Len=  172
 Calling FoFJK, ICntrl=      2127 FMM=F ISym2X=0 I1Cent= 0 IOpClX= 0 NMat=1 NMatS=1 NMatT=0.
 Defaulting to unpruned grid for atomic number  42.
 Defaulting to unpruned grid for atomic number  42.
 Defaulting to unpruned grid for atomic number  42.
 Defaulting to unpruned grid for atomic number  42.
 Defaulting to unpruned grid for atomic number  42.
 Defaulting to unpruned grid for atomic number  42.
 Defaulting to unpruned grid for atomic number  42.
 Defaulting to unpruned grid for atomic number  42.
 Defaulting to unpruned grid for atomic number  42.
 Defaulting to unpruned grid for atomic number  42.
 Defaulting to unpruned grid for atomic number  42.
 Defaulting to unpruned grid for atomic number  42.
 Defaulting to unpruned grid for atomic number  42.
 Defaulting to unpruned grid for atomic number  42.
 Defaulting to unpruned grid for atomic number  42.
 Defaulting to unpruned grid for atomic number  42.
 Defaulting to unpruned grid for atomic number  42.
 Defaulting to unpruned grid for atomic number  42.
 Defaulting to unpruned grid for atomic number  42.
 Defaulting to unpruned grid for atomic number  42.
 Defaulting to unpruned grid for atomic number  42.
 Defaulting to unpruned grid for atomic number  42.
 Defaulting to unpruned grid for atomic number  42.
 Defaulting to unpruned grid for atomic number  42.
 Defaulting to unpruned grid for atomic number  42.
 Defaulting to unpruned grid for atomic number  42.
 Defaulting to unpruned grid for atomic number  42.
 Defaulting to unpruned grid for atomic number  42.
 Defaulting to unpruned grid for atomic number  42.
 Defaulting to unpruned grid for atomic number  42.
 Defaulting to unpruned grid for atomic number  42.
 Defaulting to unpruned grid for atomic number  42.
 Defaulting to unpruned grid for atomic number  42.
 Defaulting to unpruned grid for atomic number  42.
 Defaulting to unpruned grid for atomic number  42.
 Defaulting to unpruned grid for atomic number  42.
 Defaulting to unpruned grid for atomic number  42.
 Defaulting to unpruned grid for atomic number  42.
 Defaulting to unpruned grid for atomic number  42.
 Defaulting to unpruned grid for atomic number  42.
 Defaulting to unpruned grid for atomic number  42.
 Defaulting to unpruned grid for atomic number  42.
 Defaulting to unpruned grid for atomic number  42.
 Defaulting to unpruned grid for atomic number  42.
 Defaulting to unpruned grid for atomic number  42.
 Defaulting to unpruned grid for atomic number  42.
 Defaulting to unpruned grid for atomic number  42.
 Defaulting to unpruned grid for atomic number  42.
 -------------------------------------------------------------------
 Center     Atomic                   Forces (Hartrees/Bohr)
 Number     Number              X              Y              Z
 -------------------------------------------------------------------
      1       42           0.000052101   -0.000048035    0.000104704
      2        6          -0.000126119    0.000011997   -0.000022696
      3        6          -0.000063660    0.000009764   -0.000102337
      4        6           0.000095437   -0.000053629    0.000031171
      5        8          -0.000051082   -0.000001360   -0.000040152
      6        8           0.000049771    0.000016129   -0.000008464
      7        8           0.000007958   -0.000042309    0.000027523
      8       16          -0.001549325   -0.000357711   -0.001004292
      9        1          -0.005691464    0.000759515   -0.000752851
     10        1           0.000008297    0.000079121    0.000045066
     11       16           0.001750736   -0.000470050   -0.000215764
     12        1           0.005527962    0.000063049    0.001869995
     13        1          -0.000010612    0.000033518    0.000068097
 -------------------------------------------------------------------
 Cartesian Forces:  Max     0.005691464 RMS     0.001382576

 GradGradGradGradGradGradGradGradGradGradGradGradGradGradGradGradGradGrad
 Berny optimization.
 FormGI is forming the generalized inverse of G from B-inverse, IUseBI=4.
 Internal  Forces:  Max     0.006437955 RMS     0.000939073
 Search for a saddle point.
 Step number   3 out of a maximum of   66
 All quantities printed in internal units (Hartrees-Bohrs-Radians)
 Swapping is turned off.
 Update second derivatives using D2CorX and points    1    2    3
 ITU=  0  0  0
     Eigenvalues ---   -0.02349   0.00306   0.00530   0.00764   0.01879
     Eigenvalues ---    0.02363   0.02801   0.03318   0.03510   0.04597
     Eigenvalues ---    0.04844   0.05045   0.05904   0.06056   0.06960
     Eigenvalues ---    0.07755   0.08922   0.09224   0.10231   0.10775
     Eigenvalues ---    0.12561   0.13848   0.15005   0.15452   0.15833
     Eigenvalues ---    0.15997   0.21869   0.22517   0.25196   0.26191
     Eigenvalues ---    1.05385   1.11859   1.14626
 Eigenvectors required to have negative eigenvalues:
                          R12       R9        R11       R5        R4
   1                    0.62453   0.61843  -0.32608  -0.15973  -0.14816
                          A8        R3        R1        A18       A22
   1                    0.12731   0.09423   0.09291  -0.08167   0.07806
 RFO step:  Lambda0=2.086772547D-05 Lambda=-2.56256369D-04.
 Linear search not attempted -- option 19 set.
 Iteration  1 RMS(Cart)=  0.00810615 RMS(Int)=  0.00003838
 Iteration  2 RMS(Cart)=  0.00003706 RMS(Int)=  0.00001000
 Iteration  3 RMS(Cart)=  0.00000000 RMS(Int)=  0.00001000
 Variable       Old X    -DE/DX   Delta X   Delta X   Delta X     New X
                                 (Linear)    (Quad)   (Total)
    R1        3.87770  -0.00006   0.00000   0.00172   0.00172   3.87942
    R2        3.64276   0.00000   0.00000   0.00010   0.00010   3.64286
    R3        3.87354   0.00000   0.00000   0.00200   0.00200   3.87554
    R4        4.61625   0.00071   0.00000   0.00018   0.00017   4.61642
    R5        4.64539   0.00074   0.00000   0.00085   0.00084   4.64623
    R6        2.17892   0.00004   0.00000  -0.00026  -0.00026   2.17867
    R7        2.20089   0.00005   0.00000  -0.00017  -0.00017   2.20072
[...]
 ! R10   R(8,10)                 1.3572         -DE/DX =    0.0                 !
 ! R11   R(9,12)                 0.9395         -DE/DX =    0.0                 !
 ! R12   R(11,12)                1.7546         -DE/DX =    0.0                 !
 ! R13   R(11,13)                1.3511         -DE/DX =    0.0                 !
 ! A1    A(2,1,3)               90.0726         -DE/DX =    0.0                 !
 ! A2    A(2,1,4)               87.3934         -DE/DX =    0.0                 !
 ! A3    A(2,1,11)              92.2969         -DE/DX =    0.0                 !
 ! A4    A(3,1,4)               89.7395         -DE/DX =    0.0                 !
 ! A5    A(3,1,8)               94.8779         -DE/DX =    0.0                 !
 ! A6    A(3,1,11)              96.2008         -DE/DX =    0.0                 !
 ! A7    A(4,1,8)               92.7458         -DE/DX =    0.0                 !
 ! A8    A(8,1,11)              87.0513         -DE/DX =    0.0                 !
 ! A9    A(1,8,9)               92.75           -DE/DX =    0.0                 !
 ! A10   A(1,8,10)             103.1658         -DE/DX =    0.0                 !
 ! A11   A(9,8,10)              89.728          -DE/DX =    0.0                 !
 ! A12   A(8,9,12)             133.6144         -DE/DX =    0.0                 !
 ! A13   A(1,11,12)             92.2345         -DE/DX =    0.0                 !
 ! A14   A(1,11,13)            105.0597         -DE/DX =    0.0                 !
 ! A15   A(12,11,13)            92.1851         -DE/DX =    0.0                 !
 ! A16   A(9,12,11)            134.184          -DE/DX =    0.0                 !
 ! A17   L(2,1,8,3,-1)         184.9505         -DE/DX =    0.0                 !
 ! A18   L(4,1,11,2,-1)        179.6904         -DE/DX =    0.0                 !
 ! A19   L(1,2,6,5,-1)         179.3545         -DE/DX =    0.0                 !
 ! A20   L(1,3,7,13,-1)        177.8572         -DE/DX =    0.0                 !
 ! A21   L(1,4,5,6,-1)         179.3079         -DE/DX =    0.0                 !
 ! A22   L(2,1,8,3,-2)         179.8734         -DE/DX =    0.0                 !
 ! A23   L(4,1,11,2,-2)        174.0554         -DE/DX =    0.0                 !
 ! A24   L(1,2,6,5,-2)         179.5461         -DE/DX =    0.0                 !
 ! A25   L(1,3,7,13,-2)        178.5616         -DE/DX =    0.0                 !
 ! A26   L(1,4,5,6,-2)         178.7977         -DE/DX =    0.0                 !
 ! D1    D(3,1,8,9)             93.3052         -DE/DX =    0.0                 !
 ! D2    D(3,1,8,10)          -176.3307         -DE/DX =    0.0                 !
 ! D3    D(4,1,8,9)           -176.722          -DE/DX =    0.0                 !
 ! D4    D(4,1,8,10)           -86.3579         -DE/DX =    0.0                 !
 ! D5    D(11,1,8,9)            -2.6731         -DE/DX =    0.0                 !
 ! D6    D(11,1,8,10)           87.6909         -DE/DX =    0.0                 !
 ! D7    D(2,1,11,12)          176.909          -DE/DX =    0.0                 !
 ! D8    D(2,1,11,13)          -90.2243         -DE/DX =    0.0                 !
 ! D9    D(3,1,11,12)          -92.7682         -DE/DX =    0.0                 !
 ! D10   D(3,1,11,13)            0.0985         -DE/DX =    0.0                 !
 ! D11   D(8,1,11,12)            1.8232         -DE/DX =    0.0                 !
 ! D12   D(8,1,11,13)           94.6899         -DE/DX =    0.0                 !
 ! D13   D(1,8,9,12)             4.868          -DE/DX =    0.0                 !
 ! D14   D(10,8,9,12)          -98.3            -DE/DX =    0.0                 !
 ! D15   D(8,9,12,11)           -4.2014         -DE/DX =    0.0                 !
 ! D16   D(1,11,12,9)            0.3658         -DE/DX =    0.0                 !
 ! D17   D(13,11,12,9)        -104.8052         -DE/DX =    0.0                 !
 --------------------------------------------------------------------------------
 GradGradGradGradGradGradGradGradGradGradGradGradGradGradGradGradGradGrad


 ----------------------------------------------------------------------

 Electric dipole moment (input orientation):
 (Debye = 10**-18 statcoulomb cm , SI units = C m)
                  (au)            (Debye)         (10**-30 SI)
   Tot        0.124902D+01      0.317470D+01      0.105897D+02
   x          0.127169D+00      0.323231D+00      0.107818D+01
   y          0.122965D+01      0.312546D+01      0.104254D+02
   z          0.178459D+00      0.453598D+00      0.151304D+01

 Dipole polarizability, Alpha (input orientation).
 (esu units = cm**3 , SI units = C**2 m**2 J**-1)
 Alpha(0;0):
               (au)            (10**-24 esu)      (10**-40 SI)
   iso        0.136477D+03      0.202238D+02      0.225020D+02
   aniso      0.611813D+02      0.906613D+01      0.100874D+02
   xx         0.140236D+03      0.207809D+02      0.231219D+02
   yx        -0.123115D+02     -0.182438D+01     -0.202990D+01
   yy         0.124327D+03      0.184233D+02      0.204987D+02
   zx         0.506761D+01      0.750942D+00      0.835536D+00
   zy         0.308929D+02      0.457786D+01      0.509356D+01
   zz         0.144868D+03      0.214672D+02      0.238855D+02

 ----------------------------------------------------------------------

 Dipole orientation:
    42          3.18230309          1.27713040          0.05244746
     6          6.53889453          2.39262188         -1.54419792
     6          2.53902593         -0.89101751         -2.80344627
     6          1.51064267          4.22457290         -1.83115545
     8          0.58755912          5.86391291         -2.93086624
     8          8.41395400          3.04601615         -2.44034855
     8          2.13958336         -2.27562541         -4.46657997
    16         -0.71897986          0.18501887          2.26076909
     1          0.75505825         -2.21465177          4.01046550
     1         -0.66685050          1.70561893          4.32539462
    16          5.27842941         -1.94089084          2.66319732
     1          2.43519497         -2.77009089          4.15385999
     1          5.26459088         -4.06112106          1.24087498

 Electric dipole moment (dipole orientation):
 (Debye = 10**-18 statcoulomb cm , SI units = C m)
                  (au)            (Debye)         (10**-30 SI)
   Tot        0.124902D+01      0.317470D+01      0.105897D+02
   x          0.000000D+00      0.000000D+00      0.000000D+00
   y          0.000000D+00      0.000000D+00      0.000000D+00
   z          0.124902D+01      0.317470D+01      0.105897D+02

 Dipole polarizability, Alpha (dipole orientation).
 (esu units = cm**3 , SI units = C**2 m**2 J**-1)
 Alpha(0;0):
               (au)            (10**-24 esu)      (10**-40 SI)
   iso        0.136477D+03      0.202238D+02      0.225020D+02
   aniso      0.611813D+02      0.906613D+01      0.100874D+02
   xx         0.141831D+03      0.210172D+02      0.233848D+02
   yx        -0.398121D+01     -0.589955D+00     -0.656413D+00
   yy         0.136319D+03      0.202003D+02      0.224759D+02
   zx        -0.134131D+02     -0.198761D+01     -0.221152D+01
   zy        -0.320017D+02     -0.474217D+01     -0.527637D+01
   zz         0.131281D+03      0.194539D+02      0.216453D+02

 ----------------------------------------------------------------------
 Unable to Open any file for archive entry.
 1\1\GINC-NODE10-IB\Freq\RB3LYP\Gen\C3H4Mo1O3S2\CHESAGAR\10-Mar-2022\0\
 \#N Geom=AllCheck Guess=TCheck SCRF=Check GenChk RB3LYP/ChkBas Freq\\T
 itle Card Required\\0,1\Mo,1.6122804629,-0.0176791963,-0.8328367073\C,
 3.234605681,-0.915571207,-1.7155401785\C,1.2217167055,-1.6499939205,0.
 1154306804\C,0.4974201964,-0.6843960545,-2.4207142486\O,-0.1219580423,
 -1.0826537568,-3.3081735503\O,4.1392368108,-1.4169236824,-2.2247197432
 \O,0.9869129028,-2.609230839,0.7325431619\S,-0.2637978212,1.2260371054
 ,0.1132813604\H,0.7147963922,1.8762100532,1.4163096168\H,-0.195797162,
 2.4214930669,-0.5256101151\S,3.0014562427,0.9864021769,0.9281130945\H,
 1.6293265663,1.8282751193,1.6259956295\H,3.015970065,0.0755741348,1.92
 58939994\\Version=ES64L-G16RevC.01\HF=-1206.3187359\RMSD=3.791e-09\RMS
 F=1.255e-06\ZeroPoint=0.0562031\Thermal=0.0683625\ETot=-1206.2503734\H
 Tot=-1206.2494292\GTot=-1206.3023785\Dipole=0.127169,1.2296489,0.17845
 94\DipoleDeriv=-0.4486024,-0.0011545,0.2585121,-0.1631347,-1.2960106,-
 0.0295355,0.3185991,-0.1733312,-1.2569324,1.7855832,-0.7754086,-1.2041
 819,-0.8832797,0.7920139,0.7096079,-0.8986315,0.4840946,0.9761828,0.10
 81966,0.4237907,-0.2735581,0.5076152,1.9406756,-1.255283,-0.2759476,-1
 .0421567,0.6636323,0.8542758,0.4033609,1.2241282,0.4444026,0.6277434,0
 .8706699,0.8417266,0.5987366,2.0813135,-0.6605311,-0.3115451,-0.933292
 9,-0.3464624,-0.378629,-0.6251047,-0.7181155,-0.4432988,-1.4977965,-1.
 3718273,0.6076372,0.8626725,0.6816885,-0.5088825,-0.4834635,0.6983346,
 -0.3499225,-0.6476738,-0.1786338,-0.3225593,0.1753701,-0.3314692,-1.48
 44838,0.7603992,0.1978767,0.8369876,-0.5766207,-0.2774159,0.3255487,0.
 1391488,0.0148983,0.4470153,0.2396667,-0.2518392,0.4371334,0.4988088,0
 .2210268,-0.5383332,-0.4654002,0.0863764,-0.238636,-0.208718,0.2010434
 ,-0.4769059,-0.3930782,0.0416497,-0.0788143,0.0493402,0.0498296,-0.056
 0093,0.0219342,0.0444694,0.042298,0.0048858,-0.2414485,-0.3096829,-0.5
 449637,0.0069223,0.4027798,0.2331363,-0.1229781,0.2878772,0.309653,0.0
 958763,0.6353386,0.666481,-0.0566795,-0.2558507,-0.2823481,-0.0046144,
 -0.1883299,-0.202302,0.0718506,-0.0581784,0.0457439,-0.0107074,0.00827
 39,0.0490387,-0.0299235,-0.0131824,0.0399275\Polar=140.2364273,-12.311
 5174,124.3265455,5.0676108,30.892937,144.8679565\Quadrupole=-1.9367939
 ,0.7810963,1.1556976,1.2838535,1.8084385,-2.5914354\PG=C01 [X(C3H4Mo1O
 3S2)]\NImag=1\\0.26521068,0.01246347,0.38069041,-0.00395498,-0.0085194
 7,0.28642629,-0.05509611,0.00734168,-0.00195067,0.75561240,0.02187128,
 -0.08687163,-0.00166737,-0.37377516,0.30351987,0.00133485,0.00620318,-
 0.05132711,-0.37606700,0.20492172,0.29192276,-0.06365150,-0.01204920,0
 .00294576,-0.00795925,-0.02021175,0.01301917,0.14648621,-0.01813439,-0
 .14963425,0.02818130,-0.02194629,0.02511492,0.00605158,0.17396453,0.82
 095344,0.00184919,0.01410223,-0.06219191,0.01612917,0.00672088,-0.0142
 1355,-0.10860554,-0.44592253,0.38786688,-0.06225690,-0.01472955,-0.004
 22933,-0.01437710,0.00097475,-0.00607740,0.00845132,0.01885208,-0.0028
 8715,0.40189393,-0.02151664,-0.08055668,-0.01346323,0.00040335,0.00963
 824,0.00361133,0.01502392,0.01713305,0.01718031,0.20881621,0.22452903,
 -0.00451064,-0.00072262,-0.05228214,-0.00739604,0.00357729,0.01233390,
 -0.00023754,0.01932676,-0.02481172,0.44973965,0.28592649,0.72427527,0.
 00042821,-0.00660543,-0.03195553,0.00758265,-0.00302948,-0.00147372,-0
 .00391099,-0.00988580,0.00419472,-0.33997907,-0.19665528,-0.43100426,0
 .34129402,-0.00812461,0.02052239,-0.01839176,0.00285368,-0.00336974,-0
 .00225781,-0.00430576,-0.00700050,-0.00164702,-0.19680336,-0.16661897,
 -0.27641113,0.20714058,0.15389668,-0.03135807,-0.01672161,-0.02861860,
 0.00765009,-0.00412368,-0.00576510,-0.00219781,-0.01344236,0.01126402,
 -0.43071611,-0.27591181,-0.65303983,0.45941679,0.29491660,0.67763123,-
 0.02880162,0.02034981,0.02844985,-0.68144165,0.35761730,0.36167485,0.0
 0358030,0.01379652,-0.00958112,0.00753897,0.00274574,0.00821305,-0.005
 01300,-0.00278826,-0.00648203,0.70598113,0.02208787,0.01653725,-0.0162
 7066,0.35809537,-0.24067304,-0.19914018,0.00389661,-0.00976631,0.00134
 897,-0.00265061,-0.00324213,-0.00426034,0.00251958,0.00190318,0.003554
 63,-0.38073562,0.23261202,0.02754652,-0.01488240,0.00347723,0.36151125
 ,-0.19890017,-0.23971110,-0.00430850,-0.00679644,0.00670153,-0.0012486
 0,-0.00202595,-0.00576231,0.00218411,0.00164957,0.00385150,-0.38553586
 ,0.21348353,0.23640731,0.01703855,-0.01607862,0.01186695,0.00396334,0.
 00358516,-0.00387659,-0.08470860,-0.15724481,0.10067299,-0.00292655,-0
 .00411742,-0.00161783,0.00178097,0.00148933,0.00180906,-0.00209834,-0.
 00022121,0.00169679,0.06697959,-0.01526089,-0.03437378,0.04381807,0.01
 235154,-0.00961040,-0.00511685,-0.15748231,-0.68958087,0.41192179,-0.0
 0935919,-0.00667770,-0.01133035,0.00581630,0.00375768,0.00826240,-0.00
 845169,0.00500220,0.00454693,0.17216029,0.72796741,0.01164817,0.044576
 28,-0.01082941,-0.00873337,0.00139893,0.00593092,0.10045109,0.40980979
 ,-0.30928190,0.00446259,-0.00150454,0.01072954,-0.00341551,-0.00118206
 ,-0.00607031,0.00572550,-0.00219423,-0.00352601,-0.11059435,-0.4506391
 1,0.31310169,-0.04487457,0.00467512,0.01561120,-0.00523630,0.01603997,
 0.00609673,0.00226161,-0.00092494,-0.00062402,-0.00089992,-0.00173381,
 -0.00267777,0.00104952,0.00059474,0.00118353,-0.00061993,-0.00459251,-
 0.00107107,-0.00016246,0.00184941,-0.00081377,0.09853155,0.00345157,-0
 .01627213,0.01181715,0.01971891,-0.00354280,-0.01400319,0.00366007,-0.
 00733375,0.00074733,-0.00126981,-0.00337478,-0.00903274,0.00122741,0.0
 0151189,0.00358782,-0.00500651,0.00010680,0.00395409,-0.00015314,0.003
 61935,-0.00166905,0.00047864,0.23265522,0.01872754,0.01009715,-0.01929
 909,0.01535960,-0.01340247,-0.00118507,-0.00743552,-0.00326644,0.00470
 310,-0.00110213,-0.00842932,-0.01104948,0.00213753,0.00277748,0.004968
 92,-0.00520978,0.00528618,-0.00012608,0.00204122,0.00323564,-0.0024775
 0,-0.01618517,-0.09062205,0.10300942,0.00313836,-0.01617208,-0.0225727
 1,-0.01081763,0.00612947,0.00620953,0.00047412,0.00515071,-0.00372119,
 0.00693379,0.00537332,0.01350257,-0.00351364,-0.00275576,-0.00630143,0
 .00455441,-0.00271357,-0.00258417,-0.00083723,-0.00473093,0.00291160,0
 .00591475,0.01246802,0.02132367,0.05720743,0.00830457,-0.00992259,-0.0
 1547537,-0.00332893,0.00337397,0.00412395,-0.00005640,0.00259858,-0.00
 123794,0.00140848,0.00159253,0.00476922,-0.00087366,-0.00088496,-0.002
 13832,0.00162053,-0.00142627,-0.00174220,-0.00032525,-0.00214631,0.001
 24634,-0.00378029,-0.01306822,0.00202975,-0.01831681,0.03072829,0.0075
 4781,-0.02085383,-0.02644931,-0.00771932,0.00593148,0.00839990,0.00107
 965,0.00466491,-0.00284731,0.00497029,0.00423613,0.01060180,-0.0025997
 0,-0.00217768,-0.00494329,0.00349109,-0.00269934,-0.00333514,-0.000874
 09,-0.00422472,0.00250535,0.00936609,0.01368052,0.00606023,-0.01779680
 ,-0.00493614,0.01808110,0.00281340,0.00806819,-0.00893184,-0.00193519,
 -0.00422254,0.00425163,-0.00038110,0.00032115,0.00157665,0.00025885,0.
 00080297,0.00004447,-0.00006508,-0.00009406,-0.00001113,0.00026553,0.0
 0155782,-0.00114936,0.00016072,-0.00016267,-0.00027015,-0.01052925,-0.
 01964034,0.01283337,-0.00158063,0.00367585,-0.00427086,0.01113381,0.00
 400586,-0.00944202,0.00207257,-0.00115677,0.00267390,-0.00070533,0.001
 33310,0.00086275,-0.00094579,0.00034488,0.00032490,-0.00017800,-0.0002
 7179,-0.00017339,-0.00027555,0.00074874,-0.00114140,0.00002413,-0.0003
 3136,0.00001910,0.00020305,-0.01466397,-0.19575592,0.09937757,0.000892
 88,0.00333648,-0.00101411,0.00951660,0.19917139,-0.00274003,-0.0046579
 7,0.00544068,-0.00040210,0.00078994,-0.00124728,0.00291913,-0.00011263
 ,0.00021121,0.00017298,0.00130193,0.00006047,-0.00026604,-0.00025888,-
 0.00026946,0.00046452,-0.00068545,0.00036845,-0.00066786,-0.00000602,0
 .00008835,0.00504055,0.09539870,-0.06776750,0.00077435,0.00652806,-0.0
 0452657,-0.00505253,-0.09830078,0.06739190,-0.02815965,-0.01309404,-0.
 01251947,-0.00433397,0.00325478,0.00595488,0.00175994,0.00152140,-0.00
 175670,0.00414791,-0.00017078,-0.01107860,-0.00331475,-0.00074136,0.00
 157801,0.00286815,-0.00153913,-0.00193327,-0.00050876,-0.00206608,0.00
 137674,-0.00646475,0.01474263,0.01213047,-0.04798405,-0.00255856,-0.01
 943541,-0.00336361,-0.00012830,-0.00161518,0.07817303,-0.00801915,-0.0
 2318071,0.01281023,0.00487033,-0.00305143,-0.00890452,-0.00564735,-0.0
 0774643,0.00161618,-0.00716302,0.00493431,-0.01908408,0.00157377,-0.00
 258423,0.00574581,-0.00265426,0.00186984,0.00291590,0.00175057,0.00536
 376,-0.00282514,-0.00565288,-0.00305312,-0.01429074,0.03369247,0.00194
 622,0.01089427,0.00094382,-0.00047471,0.00051788,0.00676002,0.15747991
 ,-0.01950812,0.00044737,-0.02277859,0.00351900,-0.00635791,-0.00805833
 ,0.00232043,-0.00229294,0.00643776,-0.01358120,-0.01133549,-0.01792689
 ,0.00330096,0.00338971,0.00396653,-0.00222322,0.00237593,0.00281034,0.
 00014534,0.00292050,-0.00237330,-0.01509524,-0.00628677,-0.01073612,0.
 03064076,-0.00245787,0.01077117,0.00069371,-0.00069039,-0.00052854,0.0
 1710386,-0.11768282,0.19494145,-0.00550651,0.02164489,0.03172916,0.013
 60212,-0.00896349,-0.01002949,-0.00153627,-0.00652710,0.00434274,-0.00
 782636,-0.00467614,-0.01522511,0.00342752,0.00227909,0.00619244,-0.006
 69841,0.00435125,0.00465700,0.00140133,0.00598731,-0.00364782,-0.03607
 798,-0.02916447,-0.05316367,-0.01422635,0.01504895,0.02624097,0.002278
 98,-0.00051097,0.00063368,0.01345653,-0.01621298,-0.01647214,0.0379610
 9,0.00215722,-0.01181823,-0.02032757,-0.00517786,0.00321314,0.00408411
 ,0.00084540,0.00297461,-0.00151385,0.00150633,0.00365744,0.00709652,-0
 .00084791,-0.00149823,-0.00296293,0.00258294,-0.00168824,-0.00190355,-
 0.00064214,-0.00261516,0.00153079,0.00720219,0.00501166,0.00701815,-0.
 01945207,-0.01688978,-0.00357707,-0.00037673,0.00074890,-0.00020810,-0
 .01104675,-0.00374137,0.01236245,0.01783217,0.02610573,-0.00325720,-0.
 01127109,-0.01545259,-0.00198207,0.00193848,0.00259313,0.00019370,0.00
 196166,-0.00129784,0.00051652,0.00238733,0.00515208,-0.00045214,-0.001
 09875,-0.00215406,0.00107891,-0.00093254,-0.00107677,-0.00035449,-0.00
 171692,0.00103051,-0.00132934,-0.00678508,-0.00582556,-0.02280667,0.00
 880241,-0.01515130,0.00042688,0.00046544,0.00094916,0.00665166,0.00202
 164,-0.01213391,0.02620566,0.00089798,0.04020085,-0.00028233,0.0041857
 7,-0.00448839,0.00043671,0.00072972,-0.00101744,-0.00086576,0.00105695
 ,-0.00158975,-0.00095887,-0.00429545,0.00224805,0.00023365,0.00125574,
 -0.00076334,-0.00011552,-0.00005585,0.00023514,-0.00008256,-0.00065108
 ,0.00089928,-0.00289228,-0.00051300,-0.00145714,0.00073668,-0.00081848
 ,0.00000029,0.00094356,0.00022108,0.00073854,-0.00627604,-0.00424134,0
 .00915584,-0.00025568,0.00541721,-0.00489143,0.00937845,-0.00328616,0.
 00432198,-0.00458390,-0.00024988,-0.00041500,0.00113202,0.00102914,0.0
 0142477,-0.00237057,0.00007281,-0.00133924,0.00032298,-0.00010829,0.00
 053819,-0.00049101,0.00017475,-0.00009389,-0.00032344,0.00012859,-0.00
 072528,0.00124895,0.00050835,-0.00050420,0.00018910,0.00043435,0.00076
 208,0.00007560,-0.00039006,-0.00014998,-0.00030669,0.00506616,-0.12776
 203,0.12560824,-0.00108851,-0.00346045,0.00332943,-0.00229127,0.127403
 04,-0.00332505,0.00220279,-0.00611545,0.00008144,-0.00082712,0.0003269
 5,-0.00014405,0.00183734,-0.00254028,-0.00002011,-0.00197319,0.0017193
 1,-0.00006719,0.00069173,-0.00082153,-0.00006575,0.00013351,-0.0000789
 5,-0.00024715,-0.00167137,0.00117208,0.00049828,-0.00078672,-0.0002752
 8,0.00042049,0.00048810,0.00083338,-0.00014083,-0.00003282,-0.00017087
 ,0.00354300,0.12626539,-0.14439158,-0.00146342,-0.00249693,0.00316630,
 0.00093035,-0.12383070,0.14717593\\0.00000057,-0.00000013,-0.00000038,
 0.00000103,0.00000083,0.00000122,0.00000084,-0.00000013,0.00000002,0.0
 0000154,-0.00000040,-0.00000054,0.00000214,-0.00000117,-0.00000077,0.0
 0000201,0.00000145,0.00000127,0.00000103,-0.00000024,-0.00000017,-0.00
 000021,0.00000010,0.00000095,-0.00000412,-0.00000106,-0.00000242,-0.00
 000151,-0.00000116,-0.00000114,-0.00000015,0.00000050,0.00000022,-0.00
 000224,0.00000047,0.00000098,-0.00000093,0.00000096,0.00000075\\\@
 The archive entry for this job was punched.


 TRUTH, IN SCIENCE, CAN BE DEFINED AS THE WORKING HYPOTHESIS 
 BEST FITTED TO OPEN THE WAY TO THE NEXT BETTER ONE.

                              -- KONRAD LORENZ
 Job cpu time:       0 days  0 hours 11 minutes  7.4 seconds.
 Elapsed time:       0 days  0 hours  0 minutes 14.8 seconds.
 File lengths (MBytes):  RWF=    109 Int=      0 D2E=      0 Chk=      4 Scr=      2
 Normal termination of Gaussian 16 at Thu Mar 10 18:26:45 2022.
