       N       E                     dE             d eps       ncg     rms          rms(c)
DAV:   1     0.195376367377E+05    0.19538E+05   -0.80031E+05  5952   0.107E+03
DAV:   2     0.286608420224E+03   -0.19251E+05   -0.18531E+05  8160   0.280E+02
DAV:   3    -0.307551139051E+04   -0.33621E+04   -0.33443E+04  6912   0.125E+02
DAV:   4    -0.316813176465E+04   -0.92620E+02   -0.92256E+02  7296   0.240E+01
DAV:   5    -0.317006931346E+04   -0.19375E+01   -0.19347E+01  7488   0.321E+00    0.198E+02
DAV:   6    -0.155921525403E+04    0.16109E+04   -0.32514E+03  6816   0.446E+01    0.905E+01
DAV:   7    -0.169482924692E+04   -0.13561E+03   -0.41646E+02  7392   0.142E+01    0.630E+01
DAV:   8    -0.170701020574E+04   -0.12181E+02   -0.98154E+01  7200   0.637E+00    0.461E+01
DAV:   9    -0.182337283480E+04   -0.11636E+03   -0.63075E+01  7392   0.561E+00    0.385E+01
DAV:  10    -0.198493011330E+04   -0.16156E+03   -0.10126E+02  7392   0.584E+00    0.342E+01
DAV:  11    -0.217202749788E+04   -0.18710E+03   -0.71210E+01  7200   0.583E+00    0.282E+01
DAV:  12    -0.239161533157E+04   -0.21959E+03   -0.91042E+01  7104   0.689E+00    0.242E+01
DAV:  13    -0.264012435181E+04   -0.24851E+03   -0.14565E+02  6912   0.841E+00    0.188E+01
DAV:  14    -0.288093096016E+04   -0.24081E+03   -0.22617E+02  6624   0.886E+00    0.122E+01
DAV:  15    -0.293236187671E+04   -0.51431E+02   -0.30398E+01  7104   0.340E+00    0.103E+01
DAV:  16    -0.295564400734E+04   -0.23282E+02   -0.85564E+00  6816   0.203E+00    0.845E+00
DAV:  17    -0.296770558181E+04   -0.12062E+02   -0.32085E+00  7008   0.125E+00    0.706E+00
DAV:  18    -0.297637904361E+04   -0.86735E+01   -0.20120E+00  6816   0.101E+00    0.572E+00
DAV:  19    -0.298298954048E+04   -0.66105E+01   -0.17499E+00  7008   0.907E-01    0.443E+00
DAV:  20    -0.298784042687E+04   -0.48509E+01   -0.14862E+00  6528   0.773E-01    0.314E+00
DAV:  21    -0.299121926254E+04   -0.33788E+01   -0.74293E-01  6528   0.531E-01    0.213E+00
DAV:  22    -0.299188551886E+04   -0.66626E+00   -0.30874E-01  6816   0.366E-01    0.148E+00
DAV:  23    -0.299277127109E+04   -0.88575E+00   -0.11454E-01  6816   0.261E-01    0.927E-01
DAV:  24    -0.299463082104E+04   -0.18595E+01   -0.59032E-02  6720   0.221E-01    0.563E-01
DAV:  25    -0.299606031094E+04   -0.14295E+01   -0.30899E-02  7008   0.153E-01    0.408E-01
DAV:  26    -0.299688606726E+04   -0.82576E+00   -0.16763E-02  6912   0.103E-01    0.294E-01
DAV:  27    -0.299738099005E+04   -0.49492E+00   -0.89124E-03  7008   0.796E-02    0.168E-01
DAV:  28    -0.299770047424E+04   -0.31948E+00   -0.49747E-03  7008   0.654E-02    0.949E-02
DAV:  29    -0.299781367604E+04   -0.11320E+00   -0.15048E-03  7104   0.363E-02    0.579E-02
DAV:  30    -0.299784312126E+04   -0.29445E-01   -0.40288E-04  7104   0.181E-02    0.373E-02
DAV:  31    -0.299785446556E+04   -0.11344E-01   -0.15614E-04  7296   0.107E-02    0.213E-02
DAV:  32    -0.299786084576E+04   -0.63802E-02   -0.82001E-05  6720   0.862E-03    0.141E-02
DAV:  33    -0.299786375846E+04   -0.29127E-02   -0.27201E-05  6624   0.538E-03    0.108E-02
DAV:  34    -0.299786649995E+04   -0.27415E-02   -0.17562E-05  5760   0.388E-03    0.732E-03
DAV:  35    -0.299786844353E+04   -0.19436E-02   -0.14924E-05  6144   0.335E-03    0.523E-03
DAV:  36    -0.299786938574E+04   -0.94222E-03   -0.38519E-06  5472   0.230E-03    0.361E-03
DAV:  37    -0.299786982711E+04   -0.44136E-03   -0.71447E-07  5184   0.162E-03    0.292E-03
DAV:  38    -0.299786998104E+04   -0.15393E-03    0.14415E-06  5088   0.999E-04    0.267E-03
DAV:  39    -0.299787008456E+04   -0.10353E-03    0.18218E-06  5184   0.868E-04    0.243E-03
DAV:  40    -0.299787011292E+04   -0.28356E-04    0.23813E-06  5088   0.545E-04    0.237E-03
DAV:  41    -0.299787012961E+04   -0.16694E-04    0.25566E-06  5088   0.395E-04    0.233E-03
DAV:  42    -0.299787013844E+04   -0.88224E-05    0.26527E-06  5184   0.283E-04
   1 F= -.30367417E+04 E0= -.30367417E+04  d E =-.303674E+04  mag=    -0.0000
       N       E                     dE             d eps       ncg     rms          rms(c)
DAV:   1    -0.299786976245E+04    0.36716E-03   -0.72796E-02  5760   0.996E-02    0.889E-02
DAV:   2    -0.299786974887E+04    0.13585E-04   -0.34382E-04  6240   0.915E-03    0.483E-02
DAV:   3    -0.299786973944E+04    0.94306E-05   -0.91804E-05  6336   0.434E-03
   2 F= -.30367413E+04 E0= -.30367413E+04  d E =0.329468E-03  mag=    -0.0000
       N       E                     dE             d eps       ncg     rms          rms(c)
DAV:   1    -0.299787069441E+04   -0.94554E-03   -0.14980E-01  5760   0.140E-01    0.128E-01
DAV:   2    -0.299787069520E+04   -0.79174E-06   -0.10220E-03  6144   0.143E-02    0.745E-02
DAV:   3    -0.299787067897E+04    0.16231E-04   -0.72834E-04  6240   0.107E-02    0.662E-02
DAV:   4    -0.299787063631E+04    0.42655E-04   -0.31578E-04  6336   0.691E-03    0.230E-02
DAV:   5    -0.299787063483E+04    0.14880E-05   -0.57412E-05  6144   0.322E-03
   3 F= -.30367411E+04 E0= -.30367411E+04  d E =0.204301E-03  mag=    -0.0000
       N       E                     dE             d eps       ncg     rms          rms(c)
DAV:   1    -0.299787034926E+04    0.28706E-03   -0.14224E-01  5760   0.143E-01    0.114E-01
DAV:   2    -0.299787031916E+04    0.30094E-04   -0.67191E-04  6048   0.130E-02    0.605E-02
DAV:   3    -0.299787029941E+04    0.19749E-04   -0.10341E-04  6336   0.470E-03    0.379E-02
DAV:   4    -0.299787030700E+04   -0.75900E-05   -0.26408E-04  6336   0.607E-03    0.377E-02
DAV:   5    -0.299787028557E+04    0.21436E-04   -0.17229E-04  6240   0.494E-03    0.113E-02
DAV:   6    -0.299787028476E+04    0.80530E-06   -0.62641E-06  5376   0.143E-03
   4 F= -.30367414E+04 E0= -.30367414E+04  d E =-.269173E-03  mag=    -0.0000
       N       E                     dE             d eps       ncg     rms          rms(c)
DAV:   1    -0.299787051327E+04   -0.22771E-03   -0.14487E-01  6144   0.143E-01    0.116E-01
DAV:   2    -0.299787050299E+04    0.10283E-04   -0.76697E-04  6144   0.137E-02    0.644E-02
DAV:   3    -0.299787048515E+04    0.17843E-04   -0.22798E-04  6336   0.730E-03    0.444E-02
DAV:   4    -0.299787047143E+04    0.13715E-04   -0.15970E-04  5952   0.567E-03    0.298E-02
DAV:   5    -0.299787046320E+04    0.82323E-05   -0.59195E-05  6048   0.347E-03
   5 F= -.30367414E+04 E0= -.30367414E+04  d E =-.320966E-04  mag=    -0.0000
       N       E                     dE             d eps       ncg     rms          rms(c)
DAV:   1    -0.299786989698E+04    0.57446E-03   -0.14150E-01  6144   0.136E-01    0.995E-02
DAV:   2    -0.299786988525E+04    0.11731E-04   -0.66310E-04  6336   0.123E-02    0.585E-02
DAV:   3    -0.299786987261E+04    0.12632E-04   -0.24459E-04  6144   0.679E-03    0.359E-02
DAV:   4    -0.299786985910E+04    0.13515E-04   -0.19133E-04  6432   0.583E-03    0.280E-02
DAV:   5    -0.299786985128E+04    0.78180E-05   -0.43930E-05  6144   0.304E-03
   6 F= -.30367415E+04 E0= -.30367415E+04  d E =-.168933E-04  mag=    -0.0000
       N       E                     dE             d eps       ncg     rms          rms(c)
DAV:   1    -0.299786999760E+04   -0.13850E-03   -0.14509E-01  6144   0.137E-01    0.101E-01
DAV:   2    -0.299786997565E+04    0.21945E-04   -0.54188E-04  6240   0.115E-02    0.502E-02
DAV:   3    -0.299786995398E+04    0.21666E-04   -0.84185E-05  6336   0.435E-03    0.301E-02
DAV:   4    -0.299786995020E+04    0.37882E-05   -0.13949E-04  6528   0.525E-03    0.276E-02
DAV:   5    -0.299786994078E+04    0.94197E-05   -0.77418E-05  6144   0.348E-03
   7 F= -.30367413E+04 E0= -.30367413E+04  d E =0.125033E-03  mag=    -0.0000
       N       E                     dE             d eps       ncg     rms          rms(c)
DAV:   1    -0.299787016316E+04   -0.21296E-03   -0.14119E-01  6144   0.140E-01    0.120E-01
DAV:   2    -0.299787015646E+04    0.66977E-05   -0.84671E-04  6144   0.143E-02    0.719E-02
DAV:   3    -0.299787013903E+04    0.17430E-04   -0.29160E-04  6528   0.778E-03    0.446E-02
DAV:   4    -0.299787012710E+04    0.11931E-04   -0.23649E-04  6144   0.666E-03    0.374E-02
DAV:   5    -0.299787011213E+04    0.14969E-04   -0.77882E-05  6336   0.410E-03    0.901E-03
DAV:   6    -0.299787011221E+04   -0.81898E-07   -0.40078E-06  5376   0.142E-03
   8 F= -.30367415E+04 E0= -.30367415E+04  d E =-.123484E-03  mag=    -0.0000
       N       E                     dE             d eps       ncg     rms          rms(c)
DAV:   1    -0.299786995657E+04    0.15556E-03   -0.13947E-01  5760   0.132E-01    0.113E-01
DAV:   2    -0.299786994450E+04    0.12077E-04   -0.76294E-04  5760   0.125E-02    0.653E-02
DAV:   3    -0.299786993195E+04    0.12549E-04   -0.30555E-04  6336   0.725E-03    0.476E-02
DAV:   4    -0.299786991731E+04    0.14635E-04   -0.30824E-04  6336   0.662E-03    0.319E-02
DAV:   5    -0.299786990532E+04    0.11998E-04   -0.12935E-04  6144   0.421E-03    0.166E-02
DAV:   6    -0.299786990197E+04    0.33485E-05   -0.17039E-05  5952   0.187E-03
   9 F= -.30367414E+04 E0= -.30367414E+04  d E =0.602971E-04  mag=    -0.0000
       N       E                     dE             d eps       ncg     rms          rms(c)
DAV:   1    -0.299787014292E+04   -0.23761E-03   -0.14469E-01  5760   0.133E-01    0.106E-01
DAV:   2    -0.299787010535E+04    0.37574E-04   -0.75521E-04  5760   0.126E-02    0.596E-02
DAV:   3    -0.299787009196E+04    0.13389E-04   -0.29741E-04  6432   0.769E-03    0.462E-02
DAV:   4    -0.299787007005E+04    0.21914E-04   -0.24430E-04  6336   0.635E-03    0.271E-02
DAV:   5    -0.299787006371E+04    0.63333E-05   -0.94984E-05  6144   0.370E-03
  10 F= -.30367414E+04 E0= -.30367414E+04  d E =0.227867E-04  mag=    -0.0000
       N       E                     dE             d eps       ncg     rms          rms(c)
DAV:   1    -0.299786980114E+04    0.26890E-03   -0.14424E-01  5760   0.148E-01    0.119E-01
DAV:   2    -0.299786976299E+04    0.38152E-04   -0.72694E-04  5856   0.126E-02    0.700E-02
DAV:   3    -0.299786973466E+04    0.28328E-04   -0.10610E-04  6144   0.480E-03    0.382E-02
DAV:   4    -0.299786972935E+04    0.53129E-05   -0.14265E-04  6144   0.591E-03    0.364E-02
DAV:   5    -0.299786971562E+04    0.13731E-04   -0.74227E-05  6336   0.389E-03    0.107E-02
DAV:   6    -0.299786971555E+04    0.67055E-07   -0.68926E-06  5184   0.124E-03
  11 F= -.30367413E+04 E0= -.30367413E+04  d E =0.961605E-04  mag=    -0.0000
       N       E                     dE             d eps       ncg     rms          rms(c)
DAV:   1    -0.299786917648E+04    0.53914E-03   -0.14089E-01  5760   0.145E-01    0.116E-01
DAV:   2    -0.299786913000E+04    0.46481E-04   -0.72893E-04  5952   0.125E-02    0.642E-02
DAV:   3    -0.299786909778E+04    0.32222E-04   -0.74921E-05  6144   0.371E-03    0.347E-02
DAV:   4    -0.299786909102E+04    0.67548E-05   -0.76683E-05  5760   0.410E-03
  12 F= -.30367412E+04 E0= -.30367412E+04  d E =0.600008E-04  mag=    -0.0000
       N       E                     dE             d eps       ncg     rms          rms(c)
DAV:   1    -0.299787020462E+04   -0.11068E-02   -0.14240E-01  5760   0.143E-01    0.127E-01
DAV:   2    -0.299787011907E+04    0.85550E-04   -0.94592E-04  6144   0.144E-02    0.795E-02
DAV:   3    -0.299787007938E+04    0.39691E-04   -0.14967E-04  6336   0.548E-03    0.427E-02
DAV:   4    -0.299787007641E+04    0.29606E-05   -0.21622E-04  6336   0.721E-03    0.398E-02
DAV:   5    -0.299787005655E+04    0.19865E-04   -0.10921E-04  6144   0.469E-03    0.132E-02
DAV:   6    -0.299787005643E+04    0.11956E-06   -0.40062E-06  5376   0.125E-03
  13 F= -.30367413E+04 E0= -.30367413E+04  d E =-.746144E-04  mag=    -0.0000
       N       E                     dE             d eps       ncg     rms          rms(c)
DAV:   1    -0.299786962702E+04    0.42953E-03   -0.14130E-01  5760   0.150E-01    0.123E-01
DAV:   2    -0.299786958283E+04    0.44189E-04   -0.90343E-04  5952   0.141E-02    0.748E-02
DAV:   3    -0.299786955341E+04    0.29418E-04   -0.16028E-04  6336   0.563E-03    0.453E-02
DAV:   4    -0.299786955646E+04   -0.30465E-05   -0.29919E-04  6336   0.690E-03    0.430E-02
DAV:   5    -0.299786953140E+04    0.25053E-04   -0.19525E-04  6336   0.543E-03    0.141E-02
DAV:   6    -0.299786953030E+04    0.11075E-05   -0.18967E-05  5568   0.188E-03
  14 F= -.30367414E+04 E0= -.30367414E+04  d E =-.780029E-04  mag=    -0.0000
       N       E                     dE             d eps       ncg     rms          rms(c)
DAV:   1    -0.299787009934E+04   -0.56794E-03   -0.14228E-01  5760   0.143E-01    0.117E-01
DAV:   2    -0.299787005342E+04    0.45918E-04   -0.80925E-04  5952   0.128E-02    0.850E-02
DAV:   3    -0.299787002686E+04    0.26567E-04   -0.21644E-04  6336   0.626E-03    0.438E-02
DAV:   4    -0.299787001774E+04    0.91196E-05   -0.23449E-04  5952   0.706E-03    0.442E-02
DAV:   5    -0.299786999847E+04    0.19263E-04   -0.79886E-05  6336   0.413E-03    0.109E-02
DAV:   6    -0.299786999869E+04   -0.21426E-06   -0.16677E-07  4992   0.972E-04
  15 F= -.30367413E+04 E0= -.30367413E+04  d E =0.608825E-04  mag=    -0.0000
       N       E                     dE             d eps       ncg     rms          rms(c)
DAV:   1    -0.299787024524E+04   -0.24677E-03   -0.14476E-01  5568   0.142E-01    0.116E-01
DAV:   2    -0.299787020787E+04    0.37371E-04   -0.83385E-04  5952   0.126E-02    0.823E-02
DAV:   3    -0.299787017974E+04    0.28126E-04   -0.30510E-04  6240   0.754E-03    0.470E-02
DAV:   4    -0.299787016090E+04    0.18847E-04   -0.23523E-04  5952   0.675E-03    0.365E-02
DAV:   5    -0.299787014793E+04    0.12970E-04   -0.75415E-05  6144   0.397E-03    0.116E-02
DAV:   6    -0.299787014728E+04    0.64576E-06   -0.89985E-06  5568   0.144E-03
  16 F= -.30367414E+04 E0= -.30367414E+04  d E =-.446758E-04  mag=    -0.0000
       N       E                     dE             d eps       ncg     rms          rms(c)
DAV:   1    -0.299786950060E+04    0.64733E-03   -0.14183E-01  5952   0.149E-01    0.121E-01
DAV:   2    -0.299786947043E+04    0.30166E-04   -0.85617E-04  6528   0.138E-02    0.728E-02
DAV:   3    -0.299786944912E+04    0.21318E-04   -0.17895E-04  6336   0.602E-03    0.447E-02
DAV:   4    -0.299786945347E+04   -0.43589E-05   -0.36863E-04  6336   0.750E-03    0.423E-02
DAV:   5    -0.299786942781E+04    0.25663E-04   -0.21228E-04  6336   0.549E-03    0.139E-02
DAV:   6    -0.299786942658E+04    0.12271E-05   -0.13389E-05  5568   0.172E-03
  17 F= -.30367413E+04 E0= -.30367413E+04  d E =0.739773E-04  mag=    -0.0000
       N       E                     dE             d eps       ncg     rms          rms(c)
DAV:   1    -0.299786953196E+04   -0.10415E-03   -0.13991E-01  5952   0.146E-01    0.120E-01
DAV:   2    -0.299786950003E+04    0.31929E-04   -0.66422E-04  6336   0.125E-02    0.720E-02
DAV:   3    -0.299786947962E+04    0.20415E-04   -0.14300E-04  6336   0.549E-03    0.432E-02
DAV:   4    -0.299786948320E+04   -0.35888E-05   -0.28457E-04  6336   0.685E-03    0.394E-02
DAV:   5    -0.299786946113E+04    0.22073E-04   -0.15865E-04  6432   0.495E-03    0.134E-02
DAV:   6    -0.299786946002E+04    0.11118E-05   -0.99175E-06  5568   0.146E-03
  18 F= -.30367413E+04 E0= -.30367413E+04  d E =0.117887E-04  mag=    -0.0000
       N       E                     dE             d eps       ncg     rms          rms(c)
DAV:   1    -0.299787015461E+04   -0.69348E-03   -0.14180E-01  5568   0.146E-01    0.112E-01
DAV:   2    -0.299787013111E+04    0.23498E-04   -0.54459E-04  6528   0.113E-02    0.645E-02
DAV:   3    -0.299787011339E+04    0.17719E-04   -0.15983E-04  5760   0.552E-03    0.394E-02
DAV:   4    -0.299787010919E+04    0.42007E-05   -0.25641E-04  6336   0.655E-03    0.327E-02
DAV:   5    -0.299787009605E+04    0.13140E-04   -0.11506E-04  6144   0.406E-03    0.118E-02
DAV:   6    -0.299787009466E+04    0.13974E-05   -0.73805E-06  5376   0.127E-03
  19 F= -.30367413E+04 E0= -.30367413E+04  d E =-.713738E-04  mag=    -0.0000
       N       E                     dE             d eps       ncg     rms          rms(c)
DAV:   1    -0.299787032690E+04   -0.23085E-03   -0.97351E-02  5952   0.119E-01    0.102E-01
DAV:   2    -0.299787034193E+04   -0.15026E-04   -0.86182E-04  6336   0.154E-02    0.785E-02
DAV:   3    -0.299787032516E+04    0.16763E-04   -0.17173E-04  6336   0.549E-03    0.415E-02
DAV:   4    -0.299787033939E+04   -0.14227E-04   -0.33697E-04  6144   0.692E-03    0.503E-02
DAV:   5    -0.299787031128E+04    0.28107E-04   -0.20866E-04  6144   0.535E-03    0.142E-02
DAV:   6    -0.299787030888E+04    0.24035E-05   -0.16813E-05  5952   0.187E-03
  20 F= -.30367416E+04 E0= -.30367416E+04  d E =-.263469E-03  mag=    -0.0000
       N       E                     dE             d eps       ncg     rms          rms(c)
DAV:   1    -0.299786991313E+04    0.39816E-03   -0.51636E-02  5376   0.751E-02    0.724E-02
DAV:   2    -0.299786995838E+04   -0.45251E-04   -0.85407E-04  5952   0.161E-02    0.832E-02
DAV:   3    -0.299786994282E+04    0.15560E-04   -0.64576E-05  6144   0.340E-03    0.557E-02
DAV:   4    -0.299786996193E+04   -0.19113E-04   -0.10250E-04  5952   0.384E-03    0.466E-02
DAV:   5    -0.299786994385E+04    0.18077E-04   -0.15203E-04  6336   0.449E-03    0.162E-02
DAV:   6    -0.299786994097E+04    0.28808E-05   -0.16289E-05  5568   0.178E-03
  21 F= -.30367416E+04 E0= -.30367416E+04  d E =-.181911E-04  mag=    -0.0000
       N       E                     dE             d eps       ncg     rms          rms(c)
DAV:   1    -0.299787021495E+04   -0.27109E-03   -0.51512E-02  5280   0.723E-02    0.763E-02
DAV:   2    -0.299787024843E+04   -0.33483E-04   -0.86495E-04  5760   0.162E-02    0.827E-02
DAV:   3    -0.299787023252E+04    0.15913E-04   -0.57956E-05  6144   0.397E-03    0.514E-02
DAV:   4    -0.299787023905E+04   -0.65319E-05   -0.41433E-05  5952   0.325E-03
  22 F= -.30367415E+04 E0= -.30367415E+04  d E =0.160959E-03  mag=    -0.0000
       N       E                     dE             d eps       ncg     rms          rms(c)
DAV:   1    -0.299787035436E+04   -0.12184E-03   -0.51869E-02  5952   0.815E-02    0.861E-02
DAV:   2    -0.299787044051E+04   -0.86151E-04   -0.14732E-03  5952   0.207E-02    0.112E-01
DAV:   3    -0.299787040235E+04    0.38158E-04   -0.13817E-04  6336   0.524E-03    0.709E-02
DAV:   4    -0.299787044184E+04   -0.39493E-04   -0.20856E-04  5952   0.534E-03    0.659E-02
DAV:   5    -0.299787040157E+04    0.40272E-04   -0.29442E-04  6528   0.598E-03    0.278E-02
DAV:   6    -0.299787039654E+04    0.50342E-05   -0.25025E-05  6144   0.235E-03
  23 F= -.30367416E+04 E0= -.30367416E+04  d E =-.176579E-03  mag=    -0.0000
       N       E                     dE             d eps       ncg     rms          rms(c)
DAV:   1    -0.299786963535E+04    0.76623E-03   -0.52111E-02  5760   0.804E-02    0.904E-02
DAV:   2    -0.299786967422E+04   -0.38874E-04   -0.94334E-04  6144   0.180E-02    0.910E-02
DAV:   3    -0.299786964853E+04    0.25689E-04   -0.25856E-04  6144   0.615E-03    0.482E-02
DAV:   4    -0.299786968660E+04   -0.38072E-04   -0.38835E-04  6336   0.696E-03    0.606E-02
DAV:   5    -0.299786964719E+04    0.39416E-04   -0.26180E-04  6336   0.575E-03    0.212E-02
DAV:   6    -0.299786964345E+04    0.37417E-05   -0.18382E-05  5952   0.223E-03
  24 F= -.30367415E+04 E0= -.30367415E+04  d E =0.177682E-03  mag=    -0.0000
       N       E                     dE             d eps       ncg     rms          rms(c)
DAV:   1    -0.299787022586E+04   -0.57867E-03   -0.51846E-02  5568   0.777E-02    0.737E-02
DAV:   2    -0.299787026266E+04   -0.36798E-04   -0.80002E-04  6336   0.169E-02    0.836E-02
DAV:   3    -0.299787024270E+04    0.19962E-04   -0.90314E-05  6144   0.428E-03    0.501E-02
DAV:   4    -0.299787026603E+04   -0.23334E-04   -0.15848E-04  6144   0.470E-03    0.544E-02
DAV:   5    -0.299787024186E+04    0.24166E-04   -0.19396E-04  6144   0.485E-03    0.229E-02
DAV:   6    -0.299787023694E+04    0.49237E-05   -0.23046E-05  6144   0.217E-03
  25 F= -.30367416E+04 E0= -.30367416E+04  d E =-.163745E-03  mag=    -0.0000
       N       E                     dE             d eps       ncg     rms          rms(c)
DAV:   1    -0.299787001796E+04    0.22390E-03   -0.50230E-02  5952   0.794E-02    0.501E-02
DAV:   2    -0.299787006548E+04   -0.47516E-04   -0.57718E-04  6336   0.149E-02    0.587E-02
DAV:   3    -0.299787006152E+04    0.39615E-05   -0.15459E-05  6240   0.218E-03
  26 F= -.30367415E+04 E0= -.30367415E+04  d E =0.119814E-03  mag=    -0.0000
       N       E                     dE             d eps       ncg     rms          rms(c)
DAV:   1    -0.299786997109E+04    0.94393E-04   -0.51653E-02  5952   0.791E-02    0.739E-02
DAV:   2    -0.299787004817E+04   -0.77079E-04   -0.12957E-03  6144   0.198E-02    0.997E-02
DAV:   3    -0.299787000010E+04    0.48068E-04   -0.15199E-04  6048   0.542E-03    0.599E-02
DAV:   4    -0.299787001297E+04   -0.12869E-04   -0.53675E-05  6144   0.312E-03    0.446E-02
DAV:   5    -0.299786999604E+04    0.16930E-04   -0.10359E-04  6336   0.417E-03    0.131E-02
DAV:   6    -0.299786999364E+04    0.24021E-05   -0.74427E-06  5376   0.157E-03
  27 F= -.30367415E+04 E0= -.30367415E+04  d E =-.283960E-04  mag=    -0.0000
       N       E                     dE             d eps       ncg     rms          rms(c)
DAV:   1    -0.299786985540E+04    0.14064E-03   -0.52897E-02  5952   0.788E-02    0.101E-01
DAV:   2    -0.299786990874E+04   -0.53341E-04   -0.86807E-04  6336   0.181E-02    0.101E-01
DAV:   3    -0.299786989364E+04    0.15101E-04   -0.88517E-05  5952   0.446E-03    0.628E-02
DAV:   4    -0.299786992747E+04   -0.33829E-04   -0.20958E-04  6336   0.571E-03    0.513E-02
DAV:   5    -0.299786989904E+04    0.28428E-04   -0.24039E-04  6336   0.556E-03    0.181E-02
DAV:   6    -0.299786989448E+04    0.45634E-05   -0.26533E-05  5952   0.206E-03
  28 F= -.30367414E+04 E0= -.30367414E+04  d E =0.906127E-04  mag=    -0.0000
       N       E                     dE             d eps       ncg     rms          rms(c)
DAV:   1    -0.299787022523E+04   -0.32619E-03   -0.52087E-02  5952   0.845E-02    0.107E-01
DAV:   2    -0.299787028258E+04   -0.57348E-04   -0.11577E-03  6144   0.215E-02    0.112E-01
DAV:   3    -0.299787025666E+04    0.25920E-04   -0.11233E-04  6144   0.542E-03    0.665E-02
DAV:   4    -0.299787027959E+04   -0.22924E-04   -0.11547E-04  6144   0.528E-03    0.635E-02
DAV:   5    -0.299787025231E+04    0.27278E-04   -0.14192E-04  6528   0.557E-03    0.169E-02
DAV:   6    -0.299787024969E+04    0.26202E-05   -0.16175E-05  5952   0.187E-03
  29 F= -.30367415E+04 E0= -.30367415E+04  d E =-.874758E-04  mag=    -0.0000
       N       E                     dE             d eps       ncg     rms          rms(c)
DAV:   1    -0.299786991931E+04    0.33300E-03   -0.51662E-02  5568   0.778E-02    0.697E-02
DAV:   2    -0.299786994803E+04   -0.28717E-04   -0.58684E-04  6144   0.160E-02    0.697E-02
DAV:   3    -0.299786993648E+04    0.11548E-04   -0.48369E-05  6144   0.381E-03    0.375E-02
DAV:   4    -0.299786994754E+04   -0.11060E-04   -0.54082E-05  6336   0.391E-03    0.428E-02
DAV:   5    -0.299786993600E+04    0.11535E-04   -0.60269E-05  6336   0.378E-03    0.103E-02
DAV:   6    -0.299786993499E+04    0.10156E-05   -0.88513E-06  5376   0.131E-03
  30 F= -.30367416E+04 E0= -.30367416E+04  d E =-.982003E-04  mag=    -0.0000
       N       E                     dE             d eps       ncg     rms          rms(c)
DAV:   1    -0.299787019595E+04   -0.25995E-03   -0.52832E-02  5760   0.769E-02    0.592E-02
DAV:   2    -0.299787020941E+04   -0.13460E-04   -0.77204E-04  6144   0.173E-02    0.846E-02
DAV:   3    -0.299787019299E+04    0.16420E-04   -0.40865E-05  6144   0.310E-03    0.630E-02
DAV:   4    -0.299787019333E+04   -0.33330E-06   -0.17481E-05  5952   0.190E-03
  31 F= -.30367416E+04 E0= -.30367416E+04  d E =0.495798E-04  mag=    -0.0000
       N       E                     dE             d eps       ncg     rms          rms(c)
DAV:   1    -0.299786983853E+04    0.35446E-03   -0.51701E-02  5760   0.827E-02    0.608E-02
DAV:   2    -0.299786991094E+04   -0.72410E-04   -0.11531E-03  6336   0.192E-02    0.803E-02
DAV:   3    -0.299786987571E+04    0.35227E-04   -0.16867E-04  6336   0.530E-03    0.452E-02
DAV:   4    -0.299786988994E+04   -0.14232E-04   -0.90051E-05  6144   0.347E-03    0.442E-02
DAV:   5    -0.299786987549E+04    0.14451E-04   -0.12589E-04  6336   0.415E-03    0.205E-02
DAV:   6    -0.299786987176E+04    0.37285E-05   -0.15598E-05  5760   0.197E-03
  32 F= -.30367415E+04 E0= -.30367415E+04  d E =0.292130E-04  mag=    -0.0000
       N       E                     dE             d eps       ncg     rms          rms(c)
DAV:   1    -0.299787001069E+04   -0.13520E-03   -0.50802E-02  5952   0.818E-02    0.627E-02
DAV:   2    -0.299787005476E+04   -0.44063E-04   -0.72881E-04  6336   0.167E-02    0.761E-02
DAV:   3    -0.299787003735E+04    0.17411E-04   -0.60103E-05  5952   0.329E-03    0.526E-02
DAV:   4    -0.299787005351E+04   -0.16169E-04   -0.82960E-05  5952   0.346E-03    0.385E-02
DAV:   5    -0.299787003624E+04    0.17275E-04   -0.13952E-04  6336   0.421E-03    0.153E-02
DAV:   6    -0.299787003330E+04    0.29434E-05   -0.10346E-05  5376   0.158E-03
  33 F= -.30367415E+04 E0= -.30367415E+04  d E =0.453940E-04  mag=    -0.0000
       N       E                     dE             d eps       ncg     rms          rms(c)
DAV:   1    -0.299786984964E+04    0.18660E-03   -0.53332E-02  5664   0.819E-02    0.899E-02
DAV:   2    -0.299786990769E+04   -0.58057E-04   -0.81053E-04  6528   0.184E-02    0.989E-02
DAV:   3    -0.299786989203E+04    0.15666E-04   -0.74470E-05  5952   0.402E-03    0.661E-02
DAV:   4    -0.299786993906E+04   -0.47036E-04   -0.25486E-04  6144   0.611E-03    0.630E-02
DAV:   5    -0.299786989810E+04    0.40969E-04   -0.31649E-04  6720   0.642E-03    0.197E-02
DAV:   6    -0.299786989366E+04    0.44336E-05   -0.21573E-05  5952   0.208E-03
  34 F= -.30367414E+04 E0= -.30367414E+04  d E =0.736461E-04  mag=    -0.0000
       N       E                     dE             d eps       ncg     rms          rms(c)
DAV:   1    -0.299787010804E+04   -0.20995E-03   -0.51052E-02  5760   0.800E-02    0.760E-02
DAV:   2    -0.299787016657E+04   -0.58526E-04   -0.77373E-04  6336   0.173E-02    0.774E-02
DAV:   3    -0.299787015682E+04    0.97510E-05   -0.56098E-05  5952   0.365E-03
  35 F= -.30367416E+04 E0= -.30367416E+04  d E =-.185389E-03  mag=    -0.0000
       N       E                     dE             d eps       ncg     rms          rms(c)
DAV:   1    -0.299786991681E+04    0.24976E-03   -0.49136E-02  5376   0.712E-02    0.658E-02
DAV:   2    -0.299786998911E+04   -0.72299E-04   -0.12203E-03  5952   0.168E-02    0.555E-02
DAV:   3    -0.299786994693E+04    0.42181E-04   -0.51742E-04  6240   0.897E-03    0.369E-02
DAV:   4    -0.299786993875E+04    0.81790E-05   -0.44015E-05  5952   0.249E-03
  36 F= -.30367416E+04 E0= -.30367416E+04  d E =0.398790E-04  mag=    -0.0000
       N       E                     dE             d eps       ncg     rms          rms(c)
DAV:   1    -0.299787016802E+04   -0.22109E-03   -0.51286E-02  5568   0.760E-02    0.102E-01
DAV:   2    -0.299787023041E+04   -0.62392E-04   -0.10494E-03  5952   0.173E-02    0.952E-02
DAV:   3    -0.299787021162E+04    0.18787E-04   -0.15647E-04  6336   0.524E-03    0.517E-02
DAV:   4    -0.299787023906E+04   -0.27435E-04   -0.24725E-04  6336   0.624E-03    0.559E-02
DAV:   5    -0.299787020778E+04    0.31275E-04   -0.17428E-04  6336   0.511E-03    0.144E-02
DAV:   6    -0.299787020567E+04    0.21071E-05   -0.64806E-06  5568   0.148E-03
  37 F= -.30367414E+04 E0= -.30367414E+04  d E =0.171807E-03  mag=    -0.0000
       N       E                     dE             d eps       ncg     rms          rms(c)
DAV:   1    -0.299786990653E+04    0.30125E-03   -0.52697E-02  5376   0.820E-02    0.958E-02
DAV:   2    -0.299786997613E+04   -0.69599E-04   -0.13894E-03  6336   0.211E-02    0.115E-01
DAV:   3    -0.299786993672E+04    0.39409E-04   -0.15814E-04  6048   0.556E-03    0.711E-02
DAV:   4    -0.299786997506E+04   -0.38342E-04   -0.18271E-04  6144   0.519E-03    0.666E-02
DAV:   5    -0.299786994153E+04    0.33537E-04   -0.29171E-04  6336   0.608E-03    0.290E-02
DAV:   6    -0.299786993428E+04    0.72477E-05   -0.48621E-05  6336   0.274E-03
  38 F= -.30367416E+04 E0= -.30367416E+04  d E =-.153843E-03  mag=    -0.0000
       N       E                     dE             d eps       ncg     rms          rms(c)
DAV:   1    -0.299787029993E+04   -0.35841E-03   -0.52486E-02  5184   0.720E-02    0.574E-02
DAV:   2    -0.299787033269E+04   -0.32751E-04   -0.62343E-04  5760   0.137E-02    0.545E-02
DAV:   3    -0.299787032320E+04    0.94856E-05   -0.74064E-05  6336   0.375E-03
  39 F= -.30367415E+04 E0= -.30367415E+04  d E =0.244133E-04  mag=    -0.0000
       N       E                     dE             d eps       ncg     rms          rms(c)
DAV:   1    -0.299787037726E+04   -0.44577E-04   -0.51595E-02  4992   0.665E-02    0.399E-02
DAV:   2    -0.299787042004E+04   -0.42778E-04   -0.64418E-04  5760   0.119E-02    0.365E-02
DAV:   3    -0.299787040223E+04    0.17812E-04   -0.16944E-04  5760   0.504E-03    0.183E-02
DAV:   4    -0.299787040016E+04    0.20698E-05   -0.15645E-05  5568   0.160E-03
  40 F= -.30367416E+04 E0= -.30367416E+04  d E =-.582752E-04  mag=    -0.0000
       N       E                     dE             d eps       ncg     rms          rms(c)
DAV:   1    -0.299786997818E+04    0.42404E-03   -0.52148E-02  5376   0.758E-02    0.671E-02
DAV:   2    -0.299787004194E+04   -0.63754E-04   -0.10211E-03  5760   0.179E-02    0.769E-02
DAV:   3    -0.299787002326E+04    0.18675E-04   -0.83746E-05  6336   0.456E-03    0.439E-02
DAV:   4    -0.299787003605E+04   -0.12783E-04   -0.73731E-05  6144   0.378E-03    0.451E-02
DAV:   5    -0.299787002535E+04    0.10699E-04   -0.11810E-04  6336   0.421E-03    0.183E-02
DAV:   6    -0.299787002223E+04    0.31220E-05   -0.23566E-05  5760   0.195E-03
  41 F= -.30367415E+04 E0= -.30367415E+04  d E =0.404520E-04  mag=    -0.0000
       N       E                     dE             d eps       ncg     rms          rms(c)
DAV:   1    -0.299787032301E+04   -0.29766E-03   -0.53185E-02  5280   0.722E-02    0.735E-02
DAV:   2    -0.299787036041E+04   -0.37397E-04   -0.75568E-04  5760   0.162E-02    0.828E-02
DAV:   3    -0.299787034416E+04    0.16242E-04   -0.65285E-05  6144   0.389E-03    0.508E-02
DAV:   4    -0.299787036650E+04   -0.22340E-04   -0.13854E-04  6336   0.469E-03    0.530E-02
DAV:   5    -0.299787034315E+04    0.23349E-04   -0.19147E-04  6336   0.498E-03    0.206E-02
DAV:   6    -0.299787033905E+04    0.41092E-05   -0.16949E-05  6144   0.191E-03
  42 F= -.30367415E+04 E0= -.30367415E+04  d E =0.442926E-04  mag=    -0.0000
       N       E                     dE             d eps       ncg     rms          rms(c)
DAV:   1    -0.299787025461E+04    0.88547E-04   -0.52685E-02  5184   0.705E-02    0.530E-02
DAV:   2    -0.299787027919E+04   -0.24587E-04   -0.62680E-04  6144   0.143E-02    0.649E-02
DAV:   3    -0.299787026744E+04    0.11750E-04   -0.47243E-05  6048   0.287E-03    0.434E-02
DAV:   4    -0.299787027903E+04   -0.11583E-04   -0.59206E-05  6144   0.295E-03    0.367E-02
DAV:   5    -0.299787026871E+04    0.10316E-04   -0.10324E-04  6336   0.374E-03    0.156E-02
DAV:   6    -0.299787026652E+04    0.21913E-05   -0.11733E-05  5280   0.152E-03
  43 F= -.30367416E+04 E0= -.30367416E+04  d E =-.827956E-04  mag=    -0.0000
       N       E                     dE             d eps       ncg     rms          rms(c)
DAV:   1    -0.299787015702E+04    0.11169E-03   -0.53477E-02  5472   0.723E-02    0.750E-02
DAV:   2    -0.299787018919E+04   -0.32163E-04   -0.11597E-03  5760   0.164E-02    0.796E-02
DAV:   3    -0.299787015838E+04    0.30811E-04   -0.10796E-04  5952   0.561E-03    0.372E-02
DAV:   4    -0.299787016119E+04   -0.28088E-05   -0.31479E-05  6144   0.318E-03
  44 F= -.30367414E+04 E0= -.30367414E+04  d E =0.151897E-03  mag=    -0.0000
       N       E                     dE             d eps       ncg     rms          rms(c)
DAV:   1    -0.299787031548E+04   -0.15710E-03   -0.50303E-02  5376   0.626E-02    0.473E-02
DAV:   2    -0.299787036359E+04   -0.48107E-04   -0.80229E-04  5760   0.135E-02    0.654E-02
DAV:   3    -0.299787034363E+04    0.19959E-04   -0.50322E-05  5760   0.388E-03    0.349E-02
DAV:   4    -0.299787034559E+04   -0.19575E-05   -0.85708E-06  5568   0.161E-03
  45 F= -.30367417E+04 E0= -.30367417E+04  d E =-.266295E-03  mag=    -0.0000
       N       E                     dE             d eps       ncg     rms          rms(c)
DAV:   1    -0.299787019816E+04    0.14547E-03   -0.50621E-02  5376   0.587E-02    0.348E-02
DAV:   2    -0.299787023667E+04   -0.38511E-04   -0.54214E-04  5760   0.109E-02    0.424E-02
DAV:   3    -0.299787022621E+04    0.10453E-04   -0.38306E-05  5952   0.320E-03    0.213E-02
DAV:   4    -0.299787022696E+04   -0.74803E-06   -0.11788E-05  5568   0.159E-03
  46 F= -.30367415E+04 E0= -.30367415E+04  d E =0.173627E-03  mag=    -0.0000
       N       E                     dE             d eps       ncg     rms          rms(c)
DAV:   1    -0.299787002905E+04    0.19716E-03   -0.51263E-02  5568   0.675E-02    0.588E-02
DAV:   2    -0.299787010518E+04   -0.76128E-04   -0.11308E-03  6144   0.172E-02    0.946E-02
DAV:   3    -0.299787006555E+04    0.39626E-04   -0.76987E-05  5760   0.494E-03    0.519E-02
DAV:   4    -0.299787006791E+04   -0.23554E-05   -0.13966E-05  5568   0.195E-03
  47 F= -.30367416E+04 E0= -.30367416E+04  d E =-.999760E-04  mag=    -0.0000
       N       E                     dE             d eps       ncg     rms          rms(c)
DAV:   1    -0.299787032573E+04   -0.26018E-03   -0.51999E-02  5856   0.676E-02    0.614E-02
DAV:   2    -0.299787036598E+04   -0.40257E-04   -0.10614E-03  6336   0.184E-02    0.976E-02
DAV:   3    -0.299787031751E+04    0.48471E-04   -0.98719E-05  6144   0.534E-03    0.544E-02
DAV:   4    -0.299787032176E+04   -0.42519E-05   -0.43938E-05  6048   0.273E-03
  48 F= -.30367415E+04 E0= -.30367415E+04  d E =0.823443E-04  mag=    -0.0000
       N       E                     dE             d eps       ncg     rms          rms(c)
DAV:   1    -0.299787023012E+04    0.87397E-04   -0.57605E-02  5760   0.748E-02    0.109E-01
DAV:   2    -0.299787028385E+04   -0.53739E-04   -0.27518E-03  6528   0.293E-02    0.179E-01
DAV:   3    -0.299787014702E+04    0.13684E-03   -0.23227E-04  6144   0.833E-03    0.108E-01
DAV:   4    -0.299787015951E+04   -0.12489E-04   -0.57684E-05  6336   0.360E-03    0.926E-02
DAV:   5    -0.299787012909E+04    0.30418E-04   -0.16409E-04  6912   0.593E-03    0.357E-02
DAV:   6    -0.299787012310E+04    0.59858E-05   -0.75834E-05  6336   0.361E-03
  49 F= -.30367415E+04 E0= -.30367415E+04  d E =0.709527E-04  mag=    -0.0000
       N       E                     dE             d eps       ncg     rms          rms(c)
DAV:   1    -0.299786978961E+04    0.33948E-03   -0.53348E-02  5568   0.753E-02    0.707E-02
DAV:   2    -0.299786984422E+04   -0.54610E-04   -0.12798E-03  6720   0.202E-02    0.108E-01
DAV:   3    -0.299786980355E+04    0.40665E-04   -0.76560E-05  6144   0.496E-03    0.693E-02
DAV:   4    -0.299786980920E+04   -0.56518E-05   -0.32025E-05  5952   0.268E-03
  50 F= -.30367417E+04 E0= -.30367417E+04  d E =-.176670E-03  mag=    -0.0000
       N       E                     dE             d eps       ncg     rms          rms(c)
DAV:   1    -0.299786984788E+04   -0.44324E-04   -0.52956E-02  5376   0.669E-02    0.536E-02
DAV:   2    -0.299786991364E+04   -0.65759E-04   -0.96940E-04  5952   0.150E-02    0.635E-02
DAV:   3    -0.299786989356E+04    0.20078E-04   -0.11330E-04  6336   0.441E-03    0.368E-02
DAV:   4    -0.299786990060E+04   -0.70409E-05   -0.65313E-05  6144   0.289E-03
  51 F= -.30367415E+04 E0= -.30367415E+04  d E =0.170761E-03  mag=    -0.0000
       N       E                     dE             d eps       ncg     rms          rms(c)
DAV:   1    -0.299787018338E+04   -0.28982E-03   -0.53327E-02  5472   0.722E-02    0.730E-02
DAV:   2    -0.299787025103E+04   -0.67650E-04   -0.10250E-03  5760   0.160E-02    0.821E-02
DAV:   3    -0.299787023786E+04    0.13166E-04   -0.56164E-05  6144   0.348E-03    0.576E-02
DAV:   4    -0.299787025625E+04   -0.18387E-04   -0.11788E-04  5952   0.434E-03    0.488E-02
DAV:   5    -0.299787023505E+04    0.21205E-04   -0.18390E-04  6528   0.509E-03    0.170E-02
DAV:   6    -0.299787023158E+04    0.34614E-05   -0.18448E-05  5760   0.172E-03
  52 F= -.30367414E+04 E0= -.30367414E+04  d E =0.436786E-04  mag=    -0.0000
       N       E                     dE             d eps       ncg     rms          rms(c)
DAV:   1    -0.299786968602E+04    0.54903E-03   -0.54009E-02  5376   0.731E-02    0.991E-02
DAV:   2    -0.299786976588E+04   -0.79866E-04   -0.16546E-03  5760   0.219E-02    0.142E-01
DAV:   3    -0.299786970329E+04    0.62588E-04   -0.14202E-04  5952   0.585E-03    0.896E-02
DAV:   4    -0.299786972433E+04   -0.21038E-04   -0.56126E-05  5952   0.372E-03    0.689E-02
DAV:   5    -0.299786969892E+04    0.25410E-04   -0.13936E-04  6912   0.506E-03    0.225E-02
DAV:   6    -0.299786969563E+04    0.32883E-05   -0.17750E-05  5760   0.195E-03
  53 F= -.30367415E+04 E0= -.30367415E+04  d E =-.297715E-04  mag=    -0.0000
       N       E                     dE             d eps       ncg     rms          rms(c)
DAV:   1    -0.299787038079E+04   -0.68187E-03   -0.57107E-02  5376   0.699E-02    0.113E-01
DAV:   2    -0.299787046462E+04   -0.83827E-04   -0.33168E-03  5952   0.268E-02    0.186E-01
DAV:   3    -0.299787029849E+04    0.16613E-03   -0.33403E-04  5952   0.801E-03    0.113E-01
DAV:   4    -0.299787028993E+04    0.85584E-05   -0.75849E-05  5952   0.394E-03
  54 F= -.30367415E+04 E0= -.30367415E+04  d E =-.258525E-04  mag=    -0.0000
       N       E                     dE             d eps       ncg     rms          rms(c)
DAV:   1    -0.299787030140E+04   -0.29160E-05   -0.53863E-02  5664   0.639E-02    0.903E-02
DAV:   2    -0.299787038690E+04   -0.85493E-04   -0.23649E-03  5856   0.232E-02    0.146E-01
DAV:   3    -0.299787026351E+04    0.12338E-03   -0.28638E-04  5856   0.773E-03    0.770E-02
DAV:   4    -0.299787026803E+04   -0.45138E-05   -0.39268E-05  5952   0.298E-03
  55 F= -.30367416E+04 E0= -.30367416E+04  d E =-.153188E-03  mag=    -0.0000
       N       E                     dE             d eps       ncg     rms          rms(c)
DAV:   1    -0.299786975789E+04    0.50562E-03   -0.53411E-02  5376   0.660E-02    0.790E-02
DAV:   2    -0.299786981081E+04   -0.52916E-04   -0.13066E-03  6336   0.171E-02    0.105E-01
DAV:   3    -0.299786977229E+04    0.38518E-04   -0.13291E-04  6336   0.538E-03    0.609E-02
DAV:   4    -0.299786978670E+04   -0.14412E-04   -0.53324E-05  5952   0.357E-03    0.578E-02
DAV:   5    -0.299786976786E+04    0.18836E-04   -0.10047E-04  6528   0.465E-03    0.113E-02
DAV:   6    -0.299786976698E+04    0.87958E-06   -0.76701E-06  5184   0.138E-03
  56 F= -.30367415E+04 E0= -.30367415E+04  d E =0.134267E-03  mag=    -0.0000
       N       E                     dE             d eps       ncg     rms          rms(c)
DAV:   1    -0.299786988520E+04   -0.11734E-03   -0.52213E-02  5568   0.592E-02    0.406E-02
DAV:   2    -0.299786990225E+04   -0.17052E-04   -0.57785E-04  6528   0.125E-02    0.636E-02
DAV:   3    -0.299786988706E+04    0.15193E-04   -0.33534E-05  5952   0.298E-03    0.404E-02
DAV:   4    -0.299786988366E+04    0.34065E-05   -0.14806E-05  5568   0.192E-03
  57 F= -.30367416E+04 E0= -.30367416E+04  d E =-.110556E-03  mag=    -0.0000
       N       E                     dE             d eps       ncg     rms          rms(c)
DAV:   1    -0.299787023066E+04   -0.34360E-03   -0.50554E-02  5760   0.604E-02    0.319E-02
DAV:   2    -0.299787025289E+04   -0.22225E-04   -0.43692E-04  6528   0.108E-02    0.350E-02
DAV:   3    -0.299787024520E+04    0.76886E-05   -0.29881E-05  5952   0.297E-03
  58 F= -.30367416E+04 E0= -.30367416E+04  d E =0.578829E-04  mag=    -0.0000
       N       E                     dE             d eps       ncg     rms          rms(c)
DAV:   1    -0.299786998224E+04    0.27065E-03   -0.52961E-02  5568   0.757E-02    0.693E-02
DAV:   2    -0.299787005049E+04   -0.68254E-04   -0.15167E-03  6720   0.216E-02    0.131E-01
DAV:   3    -0.299786999764E+04    0.52852E-04   -0.90619E-05  6144   0.476E-03    0.913E-02
DAV:   4    -0.299786999152E+04    0.61144E-05   -0.33607E-05  5952   0.273E-03
  59 F= -.30367416E+04 E0= -.30367416E+04  d E =-.358140E-04  mag=    -0.0000
       N       E                     dE             d eps       ncg     rms          rms(c)
DAV:   1    -0.299786952883E+04    0.46881E-03   -0.55198E-02  5760   0.796E-02    0.906E-02
DAV:   2    -0.299786957662E+04   -0.47784E-04   -0.15512E-03  6336   0.232E-02    0.129E-01
DAV:   3    -0.299786951388E+04    0.62735E-04   -0.18196E-04  6336   0.652E-03    0.776E-02
DAV:   4    -0.299786953936E+04   -0.25482E-04   -0.11461E-04  5952   0.439E-03    0.693E-02
DAV:   5    -0.299786951622E+04    0.23139E-04   -0.28616E-04  6528   0.634E-03    0.344E-02
DAV:   6    -0.299786950531E+04    0.10917E-04   -0.60745E-05  6336   0.315E-03    0.100E-02
DAV:   7    -0.299786950526E+04    0.45111E-07    0.11346E-06  4992   0.729E-04
  60 F= -.30367415E+04 E0= -.30367415E+04  d E =0.131216E-03  mag=    -0.0000
       N       E                     dE             d eps       ncg     rms          rms(c)
DAV:   1    -0.299787019561E+04   -0.69031E-03   -0.52315E-02  5760   0.768E-02    0.792E-02
DAV:   2    -0.299787023331E+04   -0.37692E-04   -0.74593E-04  6336   0.160E-02    0.783E-02
DAV:   3    -0.299787021660E+04    0.16707E-04   -0.11341E-04  6336   0.482E-03    0.413E-02
DAV:   4    -0.299787023838E+04   -0.21777E-04   -0.19589E-04  6336   0.562E-03    0.516E-02
DAV:   5    -0.299787021499E+04    0.23386E-04   -0.18053E-04  6528   0.482E-03    0.197E-02
DAV:   6    -0.299787021074E+04    0.42549E-05   -0.18282E-05  5952   0.191E-03
  61 F= -.30367416E+04 E0= -.30367416E+04  d E =-.979352E-04  mag=    -0.0000
