 Entering Gaussian System, Link 0=/apps/GAU16/avx2/g16/g16
 Initial command:
 /apps/GAU16/avx2//g16/l1.exe "/localscratch/chegho/Gau-120320.inp" -scrdir="/localscratch/chegho/"
 Entering Link 1 = /apps/GAU16/avx2//g16/l1.exe PID=    120322.
  
 Copyright (c) 1988-2019, Gaussian, Inc.  All Rights Reserved.
  
 This is part of the Gaussian(R) 16 program.  It is based on
 the Gaussian(R) 09 system (copyright 2009, Gaussian, Inc.),
 the Gaussian(R) 03 system (copyright 2003, Gaussian, Inc.),
 the Gaussian(R) 98 system (copyright 1998, Gaussian, Inc.),
 the Gaussian(R) 94 system (copyright 1995, Gaussian, Inc.),
 the Gaussian 92(TM) system (copyright 1992, Gaussian, Inc.),
 the Gaussian 90(TM) system (copyright 1990, Gaussian, Inc.),
 the Gaussian 88(TM) system (copyright 1988, Gaussian, Inc.),
 the Gaussian 86(TM) system (copyright 1986, Carnegie Mellon
 University), and the Gaussian 82(TM) system (copyright 1983,
 Carnegie Mellon University). Gaussian is a federally registered
 trademark of Gaussian, Inc.
  
 This software contains proprietary and confidential information,
 including trade secrets, belonging to Gaussian, Inc.
  
 This software is provided under written license and may be
 used, copied, transmitted, or stored only in accord with that
 written license.
  
 The following legend is applicable only to US Government
 contracts under FAR:
  
                    RESTRICTED RIGHTS LEGEND
  
 Use, reproduction and disclosure by the US Government is
 subject to restrictions as set forth in subparagraphs (a)
 and (c) of the Commercial Computer Software - Restricted
 Rights clause in FAR 52.227-19.
  
 Gaussian, Inc.
 340 Quinnipiac St., Bldg. 40, Wallingford CT 06492
  
  
 ---------------------------------------------------------------
 Warning -- This program may not be used in any manner that
 competes with the business of Gaussian, Inc. or will provide
 assistance to any competitor of Gaussian, Inc.  The licensee
 of this program is prohibited from giving any competitor of
 Gaussian, Inc. access to this program.  By using this program,
 the user acknowledges that Gaussian, Inc. is engaged in the
 business of creating and licensing software in the field of
 computational chemistry and represents and warrants to the
 licensee that it is not a competitor of Gaussian, Inc. and that
 it will not use this program in any manner prohibited above.
 ---------------------------------------------------------------
  

 Cite this work as:
 Gaussian 16, Revision C.01,
 M. J. Frisch, G. W. Trucks, H. B. Schlegel, G. E. Scuseria, 
 M. A. Robb, J. R. Cheeseman, G. Scalmani, V. Barone, 
 G. A. Petersson, H. Nakatsuji, X. Li, M. Caricato, A. V. Marenich, 
 J. Bloino, B. G. Janesko, R. Gomperts, B. Mennucci, H. P. Hratchian, 
 J. V. Ortiz, A. F. Izmaylov, J. L. Sonnenberg, D. Williams-Young, 
 F. Ding, F. Lipparini, F. Egidi, J. Goings, B. Peng, A. Petrone, 
 T. Henderson, D. Ranasinghe, V. G. Zakrzewski, J. Gao, N. Rega, 
 G. Zheng, W. Liang, M. Hada, M. Ehara, K. Toyota, R. Fukuda, 
 J. Hasegawa, M. Ishida, T. Nakajima, Y. Honda, O. Kitao, H. Nakai, 
 T. Vreven, K. Throssell, J. A. Montgomery, Jr., J. E. Peralta, 
 F. Ogliaro, M. J. Bearpark, J. J. Heyd, E. N. Brothers, K. N. Kudin, 
 V. N. Staroverov, T. A. Keith, R. Kobayashi, J. Normand, 
 K. Raghavachari, A. P. Rendell, J. C. Burant, S. S. Iyengar, 
 J. Tomasi, M. Cossi, J. M. Millam, M. Klene, C. Adamo, R. Cammi, 
 J. W. Ochterski, R. L. Martin, K. Morokuma, O. Farkas, 
 J. B. Foresman, and D. J. Fox, Gaussian, Inc., Wallingford CT, 2019.
 
 ******************************************
 Gaussian 16:  ES64L-G16RevC.01  3-Jul-2019
                19-Dec-2022 
 ******************************************
 %nprocshared=48
 Will use up to   48 processors via shared memory.
 %mem=100GB
 ---------------------------------------
 # opt freq b3lyp/gen nosymm pseudo=read
 ---------------------------------------
 1/18=20,19=15,26=3,38=1/1,3;
 2/9=110,12=2,15=1,17=6,18=5,40=1/2;
 3/5=7,11=2,16=1,17=8,25=1,30=1,71=1,74=-5/1,2,3;
 4//1;
 5/5=2,38=5/2;
 6/7=2,8=2,9=2,10=2,28=1/1;
 7/30=1/1,2,3,16;
 1/18=20,19=15,26=3/3(2);
 2/9=110,15=1/2;
 99//99;
 2/9=110,15=1/2;
 3/5=7,6=1,11=2,16=1,17=8,25=1,30=1,71=1,74=-5,82=7/1,2,3;
 4/5=5,16=3,69=1/1;
 5/5=2,38=5/2;
 7/30=1/1,2,3,16;
 1/18=20,19=15,26=3/3(-5);
 2/9=110,15=1/2;
 6/7=2,8=2,9=2,10=2,19=2,28=1/1;
 99/9=1/99;
 -------------------
 Title Card Required
 -------------------
 Symbolic Z-matrix:
 Charge =  0 Multiplicity = 1
 42                    0.26248   1.54208   12.18182 
 16                    1.19107   3.70038   12.39037 
 16                   -1.89188   1.9771    12.9471 
 16                   -0.2724    1.00099   9.91969 
 16                    2.23925   0.01986   11.72063 
 42                   -2.04855   2.45742   10.60182 
 16                   -2.66131   2.03358   8.22242 
 16                   -1.28529   4.63575   10.64748 
 42                    0.77517   3.21539   10.04273 
 16                    0.15151   3.45328   7.51267 
 16                    2.77442   2.03252   9.24897 
 42                    2.98901   2.43765   11.58066 
 42                   -1.83988   4.3647    8.41473 
 16                    4.04334   2.21258   13.88514 
 16                    4.57152   4.22736   11.42175 
 16                   -4.08054   5.31919   8.45022 
 16                   -1.31284   6.74107   7.73044 
 42                   -4.50235   3.15179   8.98885 
 16                   -6.281     2.41317   8.09588 
 16                   -4.43784   2.91218   11.21227 
 42                    2.63782   0.48267   13.94339 
 16                    3.4555   -1.15511   15.0152 
 16                    0.66353   1.112     14.71997 
 42                    0.59274   5.82274   7.13572 
 16                    0.50224   5.63203   4.84133 
 16                    1.59479   5.54612   9.72901 
 42                    3.45502   4.32754   9.40312 
 16                    3.35345   4.01539   6.94211 
 16                    4.93151   6.38699   8.94436 
 42                    3.88076   6.19187   6.93951 
 16                    4.50578   6.72706   4.85078 
 16                    2.08647   7.60143   7.52411 
 42                    2.16318   7.26985   5.04879 
 16                    2.1841    7.19526   2.56885 
 1                     3.48934   7.00737   2.28388 
 16                    2.23719   9.65993   4.79871 
 1                     0.96104   9.83893   4.39681 
 

 GradGradGradGradGradGradGradGradGradGradGradGradGradGradGradGradGradGrad
 Berny optimization.
 Initialization pass.
                           ----------------------------
                           !    Initial Parameters    !
                           ! (Angstroms and Degrees)  !
 --------------------------                            --------------------------
 ! Name  Definition              Value          Derivative Info.                !
 --------------------------------------------------------------------------------
 ! R1    R(1,2)                  2.3588         estimate D2E/DX2                !
 ! R2    R(1,3)                  2.3273         estimate D2E/DX2                !
 ! R3    R(1,4)                  2.3867         estimate D2E/DX2                !
 ! R4    R(1,5)                  2.5372         estimate D2E/DX2                !
 ! R5    R(1,6)                  2.9454         estimate D2E/DX2                !
 ! R6    R(1,9)                  2.7638         estimate D2E/DX2                !
 ! R7    R(1,12)                 2.9321         estimate D2E/DX2                !
 ! R8    R(1,23)                 2.6054         estimate D2E/DX2                !
 ! R9    R(2,9)                  2.433          estimate D2E/DX2                !
 ! R10   R(2,12)                 2.3415         estimate D2E/DX2                !
 ! R11   R(3,6)                  2.3991         estimate D2E/DX2                !
 ! R12   R(4,6)                  2.3961         estimate D2E/DX2                !
 ! R13   R(4,9)                  2.4528         estimate D2E/DX2                !
 ! R14   R(5,12)                 2.5352         estimate D2E/DX2                !
 ! R15   R(5,21)                 2.3052         estimate D2E/DX2                !
 ! R16   R(6,7)                  2.4933         estimate D2E/DX2                !
 ! R17   R(6,8)                  2.3086         estimate D2E/DX2                !
 ! R18   R(6,9)                  2.9767         estimate D2E/DX2                !
 ! R19   R(6,13)                 2.9094         estimate D2E/DX2                !
 ! R20   R(6,18)                 3.0174         estimate D2E/DX2                !
 ! R21   R(6,20)                 2.5076         estimate D2E/DX2                !
 ! R22   R(7,13)                 2.4791         estimate D2E/DX2                !
 ! R23   R(7,18)                 2.2863         estimate D2E/DX2                !
 ! R24   R(8,9)                  2.5746         estimate D2E/DX2                !
 ! R25   R(8,13)                 2.3165         estimate D2E/DX2                !
 ! R26   R(9,10)                 2.6166         estimate D2E/DX2                !
 ! R27   R(9,11)                 2.4548         estimate D2E/DX2                !
 ! R28   R(9,12)                 2.8056         estimate D2E/DX2                !
 ! R29   R(9,26)                 2.4905         estimate D2E/DX2                !
 ! R30   R(9,27)                 2.9711         estimate D2E/DX2                !
 ! R31   R(10,13)                2.3685         estimate D2E/DX2                !
 ! R32   R(10,24)                2.4395         estimate D2E/DX2                !
 ! R33   R(11,12)                2.3763         estimate D2E/DX2                !
 ! R34   R(11,27)                2.3988         estimate D2E/DX2                !
 ! R35   R(12,14)                2.5442         estimate D2E/DX2                !
 ! R36   R(12,15)                2.3943         estimate D2E/DX2                !
 ! R37   R(12,21)                3.0867         estimate D2E/DX2                !
 ! R38   R(12,27)                2.9207         estimate D2E/DX2                !
 ! R39   R(13,16)                2.4357         estimate D2E/DX2                !
 ! R40   R(13,17)                2.5285         estimate D2E/DX2                !
 ! R41   R(13,18)                2.9815         estimate D2E/DX2                !
 ! R42   R(13,24)                3.1112         estimate D2E/DX2                !
 ! R43   R(14,21)                2.2297         estimate D2E/DX2                !
 ! R44   R(15,27)                2.309          estimate D2E/DX2                !
 ! R45   R(16,18)                2.2728         estimate D2E/DX2                !
 ! R46   R(17,24)                2.1973         estimate D2E/DX2                !
 ! R47   R(18,19)                2.1229         estimate D2E/DX2                !
 ! R48   R(18,20)                2.2372         estimate D2E/DX2                !
 ! R49   R(21,22)                2.1212         estimate D2E/DX2                !
 ! R50   R(21,23)                2.2129         estimate D2E/DX2                !
 ! R51   R(24,25)                2.3041         estimate D2E/DX2                !
 ! R52   R(24,32)                2.355          estimate D2E/DX2                !
 ! R53   R(24,33)                2.9859         estimate D2E/DX2                !
 ! R54   R(25,33)                2.3418         estimate D2E/DX2                !
 ! R55   R(26,27)                2.2476         estimate D2E/DX2                !
 ! R56   R(27,28)                2.4828         estimate D2E/DX2                !
 ! R57   R(27,29)                2.5752         estimate D2E/DX2                !
 ! R58   R(27,30)                3.1187         estimate D2E/DX2                !
 ! R59   R(28,30)                2.2394         estimate D2E/DX2                !
 ! R60   R(29,30)                2.2719         estimate D2E/DX2                !
 ! R61   R(30,31)                2.245          estimate D2E/DX2                !
 ! R62   R(30,32)                2.3554         estimate D2E/DX2                !
 ! R63   R(30,33)                2.7725         estimate D2E/DX2                !
 ! R64   R(31,33)                2.4128         estimate D2E/DX2                !
 ! R65   R(32,33)                2.4986         estimate D2E/DX2                !
 ! R66   R(33,34)                2.4811         estimate D2E/DX2                !
 ! R67   R(33,36)                2.4043         estimate D2E/DX2                !
 ! R68   R(34,35)                1.3491         estimate D2E/DX2                !
 ! R69   R(36,37)                1.3499         estimate D2E/DX2                !
 ! A1    A(2,1,3)               99.4574         estimate D2E/DX2                !
 ! A2    A(2,1,4)              112.3009         estimate D2E/DX2                !
 ! A3    A(2,1,5)              104.9703         estimate D2E/DX2                !
 ! A4    A(2,1,6)               94.1266         estimate D2E/DX2                !
 ! A5    A(2,1,23)              90.2471         estimate D2E/DX2                !
 ! A6    A(3,1,4)               98.4296         estimate D2E/DX2                !
 ! A7    A(3,1,5)              153.2708         estimate D2E/DX2                !
 ! A8    A(3,1,9)              108.2436         estimate D2E/DX2                !
 ! A9    A(3,1,12)             150.5891         estimate D2E/DX2                !
 ! A10   A(3,1,23)              81.5471         estimate D2E/DX2                !
 ! A11   A(4,1,5)               82.3165         estimate D2E/DX2                !
 ! A12   A(4,1,12)              94.7793         estimate D2E/DX2                !
 ! A13   A(4,1,23)             156.9903         estimate D2E/DX2                !
 ! A14   A(5,1,6)              134.4477         estimate D2E/DX2                !
 ! A15   A(5,1,9)               94.4751         estimate D2E/DX2                !
 ! A16   A(5,1,23)              87.5993         estimate D2E/DX2                !
 ! A17   A(6,1,12)             121.6492         estimate D2E/DX2                !
 ! A18   A(6,1,23)             134.0014         estimate D2E/DX2                !
 ! A19   A(9,1,23)             145.6277         estimate D2E/DX2                !
 ! A20   A(12,1,23)             96.1433         estimate D2E/DX2                !
 ! A21   A(1,5,21)              80.7342         estimate D2E/DX2                !
 ! A22   A(1,6,7)              130.6874         estimate D2E/DX2                !
 ! A23   A(1,6,8)               91.3298         estimate D2E/DX2                !
 ! A24   A(1,6,13)             123.4156         estimate D2E/DX2                !
 ! A25   A(1,6,20)             132.3284         estimate D2E/DX2                !
 ! A26   A(3,6,4)               96.2113         estimate D2E/DX2                !
 ! A27   A(3,6,7)              156.1953         estimate D2E/DX2                !
 ! A28   A(3,6,8)               98.5097         estimate D2E/DX2                !
 ! A29   A(3,6,9)               99.9412         estimate D2E/DX2                !
 ! A30   A(3,6,13)             149.4783         estimate D2E/DX2                !
 ! A31   A(3,6,18)             128.4434         estimate D2E/DX2                !
 ! A32   A(3,6,20)              81.9842         estimate D2E/DX2                !
 ! A33   A(4,6,7)               78.8822         estimate D2E/DX2                !
 ! A34   A(4,6,8)              109.517          estimate D2E/DX2                !
 ! A35   A(4,6,13)              97.5447         estimate D2E/DX2                !
 ! A36   A(4,6,18)             126.193          estimate D2E/DX2                !
 ! A37   A(4,6,20)             152.3539         estimate D2E/DX2                !
 ! A38   A(7,6,8)              105.101          estimate D2E/DX2                !
 ! A39   A(7,6,9)               95.5766         estimate D2E/DX2                !
 ! A40   A(7,6,20)              91.6608         estimate D2E/DX2                !
 ! A41   A(8,6,18)              93.5718         estimate D2E/DX2                !
 ! A42   A(8,6,20)              97.9946         estimate D2E/DX2                !
 ! A43   A(9,6,13)              67.904          estimate D2E/DX2                !
 ! A44   A(9,6,18)             127.7651         estimate D2E/DX2                !
 ! A45   A(9,6,20)             154.6087         estimate D2E/DX2                !
 ! A46   A(13,6,20)             97.6114         estimate D2E/DX2                !
 ! A47   A(9,8,13)              84.2983         estimate D2E/DX2                !
 ! A48   A(1,9,8)               90.2151         estimate D2E/DX2                !
 ! A49   A(1,9,10)             139.3931         estimate D2E/DX2                !
 ! A50   A(1,9,11)              96.2925         estimate D2E/DX2                !
 ! A51   A(1,9,26)             136.4812         estimate D2E/DX2                !
 ! A52   A(1,9,27)             124.0948         estimate D2E/DX2                !
 ! A53   A(2,9,4)              107.5403         estimate D2E/DX2                !
 ! A54   A(2,9,6)               91.8157         estimate D2E/DX2                !
 ! A55   A(2,9,8)               78.4739         estimate D2E/DX2                !
 ! A56   A(2,9,10)             162.8631         estimate D2E/DX2                !
 ! A57   A(2,9,11)             105.595          estimate D2E/DX2                !
 ! A58   A(2,9,26)              83.0352         estimate D2E/DX2                !
 ! A59   A(2,9,27)              88.7924         estimate D2E/DX2                !
 ! A60   A(4,9,8)               99.6741         estimate D2E/DX2                !
 ! A61   A(4,9,10)              86.0881         estimate D2E/DX2                !
 ! A62   A(4,9,11)              84.0644         estimate D2E/DX2                !
 ! A63   A(4,9,12)              96.5599         estimate D2E/DX2                !
 ! A64   A(4,9,27)             135.4278         estimate D2E/DX2                !
 ! A65   A(6,9,10)              88.7771         estimate D2E/DX2                !
 ! A66   A(6,9,11)             135.284          estimate D2E/DX2                !
 ! A67   A(6,9,12)             125.0995         estimate D2E/DX2                !
 ! A68   A(6,9,26)             125.0405         estimate D2E/DX2                !
 ! A69   A(8,9,10)              89.2101         estimate D2E/DX2                !
 ! A70   A(8,9,12)             130.9712         estimate D2E/DX2                !
 ! A71   A(8,9,26)              77.0955         estimate D2E/DX2                !
 ! A72   A(8,9,27)             124.4649         estimate D2E/DX2                !
 ! A73   A(10,9,11)             85.7143         estimate D2E/DX2                !
 ! A74   A(10,9,12)            138.0146         estimate D2E/DX2                !
 ! A75   A(10,9,26)             82.6204         estimate D2E/DX2                !
 ! A76   A(10,9,27)             88.4411         estimate D2E/DX2                !
 ! A77   A(11,9,26)             98.1745         estimate D2E/DX2                !
 ! A78   A(12,9,26)             93.9448         estimate D2E/DX2                !
 ! A79   A(9,10,13)             82.3645         estimate D2E/DX2                !
 ! A80   A(9,10,24)            101.2216         estimate D2E/DX2                !
 ! A81   A(1,12,11)             93.7345         estimate D2E/DX2                !
 ! A82   A(1,12,14)             99.9404         estimate D2E/DX2                !
 ! A83   A(1,12,15)            148.928          estimate D2E/DX2                !
 ! A84   A(1,12,21)             62.8593         estimate D2E/DX2                !
 ! A85   A(1,12,27)            119.9244         estimate D2E/DX2                !
 ! A86   A(2,12,5)             105.5527         estimate D2E/DX2                !
 ! A87   A(2,12,11)            111.2175         estimate D2E/DX2                !
 ! A88   A(2,12,14)             93.0203         estimate D2E/DX2                !
 ! A89   A(2,12,15)             97.3169         estimate D2E/DX2                !
 ! A90   A(2,12,21)             89.3982         estimate D2E/DX2                !
 ! A91   A(2,12,27)             91.7982         estimate D2E/DX2                !
 ! A92   A(5,12,9)              93.513          estimate D2E/DX2                !
 ! A93   A(5,12,11)             82.2345         estimate D2E/DX2                !
 ! A94   A(5,12,14)             89.3229         estimate D2E/DX2                !
 ! A95   A(5,12,15)            155.7819         estimate D2E/DX2                !
 ! A96   A(5,12,27)            134.8648         estimate D2E/DX2                !
 ! A97   A(9,12,14)            148.0004         estimate D2E/DX2                !
 ! A98   A(9,12,15)            106.1381         estimate D2E/DX2                !
 ! A99   A(9,12,21)            120.3578         estimate D2E/DX2                !
 ! A100  A(11,12,14)           155.6585         estimate D2E/DX2                !
 ! A101  A(11,12,15)            97.0073         estimate D2E/DX2                !
 ! A102  A(11,12,21)           129.2588         estimate D2E/DX2                !
 ! A103  A(14,12,15)            81.5085         estimate D2E/DX2                !
 ! A104  A(14,12,27)           131.792          estimate D2E/DX2                !
 ! A105  A(15,12,21)           126.8287         estimate D2E/DX2                !
 ! A106  A(6,13,10)             95.4132         estimate D2E/DX2                !
 ! A107  A(6,13,16)            100.3674         estimate D2E/DX2                !
 ! A108  A(6,13,17)            146.5655         estimate D2E/DX2                !
 ! A109  A(6,13,24)            132.2482         estimate D2E/DX2                !
 ! A110  A(7,13,8)             105.3145         estimate D2E/DX2                !
 ! A111  A(7,13,10)             83.5235         estimate D2E/DX2                !
 ! A112  A(7,13,16)             93.7157         estimate D2E/DX2                !
 ! A113  A(7,13,17)            158.7211         estimate D2E/DX2                !
 ! A114  A(7,13,24)            131.9024         estimate D2E/DX2                !
 ! A115  A(8,13,10)            102.1702         estimate D2E/DX2                !
 ! A116  A(8,13,16)             99.2264         estimate D2E/DX2                !
 ! A117  A(8,13,17)             95.7953         estimate D2E/DX2                !
 ! A118  A(8,13,18)             94.3467         estimate D2E/DX2                !
 ! A119  A(8,13,24)             98.8709         estimate D2E/DX2                !
 ! A120  A(10,13,16)           158.3982         estimate D2E/DX2                !
 ! A121  A(10,13,17)            94.7801         estimate D2E/DX2                !
 ! A122  A(10,13,18)           131.8811         estimate D2E/DX2                !
 ! A123  A(16,13,17)            80.0607         estimate D2E/DX2                !
 ! A124  A(16,13,24)           122.7937         estimate D2E/DX2                !
 ! A125  A(17,13,18)           128.3591         estimate D2E/DX2                !
 ! A126  A(6,18,16)            101.2569         estimate D2E/DX2                !
 ! A127  A(6,18,19)            145.7039         estimate D2E/DX2                !
 ! A128  A(7,18,16)            103.74           estimate D2E/DX2                !
 ! A129  A(7,18,19)            111.3152         estimate D2E/DX2                !
 ! A130  A(7,18,20)            104.925          estimate D2E/DX2                !
 ! A131  A(13,18,19)           143.9727         estimate D2E/DX2                !
 ! A132  A(13,18,20)           102.075          estimate D2E/DX2                !
 ! A133  A(16,18,19)           112.8055         estimate D2E/DX2                !
 ! A134  A(16,18,20)           109.4089         estimate D2E/DX2                !
 ! A135  A(19,18,20)           113.8877         estimate D2E/DX2                !
 ! A136  A(5,21,14)            103.8613         estimate D2E/DX2                !
 ! A137  A(5,21,22)            113.5065         estimate D2E/DX2                !
 ! A138  A(5,21,23)            103.9587         estimate D2E/DX2                !
 ! A139  A(12,21,22)           146.2952         estimate D2E/DX2                !
 ! A140  A(12,21,23)           100.953          estimate D2E/DX2                !
 ! A141  A(14,21,22)           111.6685         estimate D2E/DX2                !
 ! A142  A(14,21,23)           110.5434         estimate D2E/DX2                !
 ! A143  A(22,21,23)           112.7162         estimate D2E/DX2                !
 ! A144  A(1,23,21)             80.9327         estimate D2E/DX2                !
 ! A145  A(10,24,17)           101.9615         estimate D2E/DX2                !
 ! A146  A(10,24,25)            93.8058         estimate D2E/DX2                !
 ! A147  A(10,24,32)           145.3716         estimate D2E/DX2                !
 ! A148  A(10,24,33)           132.3658         estimate D2E/DX2                !
 ! A149  A(13,24,25)           109.8691         estimate D2E/DX2                !
 ! A150  A(13,24,32)           141.455          estimate D2E/DX2                !
 ! A151  A(13,24,33)           157.7736         estimate D2E/DX2                !
 ! A152  A(17,24,25)           105.6671         estimate D2E/DX2                !
 ! A153  A(17,24,32)           100.9396         estimate D2E/DX2                !
 ! A154  A(17,24,33)           116.2786         estimate D2E/DX2                !
 ! A155  A(25,24,32)           104.5757         estimate D2E/DX2                !
 ! A156  A(9,27,15)            103.3969         estimate D2E/DX2                !
 ! A157  A(9,27,28)             97.4366         estimate D2E/DX2                !
 ! A158  A(9,27,29)            148.7414         estimate D2E/DX2                !
 ! A159  A(9,27,30)            121.1279         estimate D2E/DX2                !
 ! A160  A(11,27,15)            98.735          estimate D2E/DX2                !
 ! A161  A(11,27,26)           107.0505         estimate D2E/DX2                !
 ! A162  A(11,27,28)            78.7208         estimate D2E/DX2                !
 ! A163  A(11,27,29)           156.3983         estimate D2E/DX2                !
 ! A164  A(11,27,30)           124.0491         estimate D2E/DX2                !
 ! A165  A(12,27,26)            96.3536         estimate D2E/DX2                !
 ! A166  A(12,27,28)           130.6268         estimate D2E/DX2                !
 ! A167  A(12,27,29)           137.8817         estimate D2E/DX2                !
 ! A168  A(15,27,26)           107.2757         estimate D2E/DX2                !
 ! A169  A(15,27,28)           151.7506         estimate D2E/DX2                !
 ! A170  A(15,27,29)            85.0205         estimate D2E/DX2                !
 ! A171  A(15,27,30)           130.5816         estimate D2E/DX2                !
 ! A172  A(26,27,28)           100.255          estimate D2E/DX2                !
 ! A173  A(26,27,29)            93.829          estimate D2E/DX2                !
 ! A174  A(26,27,30)            84.4577         estimate D2E/DX2                !
 ! A175  A(28,27,29)            86.9859         estimate D2E/DX2                !
 ! A176  A(27,30,31)           156.2746         estimate D2E/DX2                !
 ! A177  A(27,30,32)            93.3071         estimate D2E/DX2                !
 ! A178  A(27,30,33)           133.3581         estimate D2E/DX2                !
 ! A179  A(28,30,29)           101.0314         estimate D2E/DX2                !
 ! A180  A(28,30,31)           107.357          estimate D2E/DX2                !
 ! A181  A(28,30,32)           113.6997         estimate D2E/DX2                !
 ! A182  A(28,30,33)           103.4617         estimate D2E/DX2                !
 ! A183  A(29,30,31)           132.2061         estimate D2E/DX2                !
 ! A184  A(29,30,32)            94.6981         estimate D2E/DX2                !
 ! A185  A(29,30,33)           148.7497         estimate D2E/DX2                !
 ! A186  A(31,30,32)           107.478          estimate D2E/DX2                !
 ! A187  A(24,32,30)            89.442          estimate D2E/DX2                !
 ! A188  A(24,33,30)            70.1695         estimate D2E/DX2                !
 ! A189  A(24,33,31)           117.3211         estimate D2E/DX2                !
 ! A190  A(24,33,34)           133.5074         estimate D2E/DX2                !
 ! A191  A(24,33,36)           124.7973         estimate D2E/DX2                !
 ! A192  A(25,33,30)           103.1715         estimate D2E/DX2                !
 ! A193  A(25,33,31)           121.6013         estimate D2E/DX2                !
 ! A194  A(25,33,32)            99.137          estimate D2E/DX2                !
 ! A195  A(25,33,34)            84.0541         estimate D2E/DX2                !
 ! A196  A(25,33,36)           135.0614         estimate D2E/DX2                !
 ! A197  A(30,33,34)           131.6596         estimate D2E/DX2                !
 ! A198  A(30,33,36)           116.0002         estimate D2E/DX2                !
 ! A199  A(31,33,32)            98.1037         estimate D2E/DX2                !
 ! A200  A(31,33,34)            84.4349         estimate D2E/DX2                !
 ! A201  A(31,33,36)           100.6736         estimate D2E/DX2                !
 ! A202  A(32,33,36)            88.3994         estimate D2E/DX2                !
 ! A203  A(34,33,36)            85.7368         estimate D2E/DX2                !
 ! A204  A(33,34,35)           102.913          estimate D2E/DX2                !
 ! A205  A(33,36,37)            97.6828         estimate D2E/DX2                !
 ! A206  L(1,6,18,8,-1)        184.9016         estimate D2E/DX2                !
 ! A207  L(4,9,26,2,-1)        190.5754         estimate D2E/DX2                !
 ! A208  L(6,9,27,2,-1)        180.6081         estimate D2E/DX2                !
 ! A209  L(8,9,11,1,-1)        186.5076         estimate D2E/DX2                !
 ! A210  L(21,12,27,2,-1)      181.1964         estimate D2E/DX2                !
 ! A211  L(18,13,24,8,-1)      193.2176         estimate D2E/DX2                !
 ! A212  L(12,27,30,26,-1)     180.8113         estimate D2E/DX2                !
 ! A213  L(32,33,34,25,-1)     183.1911         estimate D2E/DX2                !
 ! A214  L(1,6,18,8,-2)        180.1824         estimate D2E/DX2                !
 ! A215  L(4,9,26,2,-2)        185.185          estimate D2E/DX2                !
 ! A216  L(6,9,27,2,-2)        187.5096         estimate D2E/DX2                !
 ! A217  L(8,9,11,1,-2)        179.7885         estimate D2E/DX2                !
 ! A218  L(21,12,27,2,-2)      177.2848         estimate D2E/DX2                !
 ! A219  L(18,13,24,8,-2)      186.0413         estimate D2E/DX2                !
 ! A220  L(12,27,30,26,-2)     183.9624         estimate D2E/DX2                !
 ! A221  L(32,33,34,25,-2)     174.8241         estimate D2E/DX2                !
 ! D1    D(2,1,5,21)            71.9497         estimate D2E/DX2                !
 ! D2    D(3,1,5,21)           -83.4365         estimate D2E/DX2                !
 ! D3    D(4,1,5,21)          -176.9324         estimate D2E/DX2                !
 ! D4    D(6,1,5,21)          -176.5423         estimate D2E/DX2                !
 ! D5    D(9,1,5,21)           127.9606         estimate D2E/DX2                !
 ! D6    D(23,1,5,21)          -17.664          estimate D2E/DX2                !
 ! D7    D(2,1,6,7)            112.5259         estimate D2E/DX2                !
 ! D8    D(2,1,6,8)              1.2031         estimate D2E/DX2                !
 ! D9    D(2,1,6,13)            43.7659         estimate D2E/DX2                !
 ! D10   D(2,1,6,20)          -100.8794         estimate D2E/DX2                !
 ! D11   D(5,1,6,7)             -3.1676         estimate D2E/DX2                !
 ! D12   D(5,1,6,8)           -114.4903         estimate D2E/DX2                !
 ! D13   D(5,1,6,13)           -71.9275         estimate D2E/DX2                !
 ! D14   D(5,1,6,20)           143.4272         estimate D2E/DX2                !
 ! D15   D(12,1,6,7)            66.51           estimate D2E/DX2                !
 ! D16   D(12,1,6,8)           -44.8127         estimate D2E/DX2                !
 ! D17   D(12,1,6,13)           -2.2499         estimate D2E/DX2                !
 ! D18   D(12,1,6,20)         -146.8952         estimate D2E/DX2                !
 ! D19   D(23,1,6,7)          -153.1334         estimate D2E/DX2                !
 ! D20   D(23,1,6,8)            95.5439         estimate D2E/DX2                !
 ! D21   D(23,1,6,13)          138.1067         estimate D2E/DX2                !
 ! D22   D(23,1,6,20)           -6.5386         estimate D2E/DX2                !
 ! D23   D(3,1,9,8)             13.7842         estimate D2E/DX2                !
 ! D24   D(3,1,9,10)           -75.2531         estimate D2E/DX2                !
 ! D25   D(3,1,9,11)          -166.0043         estimate D2E/DX2                !
 ! D26   D(3,1,9,26)            85.0988         estimate D2E/DX2                !
 ! D27   D(3,1,9,27)           147.0914         estimate D2E/DX2                !
 ! D28   D(5,1,9,8)            179.5007         estimate D2E/DX2                !
 ! D29   D(5,1,9,10)            90.4635         estimate D2E/DX2                !
 ! D30   D(5,1,9,11)            -0.2878         estimate D2E/DX2                !
 ! D31   D(5,1,9,26)          -109.1847         estimate D2E/DX2                !
 ! D32   D(5,1,9,27)           -47.192          estimate D2E/DX2                !
 ! D33   D(23,1,9,8)           -88.2067         estimate D2E/DX2                !
 ! D34   D(23,1,9,10)         -177.244          estimate D2E/DX2                !
 ! D35   D(23,1,9,11)           92.0048         estimate D2E/DX2                !
 ! D36   D(23,1,9,26)          -16.8922         estimate D2E/DX2                !
 ! D37   D(23,1,9,27)           45.1005         estimate D2E/DX2                !
 ! D38   D(3,1,12,11)         -115.9193         estimate D2E/DX2                !
 ! D39   D(3,1,12,14)           84.2963         estimate D2E/DX2                !
 ! D40   D(3,1,12,15)           -5.7254         estimate D2E/DX2                !
 ! D41   D(3,1,12,21)          111.301          estimate D2E/DX2                !
 ! D42   D(3,1,12,27)          -67.5317         estimate D2E/DX2                !
 ! D43   D(4,1,12,11)            0.6882         estimate D2E/DX2                !
 ! D44   D(4,1,12,14)         -159.0961         estimate D2E/DX2                !
 ! D45   D(4,1,12,15)          110.8821         estimate D2E/DX2                !
 ! D46   D(4,1,12,21)         -132.0914         estimate D2E/DX2                !
 ! D47   D(4,1,12,27)           49.0758         estimate D2E/DX2                !
 ! D48   D(6,1,12,11)          -47.0855         estimate D2E/DX2                !
 ! D49   D(6,1,12,14)          153.1302         estimate D2E/DX2                !
 ! D50   D(6,1,12,15)           63.1084         estimate D2E/DX2                !
 ! D51   D(6,1,12,21)         -179.8651         estimate D2E/DX2                !
 ! D52   D(6,1,12,27)            1.3021         estimate D2E/DX2                !
 ! D53   D(23,1,12,11)         160.4039         estimate D2E/DX2                !
 ! D54   D(23,1,12,14)           0.6195         estimate D2E/DX2                !
 ! D55   D(23,1,12,15)         -89.4022         estimate D2E/DX2                !
 ! D56   D(23,1,12,21)          27.6242         estimate D2E/DX2                !
 ! D57   D(23,1,12,27)        -151.2085         estimate D2E/DX2                !
 ! D58   D(2,1,23,21)          -86.5575         estimate D2E/DX2                !
 ! D59   D(3,1,23,21)          173.9174         estimate D2E/DX2                !
 ! D60   D(4,1,23,21)           82.2439         estimate D2E/DX2                !
 ! D61   D(5,1,23,21)           18.4156         estimate D2E/DX2                !
 ! D62   D(6,1,23,21)          177.461          estimate D2E/DX2                !
 ! D63   D(9,1,23,21)          -76.0026         estimate D2E/DX2                !
 ! D64   D(12,1,23,21)         -35.6496         estimate D2E/DX2                !
 ! D65   D(1,2,9,12)           -82.4365         estimate D2E/DX2                !
 ! D66   D(1,4,6,9)             72.1402         estimate D2E/DX2                !
 ! D67   D(1,5,21,14)          -94.1275         estimate D2E/DX2                !
 ! D68   D(1,5,21,22)          144.4024         estimate D2E/DX2                !
 ! D69   D(1,5,21,23)           21.5799         estimate D2E/DX2                !
 ! D70   D(3,6,9,2)            -20.8547         estimate D2E/DX2                !
 ! D71   D(3,6,9,10)           176.2781         estimate D2E/DX2                !
 ! D72   D(3,6,9,11)            93.6203         estimate D2E/DX2                !
 ! D73   D(3,6,9,12)            22.9324         estimate D2E/DX2                !
 ! D74   D(3,6,9,26)          -103.6192         estimate D2E/DX2                !
 ! D75   D(7,6,9,2)            177.266          estimate D2E/DX2                !
 ! D76   D(7,6,9,10)            14.3989         estimate D2E/DX2                !
 ! D77   D(7,6,9,11)           -68.2589         estimate D2E/DX2                !
 ! D78   D(7,6,9,12)          -138.9469         estimate D2E/DX2                !
 ! D79   D(7,6,9,26)            94.5016         estimate D2E/DX2                !
 ! D80   D(13,6,9,2)           129.9235         estimate D2E/DX2                !
 ! D81   D(13,6,9,10)          -32.9436         estimate D2E/DX2                !
 ! D82   D(13,6,9,11)         -115.6014         estimate D2E/DX2                !
 ! D83   D(13,6,9,12)          173.7107         estimate D2E/DX2                !
 ! D84   D(13,6,9,26)           47.1591         estimate D2E/DX2                !
 ! D85   D(18,6,9,2)           138.2543         estimate D2E/DX2                !
 ! D86   D(18,6,9,10)          -24.6129         estimate D2E/DX2                !
 ! D87   D(18,6,9,11)         -107.2707         estimate D2E/DX2                !
 ! D88   D(18,6,9,12)         -177.9586         estimate D2E/DX2                !
 ! D89   D(18,6,9,26)           55.4898         estimate D2E/DX2                !
 ! D90   D(20,6,9,2)            71.3862         estimate D2E/DX2                !
 ! D91   D(20,6,9,10)          -91.481          estimate D2E/DX2                !
 ! D92   D(20,6,9,11)         -174.1388         estimate D2E/DX2                !
 ! D93   D(20,6,9,12)          115.1733         estimate D2E/DX2                !
 ! D94   D(20,6,9,26)          -11.3783         estimate D2E/DX2                !
 ! D95   D(1,6,13,10)           41.0224         estimate D2E/DX2                !
 ! D96   D(1,6,13,16)         -153.7904         estimate D2E/DX2                !
 ! D97   D(1,6,13,17)          -66.1617         estimate D2E/DX2                !
 ! D98   D(1,6,13,24)            1.713          estimate D2E/DX2                !
 ! D99   D(3,6,13,10)          108.3402         estimate D2E/DX2                !
 ! D100  D(3,6,13,16)          -86.4726         estimate D2E/DX2                !
 ! D101  D(3,6,13,17)            1.1561         estimate D2E/DX2                !
 ! D102  D(3,6,13,24)           69.0308         estimate D2E/DX2                !
 ! D103  D(4,6,13,10)           -7.7352         estimate D2E/DX2                !
 ! D104  D(4,6,13,16)          157.452          estimate D2E/DX2                !
 ! D105  D(4,6,13,17)         -114.9193         estimate D2E/DX2                !
 ! D106  D(4,6,13,24)          -47.0446         estimate D2E/DX2                !
 ! D107  D(9,6,13,10)           37.1085         estimate D2E/DX2                !
 ! D108  D(9,6,13,16)         -157.7042         estimate D2E/DX2                !
 ! D109  D(9,6,13,17)          -70.0756         estimate D2E/DX2                !
 ! D110  D(9,6,13,24)           -2.2009         estimate D2E/DX2                !
 ! D111  D(20,6,13,10)        -164.5459         estimate D2E/DX2                !
 ! D112  D(20,6,13,16)           0.6413         estimate D2E/DX2                !
 ! D113  D(20,6,13,17)          88.27           estimate D2E/DX2                !
 ! D114  D(20,6,13,24)         156.1447         estimate D2E/DX2                !
 ! D115  D(3,6,18,16)          112.1086         estimate D2E/DX2                !
 ! D116  D(3,6,18,19)          -74.5763         estimate D2E/DX2                !
 ! D117  D(4,6,18,16)         -109.1263         estimate D2E/DX2                !
 ! D118  D(4,6,18,19)           64.1889         estimate D2E/DX2                !
 ! D119  D(8,6,18,16)            8.2897         estimate D2E/DX2                !
 ! D120  D(8,6,18,19)         -178.3951         estimate D2E/DX2                !
 ! D121  D(9,6,18,16)          -41.247          estimate D2E/DX2                !
 ! D122  D(9,6,18,19)          132.0681         estimate D2E/DX2                !
 ! D123  D(6,7,13,18)          -81.5494         estimate D2E/DX2                !
 ! D124  D(13,8,9,1)          -129.3642         estimate D2E/DX2                !
 ! D125  D(13,8,9,2)           178.0387         estimate D2E/DX2                !
 ! D126  D(13,8,9,4)           -75.865          estimate D2E/DX2                !
 ! D127  D(13,8,9,10)           10.0312         estimate D2E/DX2                !
 ! D128  D(13,8,9,12)          176.5859         estimate D2E/DX2                !
 ! D129  D(13,8,9,26)           92.6411         estimate D2E/DX2                !
 ! D130  D(13,8,9,27)           97.5975         estimate D2E/DX2                !
 ! D131  D(9,8,13,7)            75.1751         estimate D2E/DX2                !
 ! D132  D(9,8,13,10)          -11.3519         estimate D2E/DX2                !
 ! D133  D(9,8,13,16)          171.6377         estimate D2E/DX2                !
 ! D134  D(9,8,13,17)         -107.5273         estimate D2E/DX2                !
 ! D135  D(9,8,13,18)          123.1794         estimate D2E/DX2                !
 ! D136  D(9,8,13,24)          -62.8618         estimate D2E/DX2                !
 ! D137  D(1,9,10,13)           79.5613         estimate D2E/DX2                !
 ! D138  D(1,9,10,24)          158.3696         estimate D2E/DX2                !
 ! D139  D(2,9,10,13)          -53.5531         estimate D2E/DX2                !
 ! D140  D(2,9,10,24)           25.2553         estimate D2E/DX2                !
 ! D141  D(4,9,10,13)           89.9049         estimate D2E/DX2                !
 ! D142  D(4,9,10,24)          168.7132         estimate D2E/DX2                !
 ! D143  D(6,9,10,13)           38.6432         estimate D2E/DX2                !
 ! D144  D(6,9,10,24)          117.4516         estimate D2E/DX2                !
 ! D145  D(8,9,10,13)           -9.8478         estimate D2E/DX2                !
 ! D146  D(8,9,10,24)           68.9606         estimate D2E/DX2                !
 ! D147  D(11,9,10,13)         174.2337         estimate D2E/DX2                !
 ! D148  D(11,9,10,24)        -106.9579         estimate D2E/DX2                !
 ! D149  D(12,9,10,13)        -174.6327         estimate D2E/DX2                !
 ! D150  D(12,9,10,24)         -95.8244         estimate D2E/DX2                !
 ! D151  D(26,9,10,13)         -86.9374         estimate D2E/DX2                !
 ! D152  D(26,9,10,24)          -8.129          estimate D2E/DX2                !
 ! D153  D(27,9,10,13)        -134.3571         estimate D2E/DX2                !
 ! D154  D(27,9,10,24)         -55.5487         estimate D2E/DX2                !
 ! D155  D(4,9,12,5)            -0.6248         estimate D2E/DX2                !
 ! D156  D(4,9,12,14)          -94.978          estimate D2E/DX2                !
 ! D157  D(4,9,12,15)          165.0605         estimate D2E/DX2                !
 ! D158  D(4,9,12,21)          -41.7316         estimate D2E/DX2                !
 ! D159  D(6,9,12,5)            45.8326         estimate D2E/DX2                !
 ! D160  D(6,9,12,14)          -48.5206         estimate D2E/DX2                !
 ! D161  D(6,9,12,15)         -148.4821         estimate D2E/DX2                !
 ! D162  D(6,9,12,21)            4.7257         estimate D2E/DX2                !
 ! D163  D(8,9,12,5)           108.2736         estimate D2E/DX2                !
 ! D164  D(8,9,12,14)           13.9204         estimate D2E/DX2                !
 ! D165  D(8,9,12,15)          -86.0411         estimate D2E/DX2                !
 ! D166  D(8,9,12,21)           67.1668         estimate D2E/DX2                !
 ! D167  D(10,9,12,5)          -92.0643         estimate D2E/DX2                !
 ! D168  D(10,9,12,14)         173.5826         estimate D2E/DX2                !
 ! D169  D(10,9,12,15)          73.621          estimate D2E/DX2                !
 ! D170  D(10,9,12,21)        -133.1711         estimate D2E/DX2                !
 ! D171  D(26,9,12,5)         -175.4123         estimate D2E/DX2                !
 ! D172  D(26,9,12,14)          90.2345         estimate D2E/DX2                !
 ! D173  D(26,9,12,15)          -9.727          estimate D2E/DX2                !
 ! D174  D(26,9,12,21)         143.4809         estimate D2E/DX2                !
 ! D175  D(1,9,27,15)          -22.7161         estimate D2E/DX2                !
 ! D176  D(1,9,27,28)          138.0717         estimate D2E/DX2                !
 ! D177  D(1,9,27,29)         -125.4495         estimate D2E/DX2                !
 ! D178  D(1,9,27,30)          179.6087         estimate D2E/DX2                !
 ! D179  D(2,9,27,15)           20.2109         estimate D2E/DX2                !
 ! D180  D(2,9,27,28)         -179.0013         estimate D2E/DX2                !
 ! D181  D(2,9,27,29)          -82.5225         estimate D2E/DX2                !
 ! D182  D(2,9,27,30)         -137.4643         estimate D2E/DX2                !
 ! D183  D(4,9,27,15)          -93.8763         estimate D2E/DX2                !
 ! D184  D(4,9,27,28)           66.9115         estimate D2E/DX2                !
 ! D185  D(4,9,27,29)          163.3903         estimate D2E/DX2                !
 ! D186  D(4,9,27,30)          108.4485         estimate D2E/DX2                !
 ! D187  D(8,9,27,15)           95.3261         estimate D2E/DX2                !
 ! D188  D(8,9,27,28)         -103.8861         estimate D2E/DX2                !
 ! D189  D(8,9,27,29)           -7.4073         estimate D2E/DX2                !
 ! D190  D(8,9,27,30)          -62.3491         estimate D2E/DX2                !
 ! D191  D(10,9,27,15)        -176.703          estimate D2E/DX2                !
 ! D192  D(10,9,27,28)         -15.9152         estimate D2E/DX2                !
 ! D193  D(10,9,27,29)          80.5636         estimate D2E/DX2                !
 ! D194  D(10,9,27,30)          25.6218         estimate D2E/DX2                !
 ! D195  D(9,10,13,6)          -39.9128         estimate D2E/DX2                !
 ! D196  D(9,10,13,7)          -93.1143         estimate D2E/DX2                !
 ! D197  D(9,10,13,8)           11.2119         estimate D2E/DX2                !
 ! D198  D(9,10,13,16)        -176.8261         estimate D2E/DX2                !
 ! D199  D(9,10,13,17)         108.2016         estimate D2E/DX2                !
 ! D200  D(9,10,13,18)         -96.0964         estimate D2E/DX2                !
 ! D201  D(9,10,24,17)         -86.5744         estimate D2E/DX2                !
 ! D202  D(9,10,24,25)         166.5231         estimate D2E/DX2                !
 ! D203  D(9,10,24,32)          43.8279         estimate D2E/DX2                !
 ! D204  D(9,10,24,33)         129.7444         estimate D2E/DX2                !
 ! D205  D(9,11,12,27)         -79.377          estimate D2E/DX2                !
 ! D206  D(1,12,21,22)         143.8081         estimate D2E/DX2                !
 ! D207  D(1,12,21,23)         -33.5622         estimate D2E/DX2                !
 ! D208  D(2,12,21,22)        -169.948          estimate D2E/DX2                !
 ! D209  D(2,12,21,23)          12.6817         estimate D2E/DX2                !
 ! D210  D(9,12,21,22)         141.5            estimate D2E/DX2                !
 ! D211  D(9,12,21,23)         -35.8704         estimate D2E/DX2                !
 ! D212  D(11,12,21,22)         72.7394         estimate D2E/DX2                !
 ! D213  D(11,12,21,23)       -104.631          estimate D2E/DX2                !
 ! D214  D(15,12,21,22)        -71.2483         estimate D2E/DX2                !
 ! D215  D(15,12,21,23)        111.3813         estimate D2E/DX2                !
 ! D216  D(1,12,27,26)          36.8841         estimate D2E/DX2                !
 ! D217  D(1,12,27,28)         -72.4785         estimate D2E/DX2                !
 ! D218  D(1,12,27,29)         139.7892         estimate D2E/DX2                !
 ! D219  D(2,12,27,26)          -8.8589         estimate D2E/DX2                !
 ! D220  D(2,12,27,28)        -118.2215         estimate D2E/DX2                !
 ! D221  D(2,12,27,29)          94.0462         estimate D2E/DX2                !
 ! D222  D(5,12,27,26)         105.3287         estimate D2E/DX2                !
 ! D223  D(5,12,27,28)          -4.0339         estimate D2E/DX2                !
 ! D224  D(5,12,27,29)        -151.7661         estimate D2E/DX2                !
 ! D225  D(14,12,27,26)       -104.527          estimate D2E/DX2                !
 ! D226  D(14,12,27,28)        146.1104         estimate D2E/DX2                !
 ! D227  D(14,12,27,29)         -1.6219         estimate D2E/DX2                !
 ! D228  D(8,13,18,19)         176.5905         estimate D2E/DX2                !
 ! D229  D(8,13,18,20)          -6.84           estimate D2E/DX2                !
 ! D230  D(10,13,18,19)        -72.7922         estimate D2E/DX2                !
 ! D231  D(10,13,18,20)        103.7773         estimate D2E/DX2                !
 ! D232  D(17,13,18,19)         75.6787         estimate D2E/DX2                !
 ! D233  D(17,13,18,20)       -107.7518         estimate D2E/DX2                !
 ! D234  D(6,13,24,25)         131.6852         estimate D2E/DX2                !
 ! D235  D(6,13,24,32)         -76.3061         estimate D2E/DX2                !
 ! D236  D(6,13,24,33)         157.3717         estimate D2E/DX2                !
 ! D237  D(7,13,24,25)          55.6385         estimate D2E/DX2                !
 ! D238  D(7,13,24,32)        -152.3529         estimate D2E/DX2                !
 ! D239  D(7,13,24,33)          81.325          estimate D2E/DX2                !
 ! D240  D(8,13,24,25)         175.5861         estimate D2E/DX2                !
 ! D241  D(8,13,24,32)         -32.4052         estimate D2E/DX2                !
 ! D242  D(8,13,24,33)        -158.7274         estimate D2E/DX2                !
 ! D243  D(16,13,24,25)        -77.3403         estimate D2E/DX2                !
 ! D244  D(16,13,24,32)         74.6684         estimate D2E/DX2                !
 ! D245  D(16,13,24,33)        -51.6537         estimate D2E/DX2                !
 ! D246  D(5,21,23,1)          -20.9759         estimate D2E/DX2                !
 ! D247  D(12,21,23,1)          34.1023         estimate D2E/DX2                !
 ! D248  D(14,21,23,1)          89.9263         estimate D2E/DX2                !
 ! D249  D(22,21,23,1)        -144.3161         estimate D2E/DX2                !
 ! D250  D(10,24,32,30)         45.6656         estimate D2E/DX2                !
 ! D251  D(13,24,32,30)        132.9835         estimate D2E/DX2                !
 ! D252  D(17,24,32,30)        176.31           estimate D2E/DX2                !
 ! D253  D(25,24,32,30)        -74.1508         estimate D2E/DX2                !
 ! D254  D(10,24,33,30)        -78.18           estimate D2E/DX2                !
 ! D255  D(10,24,33,31)        -58.8559         estimate D2E/DX2                !
 ! D256  D(10,24,33,34)         51.0131         estimate D2E/DX2                !
 ! D257  D(10,24,33,36)        173.346          estimate D2E/DX2                !
 ! D258  D(13,24,33,30)       -160.707          estimate D2E/DX2                !
 ! D259  D(13,24,33,31)       -141.383          estimate D2E/DX2                !
 ! D260  D(13,24,33,34)        -31.5139         estimate D2E/DX2                !
 ! D261  D(13,24,33,36)         90.819          estimate D2E/DX2                !
 ! D262  D(17,24,33,30)        142.0757         estimate D2E/DX2                !
 ! D263  D(17,24,33,31)        161.3998         estimate D2E/DX2                !
 ! D264  D(17,24,33,34)        -88.7311         estimate D2E/DX2                !
 ! D265  D(17,24,33,36)         33.6018         estimate D2E/DX2                !
 ! D266  D(9,27,30,31)        -101.2828         estimate D2E/DX2                !
 ! D267  D(9,27,30,32)          50.2608         estimate D2E/DX2                !
 ! D268  D(9,27,30,33)           3.335          estimate D2E/DX2                !
 ! D269  D(11,27,30,31)        -37.2691         estimate D2E/DX2                !
 ! D270  D(11,27,30,32)        114.2745         estimate D2E/DX2                !
 ! D271  D(11,27,30,33)         67.3488         estimate D2E/DX2                !
 ! D272  D(15,27,30,31)        107.8308         estimate D2E/DX2                !
 ! D273  D(15,27,30,32)       -100.6256         estimate D2E/DX2                !
 ! D274  D(15,27,30,33)       -147.5513         estimate D2E/DX2                !
 ! D275  D(26,27,30,31)       -144.1256         estimate D2E/DX2                !
 ! D276  D(26,27,30,32)          7.418          estimate D2E/DX2                !
 ! D277  D(26,27,30,33)        -39.5078         estimate D2E/DX2                !
 ! D278  D(27,30,32,24)        -65.9236         estimate D2E/DX2                !
 ! D279  D(28,30,32,24)        -16.1906         estimate D2E/DX2                !
 ! D280  D(29,30,32,24)       -120.4168         estimate D2E/DX2                !
 ! D281  D(31,30,32,24)        102.4811         estimate D2E/DX2                !
 ! D282  D(27,30,33,24)          5.5806         estimate D2E/DX2                !
 ! D283  D(27,30,33,25)        -31.8487         estimate D2E/DX2                !
 ! D284  D(27,30,33,34)       -125.6222         estimate D2E/DX2                !
 ! D285  D(27,30,33,36)        125.5191         estimate D2E/DX2                !
 ! D286  D(28,30,33,24)         55.6124         estimate D2E/DX2                !
 ! D287  D(28,30,33,25)         18.1831         estimate D2E/DX2                !
 ! D288  D(28,30,33,34)        -75.5904         estimate D2E/DX2                !
 ! D289  D(28,30,33,36)        175.5509         estimate D2E/DX2                !
 ! D290  D(29,30,33,24)        -85.0777         estimate D2E/DX2                !
 ! D291  D(29,30,33,25)       -122.507          estimate D2E/DX2                !
 ! D292  D(29,30,33,34)        143.7195         estimate D2E/DX2                !
 ! D293  D(29,30,33,36)         34.8607         estimate D2E/DX2                !
 ! D294  D(24,33,34,35)       -127.9887         estimate D2E/DX2                !
 ! D295  D(25,33,34,35)       -127.7263         estimate D2E/DX2                !
 ! D296  D(30,33,34,35)        -25.3702         estimate D2E/DX2                !
 ! D297  D(31,33,34,35)         -5.0779         estimate D2E/DX2                !
 ! D298  D(36,33,34,35)         96.1008         estimate D2E/DX2                !
 ! D299  D(24,33,36,37)        -68.2804         estimate D2E/DX2                !
 ! D300  D(25,33,36,37)         -3.3857         estimate D2E/DX2                !
 ! D301  D(30,33,36,37)       -151.349          estimate D2E/DX2                !
 ! D302  D(31,33,36,37)        157.3129         estimate D2E/DX2                !
 ! D303  D(32,33,36,37)       -104.7412         estimate D2E/DX2                !
 ! D304  D(34,33,36,37)         73.8016         estimate D2E/DX2                !
 --------------------------------------------------------------------------------
 Trust Radius=3.00D-01 FncErr=1.00D-07 GrdErr=1.00D-06 EigMax=2.50D+02 EigMin=1.00D-04
 Number of steps in this run=    222 maximum allowed number of steps=    222.
 GradGradGradGradGradGradGradGradGradGradGradGradGradGradGradGradGradGrad

                          Input orientation:                          
 ---------------------------------------------------------------------
 Center     Atomic      Atomic             Coordinates (Angstroms)
 Number     Number       Type             X           Y           Z
 ---------------------------------------------------------------------
      1         42           0        0.262482    1.542084   12.181817
      2         16           0        1.191070    3.700378   12.390365
      3         16           0       -1.891875    1.977102   12.947100
      4         16           0       -0.272398    1.000985    9.919690
      5         16           0        2.239246    0.019863   11.720626
      6         42           0       -2.048555    2.457416   10.601816
      7         16           0       -2.661308    2.033585    8.222425
      8         16           0       -1.285287    4.635751   10.647484
      9         42           0        0.775172    3.215388   10.042733
     10         16           0        0.151506    3.453277    7.512672
     11         16           0        2.774422    2.032522    9.248969
     12         42           0        2.989005    2.437646   11.580660
     13         42           0       -1.839882    4.364697    8.414727
     14         16           0        4.043343    2.212576   13.885143
     15         16           0        4.571520    4.227355   11.421753
     16         16           0       -4.080541    5.319193    8.450223
     17         16           0       -1.312837    6.741069    7.730438
     18         42           0       -4.502347    3.151788    8.988851
     19         16           0       -6.281000    2.413173    8.095879
     20         16           0       -4.437836    2.912178   11.212269
     21         42           0        2.637822    0.482667   13.943393
     22         16           0        3.455501   -1.155111   15.015198
     23         16           0        0.663532    1.112001   14.719966
     24         42           0        0.592740    5.822739    7.135717
     25         16           0        0.502241    5.632032    4.841331
     26         16           0        1.594788    5.546116    9.729014
     27         42           0        3.455015    4.327537    9.403121
     28         16           0        3.353447    4.015394    6.942112
     29         16           0        4.931511    6.386992    8.944363
     30         42           0        3.880758    6.191871    6.939514
     31         16           0        4.505784    6.727055    4.850777
     32         16           0        2.086466    7.601426    7.524105
     33         42           0        2.163181    7.269851    5.048789
     34         16           0        2.184102    7.195263    2.568854
     35          1           0        3.489335    7.007375    2.283877
     36         16           0        2.237192    9.659932    4.798713
     37          1           0        0.961036    9.838930    4.396809
 ---------------------------------------------------------------------
                    Distance matrix (angstroms):
                    1          2          3          4          5
     1  Mo   0.000000
     2  S    2.358813   0.000000
     3  S    2.327263   3.575498   0.000000
     4  S    2.386651   3.941154   3.569415   0.000000
     5  S    2.537213   3.885024   4.732989   3.242580   0.000000
     6  Mo   2.945357   3.903720   2.399085   2.396084   5.057533
     7  S    4.946403   5.915297   4.787251   3.107066   6.348852
     8  S    3.784249   3.169369   3.567155   3.842805   5.905962
     9  Mo   2.763780   2.433015   4.133018   2.452779   3.894896
    10  S    5.046374   4.993360   5.990618   3.462249   5.818408
    11  S    3.892553   3.893214   5.954290   3.285886   3.232073
    12  Mo   2.932124   2.341513   5.089425   3.931865   2.535232
    13  Mo   5.155390   5.043182   5.123058   4.004557   6.815118
    14  S    4.200689   3.547306   6.013500   5.984847   3.570419
    15  S    5.133828   3.555750   7.011833   6.010757   4.819939
    16  S    6.859533   6.777548   6.015125   5.942071   8.872324
    17  S    7.023236   6.101661   7.088316   6.230883   8.585657
    18  Mo   5.957329   6.654791   4.884894   4.835792   7.919635
    19  S    7.763430   8.713859   6.556594   6.436137   9.563541
    20  S    4.991009   5.804632   3.219615   4.761753   7.294336
    21  Mo   3.141298   3.854692   4.872791   4.992817   2.305156
    22  S    5.049582   5.966001   6.533163   6.671595   3.703248
    23  S    2.605382   3.522078   3.228244   4.891926   3.559730
    24  Mo   6.625421   5.698574   7.398271   5.634561   7.576658
    25  S    8.406420   7.822639   9.208355   6.916386   9.046454
    26  S    4.880938   3.263821   5.937235   4.917414   5.909426
    27  Mo   5.066771   3.800316   6.831805   5.022589   5.040335
    28  S    6.567026   5.870142   8.229697   5.576682   6.327710
    29  S    7.466865   5.751845   9.056911   7.552549   7.449581
    30  Mo   7.886329   6.569150   9.336951   7.285290   7.977924
    31  S    9.931449   8.774593  11.359689   9.017360   9.865011
    32  S    7.857278   6.300825   8.767502   7.407354   8.666846
    33  Mo   9.343450   8.221002  10.336343   8.303999   9.852996
    34  S   11.316365  10.471982  12.310596   9.921606  11.629460
    35  H   11.758027  10.879308  12.960146  10.417917  11.808483
    36  S   11.149402   9.707926  11.936133  10.368212  11.867764
    37  H   11.398771  10.081254  11.960557  10.494420  12.316095
                    6          7          8          9         10
     6  Mo   0.000000
     7  S    2.493311   0.000000
     8  S    2.308637   3.813871   0.000000
     9  Mo   2.976664   4.064428   2.574616   0.000000
    10  S    3.921074   3.229736   3.645499   2.616631   0.000000
    11  S    5.027110   5.531813   5.021343   2.454839   3.451516
    12  Mo   5.131816   6.585366   4.896127   2.805559   5.062750
    13  Mo   2.909403   2.479073   2.316517   3.287829   2.368547
    14  S    6.924695   8.777856   6.689433   5.143023   7.569288
    15  S    6.901476   8.207443   5.921864   4.163896   5.951188
    16  S    4.116805   3.586270   3.620565   5.526304   4.719202
    17  S    5.209201   4.921466   3.597538   4.704988   3.605731
    18  Mo   3.017433   2.286310   3.911865   5.382092   4.891661
    19  S    4.918869   3.641740   6.033878   7.363651   6.542101
    20  S    2.507613   3.587080   3.637066   5.351187   5.919617
    21  Mo   6.085055   7.950824   6.595598   5.113940   7.507361
    22  S    7.926091   9.681162   8.665222   7.142187   9.404335
    23  S    5.111234   7.356760   5.727113   5.129640   7.595316
    24  Mo   5.505968   5.111502   4.155530   3.909259   2.439494
    25  S    7.054639   5.864184   6.156236   5.741885   3.464975
    26  S    4.855492   5.720318   3.157085   2.490478   3.372716
    27  Mo   5.934939   6.638197   4.910590   2.971117   3.905291
    28  S    6.708379   6.460963   5.969295   4.111127   3.300597
    29  S    8.179856   8.782041   6.679524   5.342344   5.788339
    30  Mo   7.906666   7.857215   6.546646   5.304157   4.662159
    31  S    9.708946   9.206730   8.456469   7.294222   6.063254
    32  S    7.282276   7.350501   5.469867   5.224970   4.577263
    33  Mo   8.469614   7.795264   7.083488   6.580632   4.968279
    34  S   10.241634   9.060010   9.157075   8.583901   6.524971
    35  H   10.979912   9.891175   9.918243   9.052386   7.149336
    36  S   10.194110   9.689080   8.476932   8.436196   7.087893
    37  H   10.101807   9.417012   8.437415   8.705304   7.151259
                   11         12         13         14         15
    11  S    0.000000
    12  Mo   2.376332   0.000000
    13  Mo   5.237060   6.087266   0.000000
    14  S    4.810061   2.544195   8.316815   0.000000
    15  S    3.573212   2.394298   7.082877   3.225926   0.000000
    16  S    7.643999   8.251147   2.435749  10.256067   9.213048
    17  S    6.417323   7.200660   2.528472   9.331469   7.387166
    18  Mo   7.366939   7.959135   2.981524   9.893665   9.455735
    19  S    9.136475   9.903398   4.861444  11.838407  11.494776
    20  S    7.526288   7.451098   4.084779   8.919871   9.107254
    21  Mo   4.945536   3.086710   8.104698   2.229679   4.911267
    22  S    6.623766   4.992151  10.103246   3.600541   6.567289
    23  S    5.935910   4.125579   7.523507   3.651208   5.987989
    24  Mo   4.857089   6.079347   3.111174   8.396112   6.061852
    25  S    6.127524   7.861721   4.456550  10.296729   7.863466
    26  S    3.737288   3.877502   3.862649   5.863559   3.669527
    27  Mo   2.398763   2.920707   5.386487   4.990763   2.309003
    28  S    3.096553   4.913068   5.409369   7.206371   4.647130
    29  S    4.869007   5.130373   7.086745   6.528851   3.306219
    30  Mo   4.884439   6.035699   6.183894   8.006434   4.942362
    31  S    6.661858   8.123483   7.651794  10.110101   7.030686
    32  S    5.870360   6.628336   5.165833   8.563403   5.722893
    33  Mo   6.741272   8.166856   5.982806  10.353366   7.461337
    34  S    8.463233  10.222301   7.640601  12.503693   9.637534
    35  H    8.589108  10.371255   8.542343  12.565285   9.612513
    36  S    8.847077   9.935866   7.598526  11.886484   8.878437
    37  H    9.368662  10.511868   7.345477  12.557483   9.688922
                   16         17         18         19         20
    16  S    0.000000
    17  S    3.193745   0.000000
    18  Mo   2.272814   4.963821   0.000000
    19  S    3.662312   6.599006   2.122865   0.000000
    20  S    3.681070   6.045591   2.237222   3.654880   0.000000
    21  Mo   9.934954   9.663132   9.091408  10.838158   7.964075
    22  S   11.908293  11.753911  10.871687  12.466318   9.659704
    23  S    8.917195   9.189447   7.980772   9.684942   6.447366
    24  Mo   4.880680   2.197327   6.043840   7.732745   7.099038
    25  S    5.841563   3.587675   6.956970   8.183245   8.508279
    26  S    5.822041   3.725118   6.592094   8.631946   6.747609
    27  Mo   7.660026   5.599591   8.054416  10.008180   8.220301
    28  S    7.696653   5.461224   8.163851   9.834676   8.952956
    29  S    9.088534   6.371096   9.973274  11.926088  10.247068
    30  Mo   8.150220   5.282103   9.149772  10.903076   9.910188
    31  S    9.416107   6.492226  10.538150  12.062130  11.619389
    32  S    6.640652   3.512556   8.084381   9.862017   8.840708
    33  Mo   7.372848   4.421940   8.769937  10.206678  10.027523
    34  S    8.795220   6.251146  10.113093  11.183664  11.700577
    35  H    9.908421   7.266141  11.121565  12.261546  12.622474
    36  S    8.490541   5.451374  10.263264  11.659606  11.455212
    37  H    7.891495   5.087271   9.780249  11.012360  11.116574
                   21         22         23         24         25
    21  Mo   0.000000
    22  S    2.121245   0.000000
    23  S    2.212905   3.608608   0.000000
    24  Mo   8.890623  10.907429   8.928432   0.000000
    25  S   10.673528  12.581519  10.864811   2.304076   0.000000
    26  S    6.669890   8.735699   6.740787   2.793888   5.009040
    27  Mo   6.005406   7.845689   6.811820   3.945804   5.588426
    28  S    7.874656   9.587453   8.726990   3.305372   3.893093
    29  S    8.069223   9.793720   8.910598   4.734397   6.084675
    30  Mo   9.121087  10.925917   9.833161   3.314486   4.016238
    31  S   11.187374  12.905312  11.987186   4.620677   4.150605
    32  S    9.601457  11.604640   9.793763   2.354950   3.685859
    33  Mo  11.198443  13.114091  11.562860   2.985915   2.341839
    34  S   13.215330  15.041831  13.673614   5.027175   3.230557
    35  H   13.388099  15.123289  14.049801   5.773558   4.165918
    36  S   12.961785  14.927357  13.189950   4.784335   4.385869
    37  H   13.471768  15.486816  13.520923   4.875146   4.255124
                   26         27         28         29         30
    26  S    0.000000
    27  Mo   2.247573   0.000000
    28  S    3.633568   2.482804   0.000000
    29  S    3.529372   2.575239   3.481921   0.000000
    30  Mo   3.663873   3.118711   2.239445   2.271910   0.000000
    31  S    5.802216   5.252203   3.613124   4.129689   2.244973
    32  S    3.054123   4.015218   3.847542   3.403860   2.355435
    33  Mo   5.019845   5.411678   3.948784   4.859896   2.772535
    34  S    7.371219   7.519726   5.532117   6.989183   4.794591
    35  H    7.820144   7.606993   5.538011   6.843013   4.742701
    36  S    6.453219   7.149692   6.140113   5.929410   4.394518
    37  H    6.874758   7.852295   6.790859   6.954193   5.318944
                   31         32         33         34         35
    31  S    0.000000
    32  S    3.710028   0.000000
    33  Mo   2.412804   2.498603   0.000000
    34  S    3.288860   4.972828   2.481145   0.000000
    35  H    2.775018   5.457190   3.077713   1.349128   0.000000
    36  S    3.708232   3.418761   2.404268   3.324106   3.863719
    37  H    4.738680   4.006619   2.910395   3.438937   4.344477
                   36         37
    36  S    0.000000
    37  H    1.349867   0.000000
 Symmetry turned off by external request.
 Stoichiometry    H2Mo11S24
 Framework group  C1[X(H2Mo11S24)]
 Deg. of freedom   105
 Full point group                 C1      NOp   1
 Rotational constants (GHZ):           0.0332037           0.0211832           0.0140436
 General basis read from cards:  (5D, 7F)
 ======================================================================================================
                                       Pseudopotential Parameters
 ======================================================================================================
  Center     Atomic      Valence      Angular      Power
  Number     Number     Electrons     Momentum     of R      Exponent        Coefficient   SO-Coeffient
 ======================================================================================================
    1         42           14
                                      F and up 
                                                     0      537.9667807       -0.04694920    0.00000000
                                                     1      147.8982938      -20.20800840    0.00000000
                                                     2       45.7358898     -106.21163020    0.00000000
                                                     2       13.2911467      -41.81073680    0.00000000
                                                     2        4.7059961       -4.20541030    0.00000000
                                      S - F
                                                     0      110.2991760        2.80637170    0.00000000
                                                     1       23.2014645       44.51620120    0.00000000
                                                     2        5.3530131       82.77852270    0.00000000
                                      P - F
                                                     0       63.2901397        4.94208760    0.00000000
                                                     1       23.3315302       25.86049760    0.00000000
                                                     2       24.6759423      132.47087420    0.00000000
                                                     2        4.6493040       57.31497940    0.00000000
                                      D - F
                                                     0      104.4839977        3.00545910    0.00000000
                                                     1       66.2307245       26.36378510    0.00000000
                                                     2       39.1283176      183.38491990    0.00000000
                                                     2       13.1164437       98.44530680    0.00000000
                                                     2        3.6280263       22.49013770    0.00000000
    2         16
                                   No pseudopotential on this center.
    3         16
                                   No pseudopotential on this center.
    4         16
                                   No pseudopotential on this center.
    5         16
                                   No pseudopotential on this center.
    6         42           14
                                      F and up 
                                                     0      537.9667807       -0.04694920    0.00000000
                                                     1      147.8982938      -20.20800840    0.00000000
                                                     2       45.7358898     -106.21163020    0.00000000
                                                     2       13.2911467      -41.81073680    0.00000000
                                                     2        4.7059961       -4.20541030    0.00000000
                                      S - F
                                                     0      110.2991760        2.80637170    0.00000000
                                                     1       23.2014645       44.51620120    0.00000000
                                                     2        5.3530131       82.77852270    0.00000000
                                      P - F
                                                     0       63.2901397        4.94208760    0.00000000
                                                     1       23.3315302       25.86049760    0.00000000
                                                     2       24.6759423      132.47087420    0.00000000
                                                     2        4.6493040       57.31497940    0.00000000
                                      D - F
                                                     0      104.4839977        3.00545910    0.00000000
                                                     1       66.2307245       26.36378510    0.00000000
                                                     2       39.1283176      183.38491990    0.00000000
                                                     2       13.1164437       98.44530680    0.00000000
                                                     2        3.6280263       22.49013770    0.00000000
    7         16
                                   No pseudopotential on this center.
    8         16
                                   No pseudopotential on this center.
    9         42           14
                                      F and up 
                                                     0      537.9667807       -0.04694920    0.00000000
                                                     1      147.8982938      -20.20800840    0.00000000
                                                     2       45.7358898     -106.21163020    0.00000000
                                                     2       13.2911467      -41.81073680    0.00000000
                                                     2        4.7059961       -4.20541030    0.00000000
                                      S - F
                                                     0      110.2991760        2.80637170    0.00000000
                                                     1       23.2014645       44.51620120    0.00000000
                                                     2        5.3530131       82.77852270    0.00000000
                                      P - F
                                                     0       63.2901397        4.94208760    0.00000000
                                                     1       23.3315302       25.86049760    0.00000000
                                                     2       24.6759423      132.47087420    0.00000000
                                                     2        4.6493040       57.31497940    0.00000000
                                      D - F
                                                     0      104.4839977        3.00545910    0.00000000
                                                     1       66.2307245       26.36378510    0.00000000
                                                     2       39.1283176      183.38491990    0.00000000
                                                     2       13.1164437       98.44530680    0.00000000
                                                     2        3.6280263       22.49013770    0.00000000
   10         16
                                   No pseudopotential on this center.
   11         16
                                   No pseudopotential on this center.
   12         42           14
                                      F and up 
                                                     0      537.9667807       -0.04694920    0.00000000
                                                     1      147.8982938      -20.20800840    0.00000000
                                                     2       45.7358898     -106.21163020    0.00000000
                                                     2       13.2911467      -41.81073680    0.00000000
                                                     2        4.7059961       -4.20541030    0.00000000
                                      S - F
                                                     0      110.2991760        2.80637170    0.00000000
                                                     1       23.2014645       44.51620120    0.00000000
                                                     2        5.3530131       82.77852270    0.00000000
                                      P - F
                                                     0       63.2901397        4.94208760    0.00000000
                                                     1       23.3315302       25.86049760    0.00000000
                                                     2       24.6759423      132.47087420    0.00000000
                                                     2        4.6493040       57.31497940    0.00000000
                                      D - F
                                                     0      104.4839977        3.00545910    0.00000000
                                                     1       66.2307245       26.36378510    0.00000000
                                                     2       39.1283176      183.38491990    0.00000000
                                                     2       13.1164437       98.44530680    0.00000000
                                                     2        3.6280263       22.49013770    0.00000000
   13         42           14
                                      F and up 
                                                     0      537.9667807       -0.04694920    0.00000000
                                                     1      147.8982938      -20.20800840    0.00000000
                                                     2       45.7358898     -106.21163020    0.00000000
                                                     2       13.2911467      -41.81073680    0.00000000
                                                     2        4.7059961       -4.20541030    0.00000000
                                      S - F
                                                     0      110.2991760        2.80637170    0.00000000
                                                     1       23.2014645       44.51620120    0.00000000
                                                     2        5.3530131       82.77852270    0.00000000
                                      P - F
                                                     0       63.2901397        4.94208760    0.00000000
                                                     1       23.3315302       25.86049760    0.00000000
                                                     2       24.6759423      132.47087420    0.00000000
                                                     2        4.6493040       57.31497940    0.00000000
                                      D - F
[...]
 000152,-0.00009135,0.00011268,0.00020356,0.00006250,0.00034135,-0.0001
 2990,-0.00252597,-0.00602166,-0.00391874,-0.00006330,-0.00011863,-0.00
 030311,-0.00002282,0.00033734,-0.00007186,0.00158108,-0.00004863,-0.00
 042070,0.00000003,-0.00000656,-0.00003952,0.00043569,0.00013587,0.0001
 1261,-0.00015783,-0.00015668,-0.00008680,0.00123256,-0.00117426,-0.000
 18488,-0.00025046,-0.00013583,0.00018976,0.00007835,0.00000174,0.00004
 241,-0.00004523,0.00003050,-0.00003693,0.00005096,-0.00007890,0.000042
 39,-0.00001583,0.00005671,-0.00002331,0.00001259,0.00000268,0.00002029
 ,-0.00199033,0.00070479,0.03354144,-0.06192872,-0.04196263,-0.03207451
 ,-0.00087892,0.00057668,-0.00095474,-0.00204180,-0.00221032,0.00240551
 ,-0.00269692,0.00098912,-0.00132042,0.00058701,-0.00250230,-0.00403566
 ,-0.01584471,0.02444484,-0.03705752,-0.08266972,0.01144757,0.03070092,
 -0.00420527,0.00334755,0.00123246,0.22178160,-0.00014700,0.00011235,-0
 .00032102,-0.00006616,-0.00005103,-0.00006391,-0.00014441,0.00022353,0
 .00004904,0.00002230,0.00003489,-0.00003931,0.00009927,0.00000014,0.00
 000608,0.00060355,-0.00058058,-0.00012141,0.00124189,-0.00061966,0.000
 66050,-0.00031112,0.00056938,0.00033637,0.00101434,-0.00019214,0.00048
 090,-0.00029109,0.00162554,0.00003164,-0.00012784,-0.00012270,0.000194
 85,-0.00022092,0.00007117,0.00006311,-0.00983632,-0.00224624,0.0009117
 9,-0.00002375,0.00001781,-0.00002563,0.00002046,-0.00035654,-0.0000849
 6,0.00049233,0.00067217,-0.00079985,0.00441909,-0.00231117,-0.00191540
 ,0.00076924,0.00042720,-0.00005765,0.00007046,0.00005974,-0.00004073,0
 .00004374,-0.00006354,0.00007877,0.00001588,-0.00019402,0.00008553,-0.
 00005132,0.00013857,-0.00006244,-0.00002823,0.00001344,-0.00002283,0.0
 0150088,-0.01261972,0.03243735,-0.04160971,-0.05015974,-0.02797736,-0.
 00131490,0.00029339,0.00041786,0.00184390,-0.00026984,-0.00355086,0.00
 145136,-0.00250838,0.00295172,0.00118325,0.00556753,0.00586625,0.00661
 303,-0.02599920,0.01677733,0.01642433,-0.01421920,-0.00671177,0.004961
 85,-0.01021883,-0.02163369,-0.01676333,0.23972258,0.00006445,0.0000049
 3,-0.00023579,0.00007300,0.00014062,0.00006729,-0.00009883,0.00016009,
 0.00022514,0.00004925,0.00001019,0.00010118,-0.00007637,-0.00005067,-0
 .00001183,0.00060606,-0.00068205,-0.00018553,0.00093274,0.00005381,0.0
 0077995,-0.00012208,0.00002559,0.00001436,0.00039584,-0.00107116,-0.00
 022732,0.00322662,0.00267689,0.00142016,-0.00014729,0.00004747,-0.0002
 2810,0.00011133,0.00048694,0.00040290,-0.00591976,-0.00161310,0.000940
 55,-0.00002650,-0.00004390,0.00008978,0.00012480,-0.00065671,0.0003303
 5,0.00068403,0.00059216,-0.00034437,0.00435158,-0.00027793,-0.00226748
 ,0.00082247,0.00058133,-0.00002414,-0.00036453,-0.00017379,-0.00027768
 ,-0.00001206,-0.00010155,0.00005976,-0.00002108,0.00035797,-0.00019593
 ,0.00011405,-0.00025546,0.00014070,0.00000054,-0.00002911,0.00004358,0
 .00376494,0.00925448,-0.02823185,-0.02863895,-0.02057239,-0.01574816,0
 .00089012,0.00067115,-0.00002505,-0.00179940,-0.00040003,-0.00051113,-
 0.00074997,0.00180207,0.00063027,-0.00275497,-0.00127899,-0.00298435,-
 0.01501333,0.02413117,-0.03809561,0.01901230,-0.00544154,-0.00835938,0
 .00735034,-0.01179859,-0.05643535,0.01242653,-0.00001124,0.24388206,0.
 00007362,-0.00003409,-0.00001623,0.00002728,0.00000089,0.00000413,0.00
 000137,-0.00000459,-0.00005802,0.00001133,0.00000088,0.00002215,-0.000
 02555,-0.00000198,0.00002565,0.00000805,0.00003720,0.00004223,-0.00010
 695,0.00001031,-0.00002659,0.00006015,-0.00001358,-0.00002870,-0.00037
 830,-0.00024544,-0.00000852,0.00008355,0.00030992,0.00035545,-0.000060
 77,0.00001500,0.00002081,0.00001213,0.00006368,0.00006812,0.00062142,0
 .00010223,-0.00032102,-0.00001262,0.00000089,0.00001647,-0.00004988,-0
 .00008087,-0.00010323,-0.00002679,-0.00000478,0.00005389,-0.00009675,0
 .00015193,0.00014635,-0.00008417,-0.00006283,0.00001315,0.00001074,0.0
 0000146,0.00001854,-0.00002600,0.00000659,-0.00004132,0.00005695,-0.00
 000115,-0.00001402,-0.00000584,0.00000647,-0.00000169,-0.00000946,-0.0
 0000207,0.00000069,0.00003022,-0.00032489,-0.00278476,-0.00096054,-0.0
 0081972,0.00740689,0.00016353,0.00009652,0.00014953,0.00042816,0.00058
 749,-0.00039122,0.00025977,0.00026980,-0.00013104,0.00043351,0.0001512
 6,0.00095058,-0.00144693,-0.00144072,0.00315989,-0.00057154,0.00024552
 ,-0.00896911,0.00362136,-0.00038844,-0.00016586,-0.02546827,-0.0019213
 9,0.00377504,0.26711978,0.00012768,-0.00007150,-0.00010583,0.00006260,
 0.00004052,-0.00003986,-0.00001978,0.00001321,-0.00003993,0.00003694,-
 0.00005338,0.00005654,-0.00004659,-0.00002243,0.00000338,-0.00003370,0
 .00005352,-0.00004684,-0.00006549,0.00008975,0.00002386,0.00009524,-0.
 00000828,-0.00002271,-0.00058139,-0.00024865,0.00008840,0.00047097,0.0
 0035970,0.00031622,-0.00003916,0.00008712,-0.00004251,0.00007420,0.000
 15654,0.00000250,0.00083883,0.00010813,-0.00016895,0.00000488,-0.00000
 092,0.00002244,0.00007790,0.00007310,0.00012064,-0.00004768,0.00001524
 ,0.00007634,0.00024873,0.00027525,0.00004967,-0.00006900,-0.00003806,0
 .00007661,-0.00003938,-0.00003242,-0.00001094,-0.00003719,0.00002299,-
 0.00005436,0.00007969,0.00009287,-0.00007173,0.00001950,-0.00004690,0.
 00002705,-0.00001223,-0.00000845,0.00001281,-0.00193095,0.00197935,-0.
 00614892,-0.00432908,-0.00426694,0.00725840,0.00019356,-0.00005336,-0.
 00009977,0.00008256,-0.00033429,0.00021924,0.00006098,-0.00019837,0.00
 044035,0.00012674,-0.00004312,0.00044449,0.00128063,-0.00088757,-0.001
 52384,0.00056330,0.00323083,0.00365047,-0.00099543,0.00148372,0.005332
 95,0.00125626,-0.01075475,-0.00011632,0.05950889,0.02936483,-0.0000039
 0,-0.00003139,-0.00002894,-0.00000103,-0.00003813,-0.00005289,0.000000
 32,-0.00000117,-0.00013693,0.00002197,-0.00001155,-0.00003621,-0.00002
 394,0.00002819,0.00002664,-0.00018093,0.00020360,0.00034334,-0.0003129
 1,-0.00004153,-0.00018615,-0.00001792,-0.00006643,0.00006621,-0.000029
 11,0.00031588,0.00018621,-0.00056408,-0.00027697,-0.00060425,0.0000731
 1,-0.00000507,0.00006683,0.00000678,-0.00010615,0.00008214,0.00264305,
 0.00125844,-0.00061916,-0.00001488,0.00005160,-0.00005882,-0.00006207,
 0.00002669,-0.00010880,-0.00015773,-0.00031539,0.00012061,-0.00083398,
 0.00000999,0.00041946,-0.00067410,-0.00037685,-0.00008485,0.00037501,0
 .00016318,0.00024700,0.00002768,0.00001885,-0.00006729,0.00015539,-0.0
 0033861,0.00012538,-0.00012168,0.00025693,-0.00013621,-0.00003331,0.00
 002374,-0.00003987,0.00078117,0.00185637,-0.00123544,0.00819420,0.0042
 6739,-0.00634872,0.00007817,0.00011478,0.00020988,-0.00017782,-0.00011
 468,0.00002719,0.00002688,-0.00017911,-0.00064816,0.00033094,0.0003139
 5,-0.00099828,-0.00119703,0.00192012,0.00477821,-0.00493427,-0.0008813
 5,-0.00858701,0.00107563,-0.00302093,-0.00738454,-0.01203259,0.0007131
 7,-0.06364971,-0.03627025,-0.00968398,0.10695619,-0.00000196,-0.000005
 35,-0.00000751,0.00000357,-0.00000372,-0.00001489,-0.00000286,-0.00000
 234,-0.00000170,0.00000882,-0.00001067,-0.00000695,-0.00000166,-0.0000
 0075,-0.00000067,-0.00002967,0.00002265,0.00002230,-0.00001943,0.00000
 266,-0.00002058,-0.00000199,0.00000149,-0.00000134,-0.00000972,0.00005
 729,0.00004415,-0.00001882,-0.00002154,-0.00010611,0.00001891,-0.00000
 591,-0.00000450,-0.00000360,-0.00002659,0.00002247,0.00023931,0.000103
 98,0.00000666,0.00000114,0.00000586,0.00000020,-0.00000305,0.00000156,
 -0.00000756,-0.00002652,-0.00003218,0.00001643,-0.00006866,0.00001353,
 0.00004113,-0.00003410,-0.00001422,-0.00000702,0.00001739,0.00000753,0
 .00001424,0.00000413,0.00000307,0.00000055,0.00000780,-0.00000103,-0.0
 0000800,-0.00000090,0.00000185,-0.00000122,-0.00000396,0.00000220,-0.0
 0000085,-0.00006386,0.00009507,-0.00038024,0.00015709,-0.00046843,0.00
 052453,-0.00000701,-0.00000446,-0.00000632,0.00000593,0.00004708,-0.00
 002565,-0.00002630,0.00005080,-0.00000158,0.00007240,0.00007887,0.0000
 8841,-0.00017400,0.00000671,0.00006145,0.00010330,0.00065090,-0.002039
 99,-0.00049381,-0.00016803,-0.00027874,0.00114740,0.00020242,0.0007082
 5,-0.24432518,-0.05986657,0.04102512,0.24328404,-0.00007769,0.00005235
 ,0.00010954,-0.00004075,-0.00000504,0.00004930,0.00002212,-0.00001019,
 0.00003069,-0.00004931,0.00006176,-0.00001119,0.00003652,0.00001077,-0
 .00000236,0.00007180,-0.00005327,-0.00002781,0.00007099,-0.00002030,0.
 00002683,-0.00005080,-0.00003830,-0.00000168,0.00049347,-0.00002653,-0
 .00014812,0.00001471,0.00006345,0.00026145,-0.00003146,-0.00004565,0.0
 0003092,-0.00002233,-0.00003557,-0.00005365,-0.00097452,-0.00033068,0.
 00003617,-0.00000485,-0.00001713,-0.00000518,-0.00000487,-0.00006917,0
 .00009110,0.00009244,0.00007295,-0.00005533,0.00009243,-0.00004955,-0.
 00014266,0.00013051,0.00008665,-0.00004667,-0.00003326,-0.00000534,-0.
 00003695,0.00001601,-0.00002844,0.00003857,-0.00007021,-0.00001138,0.0
 0003845,0.00000462,-0.00000756,0.00000335,0.00001669,-0.00000332,-0.00
 000166,0.00007086,-0.00073352,0.00250489,0.00149900,0.00272978,0.00071
 490,0.00007084,-0.00004818,0.00010550,-0.00032945,0.00019850,-0.000446
 88,-0.00001492,-0.00003932,-0.00001025,-0.00023734,-0.00012774,-0.0005
 3643,-0.00068473,0.00218714,-0.00047328,0.00140148,-0.00191479,-0.0001
 3419,0.00079156,-0.00034111,0.00071745,-0.00350730,-0.00307760,-0.0016
 5569,-0.05769610,-0.01590815,0.01072028,0.05945997,0.01722675,-0.00001
 648,0.00000629,0.00000654,-0.00000036,-0.00000532,0.00000107,0.0000016
 5,0.00000003,0.00000561,-0.00000768,0.00000538,-0.00001077,0.00000237,
 0.00000108,-0.00000482,-0.00003618,0.00000297,0.00000266,0.00000060,0.
 00000937,0.00000284,-0.00001093,0.00000383,0.00000035,0.00011897,0.000
 04454,-0.00002674,-0.00002787,-0.00008707,-0.00001782,-0.00000270,0.00
 000809,-0.00001073,0.00000338,0.00000628,0.00002809,-0.00002063,-0.000
 04327,0.00004170,-0.00000137,-0.00000127,0.00000016,0.00000317,-0.0000
 2612,0.00001306,0.00000280,-0.00000032,0.00000240,0.00001701,-0.000022
 26,-0.00003819,0.00000282,-0.00001634,-0.00002237,0.00000710,0.0000048
 1,0.00000425,0.00000786,0.00000144,0.00001256,0.00000044,0.00000689,-0
 .00000416,0.00000171,-0.00000433,0.00000202,-0.00000090,0.00000131,-0.
 00000127,-0.00042329,-0.00033337,0.00067237,-0.00040894,-0.00041534,-0
 .00052189,-0.00008906,0.00001262,-0.00004524,-0.00012035,-0.00017733,0
 .00001899,-0.00003749,-0.00006466,-0.00005665,-0.00003613,0.00003843,-
 0.00023445,0.00046557,0.00033930,-0.00110051,-0.00144956,0.00049811,-0
 .00067920,-0.00109192,0.00020670,-0.00044294,0.01227246,0.00334253,-0.
 00535932,0.03053017,0.00832923,-0.01705199,-0.03958166,-0.01153845,0.0
 2474023,-0.00001448,0.00001271,-0.00001207,-0.00000734,0.00000218,0.00
 002500,-0.00000259,0.00003201,-0.00000121,0.00000003,0.00000715,0.0000
 0097,0.00000942,0.00000469,0.00000111,0.00010347,-0.00011785,0.0000050
 8,0.00013380,0.00001544,0.00016030,-0.00002232,0.00004525,0.00005043,0
 .00014163,-0.00001107,-0.00003925,0.00020718,0.00042189,0.00007187,-0.
 00001611,-0.00004106,0.00000436,-0.00002717,-0.00000923,0.00000004,-0.
 00129655,-0.00055504,0.00005854,-0.00000327,-0.00000477,-0.00000161,-0
 .00004812,-0.00001664,-0.00002018,0.00016549,0.00010111,-0.00005964,0.
 00124114,-0.00022782,-0.00067723,0.00005120,-0.00000686,-0.00006304,0.
 00002645,0.00001579,0.00000302,0.00000269,-0.00000961,0.00000660,-0.00
 000208,-0.00003465,0.00002339,-0.00000987,0.00002258,-0.00001085,0.000
 00394,-0.00000100,-0.00000186,0.00021406,-0.00064694,0.00180870,0.0046
 9246,0.00050011,-0.00060989,-0.00013074,0.00010201,-0.00003652,0.00020
 273,0.00004348,-0.00027328,0.00009689,-0.00007849,0.00000624,0.0001270
 5,-0.00001846,0.00008450,-0.00014542,0.00018542,0.00017995,0.00063136,
 0.00142791,0.00077149,-0.00125016,0.00131788,-0.00203646,-0.02357230,0
 .02756223,0.00061786,0.00192213,0.00439629,0.00238312,0.00064737,-0.00
 142149,-0.00042101,0.02598051,0.00002734,-0.00006023,0.00004617,-0.000
 01583,-0.00001961,-0.00004935,-0.00000205,-0.00005504,0.00007177,-0.00
 000329,-0.00002015,0.00000713,-0.00000973,-0.00001497,0.00000161,-0.00
 008486,0.00006667,-0.00007936,-0.00011082,-0.00001016,-0.00015885,0.00
 001672,-0.00005491,-0.00009364,-0.00012488,0.00028646,0.00007872,-0.00
 035111,-0.00039611,-0.00044619,0.00009104,0.00002074,-0.00008186,0.000
 03238,-0.00008386,0.00002265,0.00110940,0.00032073,0.00024610,0.000008
 99,0.00001007,0.00002830,0.00013155,0.00007199,-0.00005343,-0.00017033
 ,-0.00012589,0.00007790,-0.00159238,0.00091726,0.00054754,0.00011723,0
 .00014854,0.00008827,-0.00014597,-0.00007260,-0.00006625,-0.00000216,-
 0.00000313,0.00002183,-0.00004886,0.00016733,-0.00010286,0.00005618,-0
 .00012600,0.00006214,-0.00000802,0.00000088,0.00001473,0.00107999,-0.0
 0015262,-0.00354893,-0.00447402,-0.00413406,0.00046675,0.00029275,-0.0
 0016330,0.00011348,-0.00039816,0.00009533,0.00073818,-0.00059706,-0.00
 009127,-0.00088202,0.00087760,-0.00031219,-0.00014945,0.00048402,0.003
 93704,0.00074343,0.00557407,-0.00095013,0.00170600,0.00090324,-0.00332
 070,0.00570506,0.02885710,-0.10917756,-0.00979748,0.00135387,-0.002417
 85,-0.00391299,0.00000002,-0.00006109,-0.00015201,-0.03607834,0.131394
 69,-0.00000854,0.00001161,0.00000088,-0.00000364,-0.00000550,-0.000016
 97,-0.00000780,-0.00002981,-0.00001571,0.00000461,-0.00000349,-0.00002
 911,0.00000430,0.00000060,0.00000128,-0.00010176,0.00009696,0.00011191
 ,-0.00003564,-0.00008554,-0.00020835,0.00003019,-0.00001306,-0.0000247
 6,-0.00009885,0.00007015,0.00013049,-0.00026202,-0.00032357,-0.0002106
 3,0.00007107,-0.00004475,-0.00002792,-0.00001042,-0.00006849,-0.000041
 41,0.00096235,0.00064536,-0.00002226,0.00000316,0.00000254,0.00000212,
 0.00000757,0.00004725,0.00001100,-0.00015355,-0.00014741,-0.00001506,-
 0.00117809,0.00016362,0.00049772,-0.00003120,0.00005941,0.00012921,-0.
 00002456,-0.00000810,-0.00001171,0.00000222,0.00000406,-0.00000445,-0.
 00001848,0.00002265,-0.00000906,0.00000895,-0.00001824,0.00000781,0.00
 000240,0.00000270,0.00000106,0.00052405,0.00059574,0.00019632,0.003187
 47,-0.00034356,0.00040779,0.00002980,-0.00001020,-0.00009081,-0.000117
 05,0.00033284,0.00011340,-0.00040845,0.00004011,-0.00049188,0.00036628
 ,-0.00018139,-0.00016378,-0.00061016,0.00258332,0.00335884,-0.00190178
 ,-0.00170291,-0.00078748,-0.00288663,0.01003001,-0.00531422,0.00037589
 ,-0.00543341,-0.02598915,0.00204941,-0.00707152,-0.00403326,-0.0000237
 3,-0.00023823,0.00010440,0.01723849,-0.02311010,0.28108260,0.00002412,
 -0.00000415,-0.00001906,0.00001191,0.00000891,-0.00000786,-0.00001151,
 -0.00000893,-0.00002381,0.00000166,-0.00000636,-0.00000888,-0.00001096
 ,-0.00000084,-0.00000147,-0.00007990,0.00009099,0.00002585,-0.00003094
 ,-0.00000576,-0.00009310,0.00003943,0.00000175,-0.00000355,-0.00012295
 ,-0.00006580,0.00003791,-0.00009849,-0.00020225,0.00005568,0.00000547,
 0.00003160,0.00001205,0.00000430,0.00002215,-0.00000775,0.00055011,0.0
 0018618,-0.00018574,0.00000101,-0.00000041,-0.00000009,0.00000035,-0.0
 0000154,0.00002759,-0.00009162,-0.00004214,-0.00000505,-0.00029652,0.0
 0009397,0.00007460,-0.00003958,-0.00001903,0.00008461,-0.00001067,-0.0
 0000508,-0.00000465,-0.00000750,0.00001071,-0.00001309,0.00001956,0.00
 000546,-0.00000372,-0.00000077,0.00000142,-0.00000032,-0.00000203,-0.0
 0000084,-0.00000052,-0.00011207,-0.00015055,0.00089396,0.00117538,0.00
 060537,0.00062970,-0.00002936,-0.00002560,-0.00005425,-0.00001465,0.00
 003823,0.00002960,0.00000735,-0.00007731,0.00013997,-0.00034028,-0.000
 05074,0.00015593,0.00065150,0.00009142,-0.00154429,0.00105777,-0.00014
 077,-0.00021695,0.00133878,0.00064736,0.00035301,-0.00282201,0.0023017
 0,-0.00435700,-0.00128949,-0.00149271,0.00044501,-0.00040154,0.0008953
 4,0.00034641,-0.01005250,0.00320438,-0.01698586,0.01097665,0.00001361,
 -0.00001070,-0.00000391,0.00000591,0.00000344,0.00000039,0.00000179,0.
 00000550,-0.00001269,0.00000329,0.00000582,0.00001473,-0.00000764,0.00
 000360,0.00000162,0.00000497,0.00000417,-0.00000443,-0.00002239,0.0000
 2459,0.00001966,0.00000722,-0.00001207,0.00000269,-0.00001130,-0.00004
 023,-0.00001327,0.00008329,-0.00001752,-0.00006144,-0.00001400,0.00001
 422,0.00001547,-0.00000364,0.00001345,0.00000879,0.00018842,0.00007637
 ,-0.00010863,-0.00000108,0.00000341,-0.00000380,-0.00000419,-0.0000108
 2,-0.00001138,-0.00000371,0.00000872,0.00002721,0.00010490,0.00000808,
 -0.00006818,-0.00004953,-0.00003259,-0.00003449,0.00002765,0.00000913,
 0.00002021,-0.00000285,0.00000308,-0.00001008,0.00001564,-0.00002693,0
 .00001282,-0.00001025,0.00002152,-0.00001116,-0.00000119,-0.00000077,-
 0.00000169,-0.00032022,-0.00024140,0.00016048,-0.00038250,0.00024528,-
 0.00002438,0.00002737,0.00000961,0.00001092,-0.00005628,-0.00006387,-0
 .00002360,0.00022032,0.00009678,0.00018284,-0.00015650,0.00005223,-0.0
 0010397,-0.00012743,-0.00069862,-0.00074630,0.00058508,0.00036015,-0.0
 0015377,0.00102919,-0.00153960,0.00001008,0.00179089,-0.00380699,0.015
 03082,0.00012182,-0.00205129,-0.00286084,-0.00018372,0.00031881,0.0000
 1823,0.00306318,-0.01561435,0.02413033,-0.00593614,0.02287980,0.000011
 03,-0.00001426,0.00000102,0.,-0.00001192,-0.00000790,0.00000503,-0.000
 01336,-0.00002045,0.00000967,-0.00000303,-0.00001044,-0.00000999,0.000
 00383,0.00000683,-0.00006465,0.00005507,0.00006306,-0.00013308,0.00000
 260,-0.00006608,0.00001351,-0.00001619,-0.00001269,-0.00010015,0.00009
 921,0.00002714,-0.00022884,-0.00030380,-0.00020170,0.00003386,0.000003
 06,0.00000190,-0.00000009,-0.00003358,0.00001745,0.00104514,0.00031888
 ,-0.00015109,-0.00000134,0.00001049,-0.00000955,0.00000313,0.00003960,
 -0.00007446,-0.00006945,-0.00010009,0.00006630,-0.00035915,0.00010157,
 0.00011290,-0.00014425,-0.00010010,-0.00002841,0.00006333,0.00002691,0
 .00005340,0.00000100,0.00001211,-0.00001496,0.00002346,-0.00004576,0.0
 0001534,-0.00001765,0.00003535,-0.00001958,-0.00000612,0.00000464,-0.0
 0000532,-0.00014301,-0.00009799,-0.00020509,-0.00026579,-0.00027477,0.
 00000800,0.00007639,0.00003969,-0.00002120,-0.00011637,-0.00006070,0.0
 0028408,-0.00008437,-0.00005778,-0.00026963,0.00021597,-0.00019171,-0.
 00037736,-0.00022189,0.00061739,0.00122377,0.00004103,-0.00011837,-0.0
 0003002,-0.00022293,0.00133294,-0.00101340,-0.00081492,0.00346864,0.00
 025919,0.00052242,-0.00130359,-0.00155785,-0.00004910,0.00008730,-0.00
 003023,-0.01923695,0.03189699,-0.24864884,0.02022513,-0.03540928,0.250
 63584\\-0.00002014,0.00001448,0.00000424,0.00000519,0.00000650,-0.0000
 0826,0.00001094,0.00000279,0.00000496,0.00000556,0.00000192,-0.0000018
 4,0.00000220,-0.00000025,-0.00000439,-0.00002493,-0.00000262,-0.000046
 20,-0.00001404,-0.00000807,0.00000263,0.00000992,-0.00000890,0.0000046
 9,0.00002000,-0.00002684,0.00004299,-0.00001817,0.00000354,0.00001620,
 0.00000113,0.00000988,-0.00000163,0.00001874,-0.00000224,0.00000857,0.
 00000098,0.00002129,-0.00000919,-0.00000506,0.00000077,0.00000235,0.00
 000740,-0.00000169,-0.00000295,-0.00001164,-0.00000713,-0.00000949,0.0
 0001000,-0.00000753,0.00000157,0.,-0.00000780,0.00002213,0.00000621,0.
 00000167,-0.00001529,0.00001232,0.00000148,0.00000957,-0.00000019,-0.0
 0000507,-0.00000025,0.00000137,0.00000039,-0.00000015,0.00000464,-0.00
 000357,-0.00000407,0.00000569,0.00000949,0.00000821,0.00001215,0.00002
 893,-0.00002555,-0.00001148,-0.00000098,-0.00001578,-0.00002805,-0.000
 00925,-0.00000095,-0.00000691,0.00000529,-0.00001700,0.00000440,-0.000
 00634,0.00001374,0.00001761,0.00001016,0.00001358,-0.00000692,0.000017
 31,-0.00000770,0.00000146,0.00001164,-0.00000137,-0.00001307,-0.000065
 39,0.00000647,-0.00000377,0.00000139,0.00000715,-0.00000079,0.00000147
 ,-0.00000462,0.00000220,0.00001394,0.00000609,0.00000506,-0.00000065,0
 .00000155\\\@
 The archive entry for this job was punched.


 SCIENCE AND PEACE WILL TRIUMPH OVER IGNORANCE AND WAR

                          -- PASTEUR
 Job cpu time:       0 days 18 hours 20 minutes 23.0 seconds.
 Elapsed time:       0 days  0 hours 22 minutes 59.9 seconds.
 File lengths (MBytes):  RWF=   2768 Int=      0 D2E=      0 Chk=     43 Scr=      2
 Normal termination of Gaussian 16 at Mon Dec 19 10:41:03 2022.
