 Entering Gaussian System, Link 0=/apps/GAU16/avx2/g16/g16
 Initial command:
 /apps/GAU16/avx2//g16/l1.exe "/localscratch/chegho/Gau-228306.inp" -scrdir="/localscratch/chegho/"
 Entering Link 1 = /apps/GAU16/avx2//g16/l1.exe PID=    228308.
  
 Copyright (c) 1988-2019, Gaussian, Inc.  All Rights Reserved.
  
 This is part of the Gaussian(R) 16 program.  It is based on
 the Gaussian(R) 09 system (copyright 2009, Gaussian, Inc.),
 the Gaussian(R) 03 system (copyright 2003, Gaussian, Inc.),
 the Gaussian(R) 98 system (copyright 1998, Gaussian, Inc.),
 the Gaussian(R) 94 system (copyright 1995, Gaussian, Inc.),
 the Gaussian 92(TM) system (copyright 1992, Gaussian, Inc.),
 the Gaussian 90(TM) system (copyright 1990, Gaussian, Inc.),
 the Gaussian 88(TM) system (copyright 1988, Gaussian, Inc.),
 the Gaussian 86(TM) system (copyright 1986, Carnegie Mellon
 University), and the Gaussian 82(TM) system (copyright 1983,
 Carnegie Mellon University). Gaussian is a federally registered
 trademark of Gaussian, Inc.
  
 This software contains proprietary and confidential information,
 including trade secrets, belonging to Gaussian, Inc.
  
 This software is provided under written license and may be
 used, copied, transmitted, or stored only in accord with that
 written license.
  
 The following legend is applicable only to US Government
 contracts under FAR:
  
                    RESTRICTED RIGHTS LEGEND
  
 Use, reproduction and disclosure by the US Government is
 subject to restrictions as set forth in subparagraphs (a)
 and (c) of the Commercial Computer Software - Restricted
 Rights clause in FAR 52.227-19.
  
 Gaussian, Inc.
 340 Quinnipiac St., Bldg. 40, Wallingford CT 06492
  
  
 ---------------------------------------------------------------
 Warning -- This program may not be used in any manner that
 competes with the business of Gaussian, Inc. or will provide
 assistance to any competitor of Gaussian, Inc.  The licensee
 of this program is prohibited from giving any competitor of
 Gaussian, Inc. access to this program.  By using this program,
 the user acknowledges that Gaussian, Inc. is engaged in the
 business of creating and licensing software in the field of
 computational chemistry and represents and warrants to the
 licensee that it is not a competitor of Gaussian, Inc. and that
 it will not use this program in any manner prohibited above.
 ---------------------------------------------------------------
  

 Cite this work as:
 Gaussian 16, Revision C.01,
 M. J. Frisch, G. W. Trucks, H. B. Schlegel, G. E. Scuseria, 
 M. A. Robb, J. R. Cheeseman, G. Scalmani, V. Barone, 
 G. A. Petersson, H. Nakatsuji, X. Li, M. Caricato, A. V. Marenich, 
 J. Bloino, B. G. Janesko, R. Gomperts, B. Mennucci, H. P. Hratchian, 
 J. V. Ortiz, A. F. Izmaylov, J. L. Sonnenberg, D. Williams-Young, 
 F. Ding, F. Lipparini, F. Egidi, J. Goings, B. Peng, A. Petrone, 
 T. Henderson, D. Ranasinghe, V. G. Zakrzewski, J. Gao, N. Rega, 
 G. Zheng, W. Liang, M. Hada, M. Ehara, K. Toyota, R. Fukuda, 
 J. Hasegawa, M. Ishida, T. Nakajima, Y. Honda, O. Kitao, H. Nakai, 
 T. Vreven, K. Throssell, J. A. Montgomery, Jr., J. E. Peralta, 
 F. Ogliaro, M. J. Bearpark, J. J. Heyd, E. N. Brothers, K. N. Kudin, 
 V. N. Staroverov, T. A. Keith, R. Kobayashi, J. Normand, 
 K. Raghavachari, A. P. Rendell, J. C. Burant, S. S. Iyengar, 
 J. Tomasi, M. Cossi, J. M. Millam, M. Klene, C. Adamo, R. Cammi, 
 J. W. Ochterski, R. L. Martin, K. Morokuma, O. Farkas, 
 J. B. Foresman, and D. J. Fox, Gaussian, Inc., Wallingford CT, 2019.
 
 ******************************************
 Gaussian 16:  ES64L-G16RevC.01  3-Jul-2019
                19-Dec-2022 
 ******************************************
 %nprocshared=48
 Will use up to   48 processors via shared memory.
 %mem=100GB
 ---------------------------------------
 # opt freq b3lyp/gen nosymm pseudo=read
 ---------------------------------------
 1/18=20,19=15,26=3,38=1/1,3;
 2/9=110,12=2,15=1,17=6,18=5,40=1/2;
 3/5=7,11=2,16=1,17=8,25=1,30=1,71=1,74=-5/1,2,3;
 4//1;
 5/5=2,38=5/2;
 6/7=2,8=2,9=2,10=2,28=1/1;
 7/30=1/1,2,3,16;
 1/18=20,19=15,26=3/3(2);
 2/9=110,15=1/2;
 99//99;
 2/9=110,15=1/2;
 3/5=7,6=1,11=2,16=1,17=8,25=1,30=1,71=1,74=-5,82=7/1,2,3;
 4/5=5,16=3,69=1/1;
 5/5=2,38=5/2;
 7/30=1/1,2,3,16;
 1/18=20,19=15,26=3/3(-5);
 2/9=110,15=1/2;
 6/7=2,8=2,9=2,10=2,19=2,28=1/1;
 99/9=1/99;
 -------------------
 Title Card Required
 -------------------
 Symbolic Z-matrix:
 Charge =  0 Multiplicity = 1
 42                    0.2169    1.48476   12.20923 
 16                    1.03792   3.68071   12.4673 
 16                   -2.02385   1.80856   12.81328 
 16                   -0.12107   0.92547   9.91001 
 16                    2.28919   0.05643   11.84051 
 42                   -1.9974    2.27497   10.48462 
 16                   -2.44311   1.82805   8.06557 
 16                   -1.37855   4.4839    10.60645 
 42                    0.763     3.19857   10.09441 
 16                    0.35193   3.27819   7.52383 
 16                    2.85277   2.1184    9.38598 
 42                    2.92064   2.50796   11.72079 
 42                   -1.67198   4.2088    8.318 
 16                    3.85532   2.29108   14.09926 
 16                    4.42972   4.32214   11.6425 
 16                   -3.91168   5.09692   8.11284 
 16                   -0.99876   6.63404   8.1256 
 42                   -4.35606   2.92955   8.64424 
 16                   -6.03414   2.17733   7.58827 
 16                   -4.47865   2.67208   10.85897 
 42                    2.50523   0.52006   14.08766 
 16                    3.30385  -1.08905   15.21316 
 16                    0.46378   1.08149   14.74659 
 42                    0.99785   5.62454   7.34635 
 16                   -0.21833   5.35872   5.17651 
 16                    1.50429   5.6578    9.8715 
 42                    3.37396   4.46223   9.54884 
 16                    3.39624   4.1936    7.06676 
 16                    4.92516   6.44516   9.35486 
 42                    4.30029   6.26214   7.24498 
 16                    5.94665   6.63874   5.97567 
 16                    2.45236   7.66389   6.91872 
 42                    1.67357   6.69631   4.82859 
 16                    3.06566   5.72006   3.5556 
 16                    0.53053   8.34992   3.94815 
 42                   -1.08905   7.72779   5.92137 
 6                    -2.80235   8.36093   6.77276 
 8                    -3.77306   8.76259   7.24429 
 

 GradGradGradGradGradGradGradGradGradGradGradGradGradGradGradGradGradGrad
 Berny optimization.
 Initialization pass.
                           ----------------------------
                           !    Initial Parameters    !
                           ! (Angstroms and Degrees)  !
 --------------------------                            --------------------------
 ! Name  Definition              Value          Derivative Info.                !
 --------------------------------------------------------------------------------
 ! R1    R(1,2)                  2.3586         estimate D2E/DX2                !
 ! R2    R(1,3)                  2.3432         estimate D2E/DX2                !
 ! R3    R(1,4)                  2.3903         estimate D2E/DX2                !
 ! R4    R(1,5)                  2.5437         estimate D2E/DX2                !
 ! R5    R(1,6)                  2.9158         estimate D2E/DX2                !
 ! R6    R(1,9)                  2.7763         estimate D2E/DX2                !
 ! R7    R(1,12)                 2.9319         estimate D2E/DX2                !
 ! R8    R(1,21)                 3.1138         estimate D2E/DX2                !
 ! R9    R(1,23)                 2.581          estimate D2E/DX2                !
 ! R10   R(2,9)                  2.4369         estimate D2E/DX2                !
 ! R11   R(2,12)                 2.3404         estimate D2E/DX2                !
 ! R12   R(3,6)                  2.3751         estimate D2E/DX2                !
 ! R13   R(4,6)                  2.3816         estimate D2E/DX2                !
 ! R14   R(4,9)                  2.4459         estimate D2E/DX2                !
 ! R15   R(5,12)                 2.5344         estimate D2E/DX2                !
 ! R16   R(5,21)                 2.3046         estimate D2E/DX2                !
 ! R17   R(6,7)                  2.5            estimate D2E/DX2                !
 ! R18   R(6,8)                  2.2972         estimate D2E/DX2                !
 ! R19   R(6,9)                  2.9369         estimate D2E/DX2                !
 ! R20   R(6,13)                 2.9223         estimate D2E/DX2                !
 ! R21   R(6,18)                 3.0625         estimate D2E/DX2                !
 ! R22   R(6,20)                 2.5406         estimate D2E/DX2                !
 ! R23   R(7,13)                 2.5152         estimate D2E/DX2                !
 ! R24   R(7,18)                 2.282          estimate D2E/DX2                !
 ! R25   R(8,9)                  2.5496         estimate D2E/DX2                !
 ! R26   R(8,13)                 2.3235         estimate D2E/DX2                !
 ! R27   R(9,10)                 2.6045         estimate D2E/DX2                !
 ! R28   R(9,11)                 2.4568         estimate D2E/DX2                !
 ! R29   R(9,12)                 2.7888         estimate D2E/DX2                !
 ! R30   R(9,26)                 2.5782         estimate D2E/DX2                !
 ! R31   R(9,27)                 2.9515         estimate D2E/DX2                !
 ! R32   R(10,13)                2.3649         estimate D2E/DX2                !
 ! R33   R(10,24)                2.4401         estimate D2E/DX2                !
 ! R34   R(11,12)                2.3681         estimate D2E/DX2                !
 ! R35   R(11,27)                2.4066         estimate D2E/DX2                !
 ! R36   R(12,14)                2.5647         estimate D2E/DX2                !
 ! R37   R(12,15)                2.3611         estimate D2E/DX2                !
 ! R38   R(12,21)                3.1187         estimate D2E/DX2                !
 ! R39   R(12,27)                2.9567         estimate D2E/DX2                !
 ! R40   R(13,16)                2.4181         estimate D2E/DX2                !
 ! R41   R(13,17)                2.5243         estimate D2E/DX2                !
 ! R42   R(13,18)                2.9912         estimate D2E/DX2                !
 ! R43   R(14,21)                2.227          estimate D2E/DX2                !
 ! R44   R(15,27)                2.349          estimate D2E/DX2                !
 ! R45   R(16,18)                2.2754         estimate D2E/DX2                !
 ! R46   R(17,24)                2.3691         estimate D2E/DX2                !
 ! R47   R(17,36)                2.4623         estimate D2E/DX2                !
 ! R48   R(18,19)                2.1206         estimate D2E/DX2                !
 ! R49   R(18,20)                2.233          estimate D2E/DX2                !
 ! R50   R(21,22)                2.1199         estimate D2E/DX2                !
 ! R51   R(21,23)                2.2174         estimate D2E/DX2                !
 ! R52   R(24,25)                2.5016         estimate D2E/DX2                !
 ! R53   R(24,26)                2.5756         estimate D2E/DX2                !
 ! R54   R(24,32)                2.5411         estimate D2E/DX2                !
 ! R55   R(24,33)                2.8186         estimate D2E/DX2                !
 ! R56   R(25,33)                2.343          estimate D2E/DX2                !
 ! R57   R(25,36)                2.6316         estimate D2E/DX2                !
 ! R58   R(26,27)                2.2426         estimate D2E/DX2                !
 ! R59   R(27,28)                2.4967         estimate D2E/DX2                !
 ! R60   R(27,29)                2.525          estimate D2E/DX2                !
 ! R61   R(27,30)                3.0668         estimate D2E/DX2                !
 ! R62   R(28,30)                2.2645         estimate D2E/DX2                !
 ! R63   R(29,30)                2.2081         estimate D2E/DX2                !
 ! R64   R(30,31)                2.1127         estimate D2E/DX2                !
 ! R65   R(30,32)                2.3423         estimate D2E/DX2                !
 ! R66   R(32,33)                2.4313         estimate D2E/DX2                !
 ! R67   R(33,34)                2.124          estimate D2E/DX2                !
 ! R68   R(33,35)                2.1946         estimate D2E/DX2                !
 ! R69   R(35,36)                2.6275         estimate D2E/DX2                !
 ! R70   R(36,37)                2.0152         estimate D2E/DX2                !
 ! R71   R(37,38)                1.1515         estimate D2E/DX2                !
 ! A1    A(2,1,3)              100.1376         estimate D2E/DX2                !
 ! A2    A(2,1,4)              111.8584         estimate D2E/DX2                !
 ! A3    A(2,1,5)              104.7776         estimate D2E/DX2                !
 ! A4    A(2,1,6)               94.4014         estimate D2E/DX2                !
 ! A5    A(2,1,21)              88.0874         estimate D2E/DX2                !
 ! A6    A(2,1,23)              90.264          estimate D2E/DX2                !
 ! A7    A(3,1,4)               98.3427         estimate D2E/DX2                !
 ! A8    A(3,1,5)              153.3812         estimate D2E/DX2                !
 ! A9    A(3,1,9)              107.4075         estimate D2E/DX2                !
 ! A10   A(3,1,12)             151.2335         estimate D2E/DX2                !
 ! A11   A(3,1,21)             126.1617         estimate D2E/DX2                !
 ! A12   A(3,1,23)              81.9312         estimate D2E/DX2                !
 ! A13   A(4,1,5)               81.0467         estimate D2E/DX2                !
 ! A14   A(4,1,12)              92.9691         estimate D2E/DX2                !
 ! A15   A(4,1,21)             127.7126         estimate D2E/DX2                !
 ! A16   A(4,1,23)             157.3081         estimate D2E/DX2                !
 ! A17   A(5,1,6)              133.2447         estimate D2E/DX2                !
 ! A18   A(5,1,9)               94.3562         estimate D2E/DX2                !
 ! A19   A(5,1,23)              88.673          estimate D2E/DX2                !
 ! A20   A(6,1,12)             120.4782         estimate D2E/DX2                !
 ! A21   A(6,1,23)             134.1427         estimate D2E/DX2                !
 ! A22   A(9,1,21)             120.4124         estimate D2E/DX2                !
 ! A23   A(9,1,23)             145.7389         estimate D2E/DX2                !
 ! A24   A(12,1,23)             97.475          estimate D2E/DX2                !
 ! A25   A(1,6,7)              131.2428         estimate D2E/DX2                !
 ! A26   A(1,6,8)               91.4124         estimate D2E/DX2                !
 ! A27   A(1,6,13)             122.2286         estimate D2E/DX2                !
 ! A28   A(1,6,20)             134.1785         estimate D2E/DX2                !
 ! A29   A(3,6,4)               97.704          estimate D2E/DX2                !
 ! A30   A(3,6,7)              155.7289         estimate D2E/DX2                !
 ! A31   A(3,6,8)               98.0385         estimate D2E/DX2                !
 ! A32   A(3,6,9)              101.683          estimate D2E/DX2                !
 ! A33   A(3,6,13)             149.1062         estimate D2E/DX2                !
 ! A34   A(3,6,18)             128.5066         estimate D2E/DX2                !
 ! A35   A(3,6,20)              82.8395         estimate D2E/DX2                !
 ! A36   A(4,6,7)               78.7965         estimate D2E/DX2                !
 ! A37   A(4,6,8)              110.2071         estimate D2E/DX2                !
 ! A38   A(4,6,13)              96.2206         estimate D2E/DX2                !
 ! A39   A(4,6,18)             125.6555         estimate D2E/DX2                !
 ! A40   A(4,6,20)             153.3266         estimate D2E/DX2                !
 ! A41   A(7,6,8)              105.7379         estimate D2E/DX2                !
 ! A42   A(7,6,9)               95.4643         estimate D2E/DX2                !
 ! A43   A(7,6,20)              89.7937         estimate D2E/DX2                !
 ! A44   A(8,6,18)              91.9383         estimate D2E/DX2                !
 ! A45   A(8,6,20)              96.0266         estimate D2E/DX2                !
 ! A46   A(9,6,13)              65.7143         estimate D2E/DX2                !
 ! A47   A(9,6,18)             125.2287         estimate D2E/DX2                !
 ! A48   A(9,6,20)             152.6724         estimate D2E/DX2                !
 ! A49   A(13,6,20)             96.5787         estimate D2E/DX2                !
 ! A50   A(9,8,13)              81.2915         estimate D2E/DX2                !
 ! A51   A(1,9,8)               89.5988         estimate D2E/DX2                !
 ! A52   A(1,9,10)             137.702          estimate D2E/DX2                !
 ! A53   A(1,9,11)              96.6359         estimate D2E/DX2                !
 ! A54   A(1,9,26)             135.3358         estimate D2E/DX2                !
 ! A55   A(1,9,27)             125.387          estimate D2E/DX2                !
 ! A56   A(2,9,4)              107.3406         estimate D2E/DX2                !
 ! A57   A(2,9,6)               92.2281         estimate D2E/DX2                !
 ! A58   A(2,9,8)               78.4318         estimate D2E/DX2                !
 ! A59   A(2,9,11)             105.7718         estimate D2E/DX2                !
 ! A60   A(2,9,26)              82.1277         estimate D2E/DX2                !
 ! A61   A(2,9,27)              89.7415         estimate D2E/DX2                !
 ! A62   A(4,9,8)              100.3726         estimate D2E/DX2                !
 ! A63   A(4,9,10)              84.0852         estimate D2E/DX2                !
 ! A64   A(4,9,11)              82.9409         estimate D2E/DX2                !
 ! A65   A(4,9,12)              95.3632         estimate D2E/DX2                !
 ! A66   A(4,9,27)             134.7233         estimate D2E/DX2                !
 ! A67   A(6,9,10)              89.5646         estimate D2E/DX2                !
 ! A68   A(6,9,11)             134.3906         estimate D2E/DX2                !
 ! A69   A(6,9,12)             124.8778         estimate D2E/DX2                !
 ! A70   A(6,9,26)             125.5711         estimate D2E/DX2                !
 ! A71   A(8,9,10)              92.8793         estimate D2E/DX2                !
 ! A72   A(8,9,12)             131.1152         estimate D2E/DX2                !
 ! A73   A(8,9,26)              77.1735         estimate D2E/DX2                !
 ! A74   A(8,9,27)             124.3551         estimate D2E/DX2                !
 ! A75   A(10,9,11)             82.131          estimate D2E/DX2                !
 ! A76   A(10,9,12)            134.8519         estimate D2E/DX2                !
 ! A77   A(10,9,26)             86.0369         estimate D2E/DX2                !
 ! A78   A(10,9,27)             86.7951         estimate D2E/DX2                !
 ! A79   A(11,9,26)             98.6202         estimate D2E/DX2                !
 ! A80   A(12,9,26)             93.68           estimate D2E/DX2                !
 ! A81   A(9,10,13)             79.3773         estimate D2E/DX2                !
 ! A82   A(9,10,24)             93.4054         estimate D2E/DX2                !
 ! A83   A(13,10,24)            82.6794         estimate D2E/DX2                !
 ! A84   A(1,12,11)             94.6123         estimate D2E/DX2                !
 ! A85   A(1,12,14)             98.7469         estimate D2E/DX2                !
 ! A86   A(1,12,15)            149.6668         estimate D2E/DX2                !
 ! A87   A(1,12,27)            119.6332         estimate D2E/DX2                !
 ! A88   A(2,12,5)             105.6175         estimate D2E/DX2                !
 ! A89   A(2,12,11)            111.9544         estimate D2E/DX2                !
 ! A90   A(2,12,14)             92.2778         estimate D2E/DX2                !
 ! A91   A(2,12,15)             98.0316         estimate D2E/DX2                !
 ! A92   A(2,12,21)             88.2909         estimate D2E/DX2                !
 ! A93   A(2,12,27)             91.5154         estimate D2E/DX2                !
 ! A94   A(5,12,9)              94.2623         estimate D2E/DX2                !
 ! A95   A(5,12,11)             83.1254         estimate D2E/DX2                !
 ! A96   A(5,12,14)             88.0053         estimate D2E/DX2                !
 ! A97   A(5,12,15)            154.6976         estimate D2E/DX2                !
 ! A98   A(5,12,27)            135.4188         estimate D2E/DX2                !
 ! A99   A(9,12,14)            147.5359         estimate D2E/DX2                !
 ! A100  A(9,12,15)            106.5517         estimate D2E/DX2                !
 ! A101  A(9,12,21)            119.8269         estimate D2E/DX2                !
 ! A102  A(11,12,14)           155.6291         estimate D2E/DX2                !
 ! A103  A(11,12,15)            96.4322         estimate D2E/DX2                !
 ! A104  A(11,12,21)           129.7614         estimate D2E/DX2                !
 ! A105  A(14,12,15)            82.1142         estimate D2E/DX2                !
 ! A106  A(14,12,27)           132.9424         estimate D2E/DX2                !
 ! A107  A(15,12,21)           126.8747         estimate D2E/DX2                !
 ! A108  A(6,13,10)             94.8113         estimate D2E/DX2                !
 ! A109  A(6,13,16)            101.7014         estimate D2E/DX2                !
 ! A110  A(6,13,17)            136.2192         estimate D2E/DX2                !
 ! A111  A(7,13,8)             104.4557         estimate D2E/DX2                !
 ! A112  A(7,13,10)             81.7327         estimate D2E/DX2                !
 ! A113  A(7,13,16)             93.1625         estimate D2E/DX2                !
 ! A114  A(8,13,10)            105.6198         estimate D2E/DX2                !
 ! A115  A(8,13,16)             99.0356         estimate D2E/DX2                !
 ! A116  A(8,13,17)             85.8503         estimate D2E/DX2                !
 ! A117  A(8,13,18)             93.241          estimate D2E/DX2                !
 ! A118  A(10,13,16)           155.3265         estimate D2E/DX2                !
 ! A119  A(10,13,17)            97.136          estimate D2E/DX2                !
 ! A120  A(10,13,18)           129.5141         estimate D2E/DX2                !
 ! A121  A(16,13,17)            83.5511         estimate D2E/DX2                !
 ! A122  A(17,13,18)           131.1872         estimate D2E/DX2                !
 ! A123  A(13,17,24)            80.8189         estimate D2E/DX2                !
 ! A124  A(13,17,36)           119.0264         estimate D2E/DX2                !
 ! A125  A(24,17,36)            85.7412         estimate D2E/DX2                !
 ! A126  A(6,18,16)            101.1586         estimate D2E/DX2                !
 ! A127  A(6,18,19)            146.3976         estimate D2E/DX2                !
 ! A128  A(7,18,16)            103.7001         estimate D2E/DX2                !
 ! A129  A(7,18,19)            111.4602         estimate D2E/DX2                !
 ! A130  A(7,18,20)            103.997          estimate D2E/DX2                !
 ! A131  A(13,18,19)           143.85           estimate D2E/DX2                !
 ! A132  A(13,18,20)           101.932          estimate D2E/DX2                !
 ! A133  A(16,18,19)           112.0945         estimate D2E/DX2                !
 ! A134  A(16,18,20)           110.6207         estimate D2E/DX2                !
 ! A135  A(19,18,20)           114.1762         estimate D2E/DX2                !
 ! A136  A(1,21,14)            101.6712         estimate D2E/DX2                !
 ! A137  A(1,21,22)            146.3384         estimate D2E/DX2                !
 ! A138  A(5,21,14)            102.8202         estimate D2E/DX2                !
 ! A139  A(5,21,22)            113.597          estimate D2E/DX2                !
 ! A140  A(5,21,23)            104.7371         estimate D2E/DX2                !
 ! A141  A(12,21,22)           146.7821         estimate D2E/DX2                !
 ! A142  A(12,21,23)           100.7643         estimate D2E/DX2                !
 ! A143  A(14,21,22)           111.8697         estimate D2E/DX2                !
 ! A144  A(14,21,23)           110.8082         estimate D2E/DX2                !
 ! A145  A(22,21,23)           112.4113         estimate D2E/DX2                !
 ! A146  A(10,24,17)            99.3653         estimate D2E/DX2                !
 ! A147  A(10,24,25)            80.3411         estimate D2E/DX2                !
 ! A148  A(10,24,26)            89.6081         estimate D2E/DX2                !
 ! A149  A(10,24,32)           159.3018         estimate D2E/DX2                !
 ! A150  A(10,24,33)           119.6086         estimate D2E/DX2                !
 ! A151  A(17,24,25)            85.4607         estimate D2E/DX2                !
 ! A152  A(17,24,26)            80.6618         estimate D2E/DX2                !
 ! A153  A(17,24,32)           101.2895         estimate D2E/DX2                !
 ! A154  A(17,24,33)           109.5011         estimate D2E/DX2                !
 ! A155  A(25,24,26)           161.3236         estimate D2E/DX2                !
 ! A156  A(25,24,32)           102.567          estimate D2E/DX2                !
 ! A157  A(26,24,32)            92.4114         estimate D2E/DX2                !
 ! A158  A(26,24,33)           145.4578         estimate D2E/DX2                !
 ! A159  A(24,25,36)            79.6123         estimate D2E/DX2                !
 ! A160  A(33,25,36)            78.1859         estimate D2E/DX2                !
 ! A161  A(9,26,24)             90.9118         estimate D2E/DX2                !
 ! A162  A(24,26,27)            90.916          estimate D2E/DX2                !
 ! A163  A(9,27,15)            101.9645         estimate D2E/DX2                !
 ! A164  A(9,27,28)             98.3717         estimate D2E/DX2                !
 ! A165  A(9,27,29)            153.3615         estimate D2E/DX2                !
 ! A166  A(9,27,30)            131.0958         estimate D2E/DX2                !
 ! A167  A(11,27,15)            95.7144         estimate D2E/DX2                !
 ! A168  A(11,27,26)           110.3893         estimate D2E/DX2                !
 ! A169  A(11,27,28)            80.2048         estimate D2E/DX2                !
 ! A170  A(11,27,29)           153.2105         estimate D2E/DX2                !
 ! A171  A(11,27,30)           125.8855         estimate D2E/DX2                !
 ! A172  A(12,27,26)            96.8261         estimate D2E/DX2                !
 ! A173  A(12,27,28)           131.3418         estimate D2E/DX2                !
 ! A174  A(12,27,29)           132.0423         estimate D2E/DX2                !
 ! A175  A(15,27,26)           106.157          estimate D2E/DX2                !
 ! A176  A(15,27,28)           151.1246         estimate D2E/DX2                !
 ! A177  A(15,27,29)            80.7464         estimate D2E/DX2                !
 ! A178  A(15,27,30)           124.6673         estimate D2E/DX2                !
 ! A179  A(26,27,28)           101.9957         estimate D2E/DX2                !
 ! A180  A(26,27,29)            96.0019         estimate D2E/DX2                !
 ! A181  A(26,27,30)            92.6949         estimate D2E/DX2                !
 ! A182  A(28,27,29)            90.151          estimate D2E/DX2                !
 ! A183  A(27,30,31)           142.3093         estimate D2E/DX2                !
 ! A184  A(27,30,32)           102.5664         estimate D2E/DX2                !
 ! A185  A(28,30,29)           105.3013         estimate D2E/DX2                !
 ! A186  A(28,30,31)           115.2552         estimate D2E/DX2                !
 ! A187  A(28,30,32)           102.7524         estimate D2E/DX2                !
 ! A188  A(29,30,31)           109.8028         estimate D2E/DX2                !
 ! A189  A(29,30,32)           107.8643         estimate D2E/DX2                !
 ! A190  A(31,30,32)           115.1153         estimate D2E/DX2                !
 ! A191  A(24,32,30)            87.0112         estimate D2E/DX2                !
 ! A192  A(30,32,33)            97.7176         estimate D2E/DX2                !
 ! A193  A(24,33,34)           121.1792         estimate D2E/DX2                !
 ! A194  A(24,33,35)           121.3339         estimate D2E/DX2                !
 ! A195  A(25,33,32)           110.989          estimate D2E/DX2                !
 ! A196  A(25,33,34)           110.8442         estimate D2E/DX2                !
 ! A197  A(25,33,35)            93.9662         estimate D2E/DX2                !
 ! A198  A(32,33,34)           119.2224         estimate D2E/DX2                !
 ! A199  A(32,33,35)           102.2312         estimate D2E/DX2                !
 ! A200  A(34,33,35)           116.5671         estimate D2E/DX2                !
 ! A201  A(33,35,36)            80.8712         estimate D2E/DX2                !
 ! A202  A(17,36,25)            80.8724         estimate D2E/DX2                !
 ! A203  A(17,36,35)           139.0118         estimate D2E/DX2                !
 ! A204  A(17,36,37)            78.0263         estimate D2E/DX2                !
 ! A205  A(25,36,35)            78.2669         estimate D2E/DX2                !
 ! A206  A(25,36,37)           133.1343         estimate D2E/DX2                !
 ! A207  A(35,36,37)           140.0794         estimate D2E/DX2                !
 ! A208  L(6,1,21,2,-1)        182.4888         estimate D2E/DX2                !
 ! A209  L(1,6,18,8,-1)        183.3507         estimate D2E/DX2                !
 ! A210  L(2,9,10,4,-1)        191.4258         estimate D2E/DX2                !
 ! A211  L(4,9,26,2,-1)        189.4683         estimate D2E/DX2                !
 ! A212  L(6,9,27,10,-1)       176.3598         estimate D2E/DX2                !
 ! A213  L(8,9,11,1,-1)        186.2347         estimate D2E/DX2                !
 ! A214  L(21,12,27,2,-1)      179.8062         estimate D2E/DX2                !
 ! A215  L(7,13,17,8,-1)       190.306          estimate D2E/DX2                !
 ! A216  L(12,27,30,26,-1)     189.521          estimate D2E/DX2                !
 ! A217  L(36,37,38,1,-1)      181.8467         estimate D2E/DX2                !
 ! A218  L(6,1,21,2,-2)        178.9127         estimate D2E/DX2                !
 ! A219  L(1,6,18,8,-2)        179.5326         estimate D2E/DX2                !
 ! A220  L(2,9,10,4,-2)        172.8563         estimate D2E/DX2                !
 ! A221  L(4,9,26,2,-2)        184.1738         estimate D2E/DX2                !
 ! A222  L(6,9,27,10,-2)       173.0575         estimate D2E/DX2                !
 ! A223  L(8,9,11,1,-2)        179.4258         estimate D2E/DX2                !
 ! A224  L(21,12,27,2,-2)      177.7503         estimate D2E/DX2                !
 ! A225  L(7,13,17,8,-2)       181.5501         estimate D2E/DX2                !
 ! A226  L(12,27,30,26,-2)     178.952          estimate D2E/DX2                !
 ! A227  L(36,37,38,1,-2)      178.836          estimate D2E/DX2                !
 ! D1    D(2,1,6,7)            112.242          estimate D2E/DX2                !
 ! D2    D(2,1,6,8)             -0.2436         estimate D2E/DX2                !
 ! D3    D(2,1,6,13)            43.2145         estimate D2E/DX2                !
 ! D4    D(2,1,6,20)          -100.0546         estimate D2E/DX2                !
 ! D5    D(5,1,6,7)             -2.8193         estimate D2E/DX2                !
 ! D6    D(5,1,6,8)           -115.3049         estimate D2E/DX2                !
 ! D7    D(5,1,6,13)           -71.8469         estimate D2E/DX2                !
 ! D8    D(5,1,6,20)           144.8841         estimate D2E/DX2                !
 ! D9    D(12,1,6,7)            65.495          estimate D2E/DX2                !
 ! D10   D(12,1,6,8)           -46.9906         estimate D2E/DX2                !
 ! D11   D(12,1,6,13)           -3.5326         estimate D2E/DX2                !
 ! D12   D(12,1,6,20)         -146.8016         estimate D2E/DX2                !
 ! D13   D(23,1,6,7)          -153.1038         estimate D2E/DX2                !
 ! D14   D(23,1,6,8)            94.4106         estimate D2E/DX2                !
 ! D15   D(23,1,6,13)          137.8686         estimate D2E/DX2                !
 ! D16   D(23,1,6,20)           -5.4004         estimate D2E/DX2                !
 ! D17   D(3,1,9,8)             14.7905         estimate D2E/DX2                !
 ! D18   D(3,1,9,10)           -79.0482         estimate D2E/DX2                !
 ! D19   D(3,1,9,11)          -164.6353         estimate D2E/DX2                !
 ! D20   D(3,1,9,26)            85.9519         estimate D2E/DX2                !
 ! D21   D(3,1,9,27)           148.2025         estimate D2E/DX2                !
 ! D22   D(5,1,9,8)            179.2656         estimate D2E/DX2                !
 ! D23   D(5,1,9,10)            85.427          estimate D2E/DX2                !
 ! D24   D(5,1,9,11)            -0.1602         estimate D2E/DX2                !
 ! D25   D(5,1,9,26)          -109.573          estimate D2E/DX2                !
 ! D26   D(5,1,9,27)           -47.3223         estimate D2E/DX2                !
 ! D27   D(21,1,9,8)          -139.5106         estimate D2E/DX2                !
 ! D28   D(21,1,9,10)          126.6507         estimate D2E/DX2                !
 ! D29   D(21,1,9,11)           41.0636         estimate D2E/DX2                !
 ! D30   D(21,1,9,26)          -68.3492         estimate D2E/DX2                !
 ! D31   D(21,1,9,27)           -6.0986         estimate D2E/DX2                !
 ! D32   D(23,1,9,8)           -86.6872         estimate D2E/DX2                !
 ! D33   D(23,1,9,10)          179.4742         estimate D2E/DX2                !
 ! D34   D(23,1,9,11)           93.887          estimate D2E/DX2                !
 ! D35   D(23,1,9,26)          -15.5258         estimate D2E/DX2                !
 ! D36   D(23,1,9,27)           46.7249         estimate D2E/DX2                !
 ! D37   D(3,1,12,11)         -111.9111         estimate D2E/DX2                !
 ! D38   D(3,1,12,14)           88.5321         estimate D2E/DX2                !
 ! D39   D(3,1,12,15)           -0.7853         estimate D2E/DX2                !
 ! D40   D(3,1,12,27)          -63.1729         estimate D2E/DX2                !
 ! D41   D(4,1,12,11)            1.441          estimate D2E/DX2                !
 ! D42   D(4,1,12,14)         -158.1158         estimate D2E/DX2                !
 ! D43   D(4,1,12,15)          112.5668         estimate D2E/DX2                !
 ! D44   D(4,1,12,27)           50.1792         estimate D2E/DX2                !
 ! D45   D(6,1,12,11)          -45.5902         estimate D2E/DX2                !
 ! D46   D(6,1,12,14)          154.853          estimate D2E/DX2                !
 ! D47   D(6,1,12,15)           65.5357         estimate D2E/DX2                !
 ! D48   D(6,1,12,27)            3.148          estimate D2E/DX2                !
 ! D49   D(23,1,12,11)         161.2514         estimate D2E/DX2                !
 ! D50   D(23,1,12,14)           1.6947         estimate D2E/DX2                !
 ! D51   D(23,1,12,15)         -87.6227         estimate D2E/DX2                !
 ! D52   D(23,1,12,27)        -150.0103         estimate D2E/DX2                !
 ! D53   D(2,1,21,14)          -15.0337         estimate D2E/DX2                !
 ! D54   D(2,1,21,22)          169.831          estimate D2E/DX2                !
 ! D55   D(3,1,21,14)         -116.2041         estimate D2E/DX2                !
 ! D56   D(3,1,21,22)           68.6606         estimate D2E/DX2                !
 ! D57   D(4,1,21,14)          101.3945         estimate D2E/DX2                !
 ! D58   D(4,1,21,22)          -73.7408         estimate D2E/DX2                !
 ! D59   D(9,1,21,14)           32.9644         estimate D2E/DX2                !
 ! D60   D(9,1,21,22)         -142.1709         estimate D2E/DX2                !
 ! D61   D(1,2,9,12)           -82.5406         estimate D2E/DX2                !
 ! D62   D(1,4,6,9)             72.8649         estimate D2E/DX2                !
 ! D63   D(1,5,12,21)           82.537          estimate D2E/DX2                !
 ! D64   D(3,6,9,2)            -19.4919         estimate D2E/DX2                !
 ! D65   D(3,6,9,10)           173.7829         estimate D2E/DX2                !
 ! D66   D(3,6,9,11)            95.2635         estimate D2E/DX2                !
 ! D67   D(3,6,9,12)            25.0859         estimate D2E/DX2                !
 ! D68   D(3,6,9,26)          -101.4042         estimate D2E/DX2                !
 ! D69   D(7,6,9,2)            177.7763         estimate D2E/DX2                !
 ! D70   D(7,6,9,10)            11.051          estimate D2E/DX2                !
 ! D71   D(7,6,9,11)           -67.4684         estimate D2E/DX2                !
 ! D72   D(7,6,9,12)          -137.6459         estimate D2E/DX2                !
 ! D73   D(7,6,9,26)            95.864          estimate D2E/DX2                !
 ! D74   D(13,6,9,2)           130.7404         estimate D2E/DX2                !
 ! D75   D(13,6,9,10)          -35.9848         estimate D2E/DX2                !
 ! D76   D(13,6,9,11)         -114.5042         estimate D2E/DX2                !
 ! D77   D(13,6,9,12)          175.3182         estimate D2E/DX2                !
 ! D78   D(13,6,9,26)           48.8281         estimate D2E/DX2                !
 ! D79   D(18,6,9,2)           138.0777         estimate D2E/DX2                !
 ! D80   D(18,6,9,10)          -28.6475         estimate D2E/DX2                !
 ! D81   D(18,6,9,11)         -107.1669         estimate D2E/DX2                !
 ! D82   D(18,6,9,12)         -177.3445         estimate D2E/DX2                !
 ! D83   D(18,6,9,26)           56.1654         estimate D2E/DX2                !
 ! D84   D(20,6,9,2)            77.5671         estimate D2E/DX2                !
 ! D85   D(20,6,9,10)          -89.1581         estimate D2E/DX2                !
 ! D86   D(20,6,9,11)         -167.6775         estimate D2E/DX2                !
 ! D87   D(20,6,9,12)          122.1449         estimate D2E/DX2                !
 ! D88   D(20,6,9,26)           -4.3452         estimate D2E/DX2                !
 ! D89   D(1,6,13,10)           44.3616         estimate D2E/DX2                !
 ! D90   D(1,6,13,16)         -154.07           estimate D2E/DX2                !
 ! D91   D(1,6,13,17)          -61.1841         estimate D2E/DX2                !
 ! D92   D(3,6,13,10)          111.7425         estimate D2E/DX2                !
 ! D93   D(3,6,13,16)          -86.6892         estimate D2E/DX2                !
 ! D94   D(3,6,13,17)            6.1968         estimate D2E/DX2                !
 ! D95   D(4,6,13,10)           -4.6682         estimate D2E/DX2                !
 ! D96   D(4,6,13,16)          156.9002         estimate D2E/DX2                !
 ! D97   D(4,6,13,17)         -110.2139         estimate D2E/DX2                !
 ! D98   D(9,6,13,10)           40.4926         estimate D2E/DX2                !
 ! D99   D(9,6,13,16)         -157.9391         estimate D2E/DX2                !
 ! D100  D(9,6,13,17)          -65.0532         estimate D2E/DX2                !
 ! D101  D(20,6,13,10)        -161.2172         estimate D2E/DX2                !
 ! D102  D(20,6,13,16)           0.3511         estimate D2E/DX2                !
 ! D103  D(20,6,13,17)          93.2371         estimate D2E/DX2                !
 ! D104  D(3,6,18,16)          112.8171         estimate D2E/DX2                !
 ! D105  D(3,6,18,19)          -75.4499         estimate D2E/DX2                !
 ! D106  D(4,6,18,16)         -105.7748         estimate D2E/DX2                !
 ! D107  D(4,6,18,19)           65.9582         estimate D2E/DX2                !
 ! D108  D(8,6,18,16)           10.945          estimate D2E/DX2                !
 ! D109  D(8,6,18,19)         -177.322          estimate D2E/DX2                !
 ! D110  D(9,6,18,16)          -38.661          estimate D2E/DX2                !
 ! D111  D(9,6,18,19)          133.072          estimate D2E/DX2                !
 ! D112  D(6,7,13,18)          -83.1608         estimate D2E/DX2                !
 ! D113  D(13,8,9,1)          -131.2131         estimate D2E/DX2                !
 ! D114  D(13,8,9,2)           176.2585         estimate D2E/DX2                !
 ! D115  D(13,8,9,4)           -77.9691         estimate D2E/DX2                !
 ! D116  D(13,8,9,10)            6.5401         estimate D2E/DX2                !
 ! D117  D(13,8,9,12)          175.419          estimate D2E/DX2                !
 ! D118  D(13,8,9,26)           91.8121         estimate D2E/DX2                !
 ! D119  D(13,8,9,27)           94.6246         estimate D2E/DX2                !
 ! D120  D(9,8,13,7)            77.8157         estimate D2E/DX2                !
 ! D121  D(9,8,13,10)           -7.4742         estimate D2E/DX2                !
 ! D122  D(9,8,13,16)          173.479          estimate D2E/DX2                !
 ! D123  D(9,8,13,17)         -103.7343         estimate D2E/DX2                !
 ! D124  D(9,8,13,18)          125.1788         estimate D2E/DX2                !
 ! D125  D(1,9,10,13)           86.1093         estimate D2E/DX2                !
 ! D126  D(1,9,10,24)          168.0017         estimate D2E/DX2                !
 ! D127  D(4,9,10,13)           93.6768         estimate D2E/DX2                !
 ! D128  D(4,9,10,24)          175.5692         estimate D2E/DX2                !
 ! D129  D(6,9,10,13)           42.325          estimate D2E/DX2                !
 ! D130  D(6,9,10,24)          124.2174         estimate D2E/DX2                !
 ! D131  D(8,9,10,13)           -6.4619         estimate D2E/DX2                !
 ! D132  D(8,9,10,24)           75.4305         estimate D2E/DX2                !
 ! D133  D(11,9,10,13)         177.338          estimate D2E/DX2                !
 ! D134  D(11,9,10,24)        -100.7696         estimate D2E/DX2                !
 ! D135  D(12,9,10,13)        -174.6336         estimate D2E/DX2                !
 ! D136  D(12,9,10,24)         -92.7412         estimate D2E/DX2                !
 ! D137  D(26,9,10,13)         -83.3827         estimate D2E/DX2                !
 ! D138  D(26,9,10,24)          -1.4903         estimate D2E/DX2                !
 ! D139  D(27,9,10,13)        -130.7325         estimate D2E/DX2                !
 ! D140  D(27,9,10,24)         -48.8401         estimate D2E/DX2                !
 ! D141  D(4,9,12,5)            -1.7548         estimate D2E/DX2                !
 ! D142  D(4,9,12,14)          -94.7427         estimate D2E/DX2                !
 ! D143  D(4,9,12,15)          163.6912         estimate D2E/DX2                !
 ! D144  D(4,9,12,21)          -43.185          estimate D2E/DX2                !
 ! D145  D(6,9,12,5)            44.1335         estimate D2E/DX2                !
 ! D146  D(6,9,12,14)          -48.8544         estimate D2E/DX2                !
 ! D147  D(6,9,12,15)         -150.4205         estimate D2E/DX2                !
 ! D148  D(6,9,12,21)            2.7032         estimate D2E/DX2                !
 ! D149  D(8,9,12,5)           107.0278         estimate D2E/DX2                !
 ! D150  D(8,9,12,14)           14.0399         estimate D2E/DX2                !
 ! D151  D(8,9,12,15)          -87.5262         estimate D2E/DX2                !
 ! D152  D(8,9,12,21)           65.5975         estimate D2E/DX2                !
 ! D153  D(10,9,12,5)          -88.7396         estimate D2E/DX2                !
 ! D154  D(10,9,12,14)         178.2725         estimate D2E/DX2                !
 ! D155  D(10,9,12,15)          76.7064         estimate D2E/DX2                !
 ! D156  D(10,9,12,21)        -130.1699         estimate D2E/DX2                !
 ! D157  D(26,9,12,5)         -176.8079         estimate D2E/DX2                !
 ! D158  D(26,9,12,14)          90.2042         estimate D2E/DX2                !
 ! D159  D(26,9,12,15)         -11.3619         estimate D2E/DX2                !
 ! D160  D(26,9,12,21)         141.7618         estimate D2E/DX2                !
 ! D161  D(1,9,26,24)         -168.5352         estimate D2E/DX2                !
 ! D162  D(2,9,26,24)         -172.3109         estimate D2E/DX2                !
 ! D163  D(6,9,26,24)          -85.2132         estimate D2E/DX2                !
 ! D164  D(8,9,26,24)          -92.456          estimate D2E/DX2                !
 ! D165  D(10,9,26,24)           1.4095         estimate D2E/DX2                !
 ! D166  D(11,9,26,24)          82.8227         estimate D2E/DX2                !
 ! D167  D(12,9,26,24)         136.1561         estimate D2E/DX2                !
 ! D168  D(1,9,27,15)          -20.4262         estimate D2E/DX2                !
 ! D169  D(1,9,27,28)          138.955          estimate D2E/DX2                !
 ! D170  D(1,9,27,29)         -113.6278         estimate D2E/DX2                !
 ! D171  D(1,9,27,30)          176.5607         estimate D2E/DX2                !
 ! D172  D(2,9,27,15)           22.1834         estimate D2E/DX2                !
 ! D173  D(2,9,27,28)         -178.4355         estimate D2E/DX2                !
 ! D174  D(2,9,27,29)          -71.0183         estimate D2E/DX2                !
 ! D175  D(2,9,27,30)         -140.8298         estimate D2E/DX2                !
 ! D176  D(4,9,27,15)          -92.3373         estimate D2E/DX2                !
 ! D177  D(4,9,27,28)           67.0438         estimate D2E/DX2                !
 ! D178  D(4,9,27,29)          174.461          estimate D2E/DX2                !
 ! D179  D(4,9,27,30)          104.6495         estimate D2E/DX2                !
 ! D180  D(8,9,27,15)           97.9427         estimate D2E/DX2                !
 ! D181  D(8,9,27,28)         -102.6761         estimate D2E/DX2                !
 ! D182  D(8,9,27,29)            4.7411         estimate D2E/DX2                !
 ! D183  D(8,9,27,30)          -65.0704         estimate D2E/DX2                !
 ! D184  D(10,9,27,15)        -170.7584         estimate D2E/DX2                !
 ! D185  D(10,9,27,28)         -11.3773         estimate D2E/DX2                !
 ! D186  D(10,9,27,29)          96.0399         estimate D2E/DX2                !
 ! D187  D(10,9,27,30)          26.2284         estimate D2E/DX2                !
 ! D188  D(9,10,13,6)          -42.7704         estimate D2E/DX2                !
 ! D189  D(9,10,13,7)          -95.4277         estimate D2E/DX2                !
 ! D190  D(9,10,13,8)            7.3578         estimate D2E/DX2                !
 ! D191  D(9,10,13,16)        -174.8977         estimate D2E/DX2                !
 ! D192  D(9,10,13,17)          95.024          estimate D2E/DX2                !
 ! D193  D(9,10,13,18)        -100.5012         estimate D2E/DX2                !
 ! D194  D(24,10,13,6)        -137.648          estimate D2E/DX2                !
 ! D195  D(24,10,13,7)         169.6947         estimate D2E/DX2                !
 ! D196  D(24,10,13,8)         -87.5198         estimate D2E/DX2                !
 ! D197  D(24,10,13,16)         90.2247         estimate D2E/DX2                !
 ! D198  D(24,10,13,17)          0.1464         estimate D2E/DX2                !
 ! D199  D(24,10,13,18)        164.6212         estimate D2E/DX2                !
 ! D200  D(9,10,24,17)         -78.9805         estimate D2E/DX2                !
 ! D201  D(9,10,24,25)        -162.6978         estimate D2E/DX2                !
 ! D202  D(9,10,24,26)           1.4882         estimate D2E/DX2                !
 ! D203  D(9,10,24,32)          97.2816         estimate D2E/DX2                !
 ! D204  D(9,10,24,33)         162.1462         estimate D2E/DX2                !
 ! D205  D(13,10,24,17)         -0.1568         estimate D2E/DX2                !
 ! D206  D(13,10,24,25)        -83.874          estimate D2E/DX2                !
 ! D207  D(13,10,24,26)         80.3119         estimate D2E/DX2                !
 ! D208  D(13,10,24,32)        176.1054         estimate D2E/DX2                !
 ! D209  D(13,10,24,33)       -119.0301         estimate D2E/DX2                !
 ! D210  D(9,11,12,27)         -78.2973         estimate D2E/DX2                !
 ! D211  D(2,12,21,22)        -169.8635         estimate D2E/DX2                !
 ! D212  D(2,12,21,23)          13.0223         estimate D2E/DX2                !
 ! D213  D(9,12,21,22)         141.6994         estimate D2E/DX2                !
 ! D214  D(9,12,21,23)         -35.4148         estimate D2E/DX2                !
 ! D215  D(11,12,21,22)         72.6366         estimate D2E/DX2                !
 ! D216  D(11,12,21,23)       -104.4776         estimate D2E/DX2                !
 ! D217  D(15,12,21,22)        -71.1001         estimate D2E/DX2                !
 ! D218  D(15,12,21,23)        111.7857         estimate D2E/DX2                !
 ! D219  D(1,12,27,26)          39.5438         estimate D2E/DX2                !
 ! D220  D(1,12,27,28)         -73.0456         estimate D2E/DX2                !
 ! D221  D(1,12,27,29)         144.006          estimate D2E/DX2                !
 ! D222  D(2,12,27,26)          -6.138          estimate D2E/DX2                !
 ! D223  D(2,12,27,28)        -118.7274         estimate D2E/DX2                !
 ! D224  D(2,12,27,29)          98.3243         estimate D2E/DX2                !
 ! D225  D(5,12,27,26)         108.0994         estimate D2E/DX2                !
 ! D226  D(5,12,27,28)          -4.49           estimate D2E/DX2                !
 ! D227  D(5,12,27,29)        -147.4383         estimate D2E/DX2                !
 ! D228  D(14,12,27,26)       -100.6651         estimate D2E/DX2                !
 ! D229  D(14,12,27,28)        146.7455         estimate D2E/DX2                !
 ! D230  D(14,12,27,29)          3.7972         estimate D2E/DX2                !
 ! D231  D(6,13,17,24)         104.4923         estimate D2E/DX2                !
 ! D232  D(6,13,17,36)        -175.6282         estimate D2E/DX2                !
 ! D233  D(8,13,17,24)         105.0958         estimate D2E/DX2                !
 ! D234  D(8,13,17,36)        -175.0247         estimate D2E/DX2                !
 ! D235  D(10,13,17,24)         -0.1514         estimate D2E/DX2                !
 ! D236  D(10,13,17,36)         79.728          estimate D2E/DX2                !
 ! D237  D(16,13,17,24)       -155.3102         estimate D2E/DX2                !
 ! D238  D(16,13,17,36)        -75.4308         estimate D2E/DX2                !
 ! D239  D(18,13,17,24)       -164.226          estimate D2E/DX2                !
 ! D240  D(18,13,17,36)        -84.3466         estimate D2E/DX2                !
 ! D241  D(8,13,18,19)         175.0163         estimate D2E/DX2                !
 ! D242  D(8,13,18,20)          -7.7342         estimate D2E/DX2                !
 ! D243  D(10,13,18,19)        -71.6382         estimate D2E/DX2                !
 ! D244  D(10,13,18,20)        105.6114         estimate D2E/DX2                !
 ! D245  D(17,13,18,19)         87.6963         estimate D2E/DX2                !
 ! D246  D(17,13,18,20)        -95.0541         estimate D2E/DX2                !
 ! D247  D(13,17,24,10)          0.1476         estimate D2E/DX2                !
 ! D248  D(13,17,24,25)         79.5636         estimate D2E/DX2                !
 ! D249  D(13,17,24,26)        -87.8956         estimate D2E/DX2                !
 ! D250  D(13,17,24,32)       -178.506          estimate D2E/DX2                !
 ! D251  D(13,17,24,33)        126.2782         estimate D2E/DX2                !
 ! D252  D(36,17,24,10)       -120.1775         estimate D2E/DX2                !
 ! D253  D(36,17,24,25)        -40.7616         estimate D2E/DX2                !
 ! D254  D(36,17,24,26)        151.7793         estimate D2E/DX2                !
 ! D255  D(36,17,24,32)         61.1688         estimate D2E/DX2                !
 ! D256  D(36,17,24,33)          5.9531         estimate D2E/DX2                !
 ! D257  D(13,17,36,25)        -38.2353         estimate D2E/DX2                !
 ! D258  D(13,17,36,35)        -98.3072         estimate D2E/DX2                !
 ! D259  D(13,17,36,37)         99.6628         estimate D2E/DX2                !
 ! D260  D(24,17,36,25)         38.8027         estimate D2E/DX2                !
 ! D261  D(24,17,36,35)        -21.2691         estimate D2E/DX2                !
 ! D262  D(24,17,36,37)        176.7009         estimate D2E/DX2                !
 ! D263  D(10,24,25,36)        138.5879         estimate D2E/DX2                !
 ! D264  D(17,24,25,36)         38.2705         estimate D2E/DX2                !
 ! D265  D(26,24,25,36)         80.2673         estimate D2E/DX2                !
 ! D266  D(32,24,25,36)        -62.3034         estimate D2E/DX2                !
 ! D267  D(10,24,26,9)          -1.5009         estimate D2E/DX2                !
 ! D268  D(10,24,26,27)         73.6553         estimate D2E/DX2                !
 ! D269  D(17,24,26,9)          98.0569         estimate D2E/DX2                !
 ! D270  D(17,24,26,27)        173.2131         estimate D2E/DX2                !
 ! D271  D(25,24,26,9)          55.5291         estimate D2E/DX2                !
 ! D272  D(25,24,26,27)        130.6853         estimate D2E/DX2                !
 ! D273  D(32,24,26,9)        -160.8942         estimate D2E/DX2                !
 ! D274  D(32,24,26,27)        -85.738          estimate D2E/DX2                !
 ! D275  D(33,24,26,9)        -150.9802         estimate D2E/DX2                !
 ! D276  D(33,24,26,27)        -75.824          estimate D2E/DX2                !
 ! D277  D(10,24,32,30)        -21.6873         estimate D2E/DX2                !
 ! D278  D(17,24,32,30)        154.5519         estimate D2E/DX2                !
 ! D279  D(25,24,32,30)       -117.6364         estimate D2E/DX2                !
 ! D280  D(26,24,32,30)         73.5965         estimate D2E/DX2                !
 ! D281  D(10,24,33,34)        -49.7437         estimate D2E/DX2                !
 ! D282  D(10,24,33,35)        118.903          estimate D2E/DX2                !
 ! D283  D(17,24,33,34)       -163.31           estimate D2E/DX2                !
 ! D284  D(17,24,33,35)          5.3368         estimate D2E/DX2                !
 ! D285  D(26,24,33,34)         94.516          estimate D2E/DX2                !
 ! D286  D(26,24,33,35)        -96.8372         estimate D2E/DX2                !
 ! D287  D(36,25,33,32)         62.4798         estimate D2E/DX2                !
 ! D288  D(36,25,33,34)       -162.6434         estimate D2E/DX2                !
 ! D289  D(36,25,33,35)        -42.238          estimate D2E/DX2                !
 ! D290  D(24,25,36,17)        -36.9903         estimate D2E/DX2                !
 ! D291  D(24,25,36,35)        107.519          estimate D2E/DX2                !
 ! D292  D(24,25,36,37)       -100.9841         estimate D2E/DX2                !
 ! D293  D(33,25,36,17)       -109.615          estimate D2E/DX2                !
 ! D294  D(33,25,36,35)         34.8943         estimate D2E/DX2                !
 ! D295  D(33,25,36,37)       -173.6089         estimate D2E/DX2                !
 ! D296  D(24,26,27,11)        -82.2077         estimate D2E/DX2                !
 ! D297  D(24,26,27,12)       -133.1997         estimate D2E/DX2                !
 ! D298  D(24,26,27,15)        175.1846         estimate D2E/DX2                !
 ! D299  D(24,26,27,28)          1.6744         estimate D2E/DX2                !
 ! D300  D(24,26,27,29)         93.1098         estimate D2E/DX2                !
 ! D301  D(24,26,27,30)         47.8483         estimate D2E/DX2                !
 ! D302  D(9,27,30,31)        -140.7033         estimate D2E/DX2                !
 ! D303  D(9,27,30,32)          40.5435         estimate D2E/DX2                !
 ! D304  D(11,27,30,31)        -70.8943         estimate D2E/DX2                !
 ! D305  D(11,27,30,32)        110.3525         estimate D2E/DX2                !
 ! D306  D(15,27,30,31)         59.631          estimate D2E/DX2                !
 ! D307  D(15,27,30,32)       -119.1222         estimate D2E/DX2                !
 ! D308  D(26,27,30,31)        171.4246         estimate D2E/DX2                !
 ! D309  D(26,27,30,32)         -7.3286         estimate D2E/DX2                !
 ! D310  D(27,30,32,24)        -38.8632         estimate D2E/DX2                !
 ! D311  D(27,30,32,33)       -107.2156         estimate D2E/DX2                !
 ! D312  D(28,30,32,24)         15.8779         estimate D2E/DX2                !
 ! D313  D(28,30,32,33)        -52.4746         estimate D2E/DX2                !
 ! D314  D(29,30,32,24)        -95.0517         estimate D2E/DX2                !
 ! D315  D(29,30,32,33)       -163.4041         estimate D2E/DX2                !
 ! D316  D(31,30,32,24)        141.9787         estimate D2E/DX2                !
 ! D317  D(31,30,32,33)         73.6262         estimate D2E/DX2                !
 ! D318  D(30,32,33,25)        104.1787         estimate D2E/DX2                !
 ! D319  D(30,32,33,34)        -26.461          estimate D2E/DX2                !
 ! D320  D(30,32,33,35)       -156.6742         estimate D2E/DX2                !
 ! D321  D(24,33,35,36)        -11.5874         estimate D2E/DX2                !
 ! D322  D(25,33,35,36)         41.8715         estimate D2E/DX2                !
 ! D323  D(32,33,35,36)        -70.6121         estimate D2E/DX2                !
 ! D324  D(34,33,35,36)        157.5588         estimate D2E/DX2                !
 ! D325  D(33,35,36,17)         23.6564         estimate D2E/DX2                !
 ! D326  D(33,35,36,25)        -37.2631         estimate D2E/DX2                !
 ! D327  D(33,35,36,37)        175.6023         estimate D2E/DX2                !
 --------------------------------------------------------------------------------
 Trust Radius=3.00D-01 FncErr=1.00D-07 GrdErr=1.00D-06 EigMax=2.50D+02 EigMin=1.00D-04
 Number of steps in this run=    228 maximum allowed number of steps=    228.
 GradGradGradGradGradGradGradGradGradGradGradGradGradGradGradGradGradGrad

                          Input orientation:                          
 ---------------------------------------------------------------------
 Center     Atomic      Atomic             Coordinates (Angstroms)
 Number     Number       Type             X           Y           Z
 ---------------------------------------------------------------------
      1         42           0        0.216895    1.484756   12.209231
      2         16           0        1.037917    3.680711   12.467296
      3         16           0       -2.023846    1.808555   12.813282
      4         16           0       -0.121067    0.925473    9.910012
      5         16           0        2.289188    0.056432   11.840508
      6         42           0       -1.997401    2.274970   10.484624
      7         16           0       -2.443109    1.828045    8.065570
      8         16           0       -1.378545    4.483899   10.606446
      9         42           0        0.763003    3.198575   10.094412
     10         16           0        0.351930    3.278192    7.523826
     11         16           0        2.852769    2.118400    9.385985
     12         42           0        2.920643    2.507963   11.720791
     13         42           0       -1.671981    4.208799    8.318000
     14         16           0        3.855320    2.291075   14.099258
     15         16           0        4.429720    4.322138   11.642496
     16         16           0       -3.911677    5.096925    8.112844
     17         16           0       -0.998755    6.634043    8.125596
     18         42           0       -4.356061    2.929548    8.644244
     19         16           0       -6.034135    2.177329    7.588269
     20         16           0       -4.478654    2.672080   10.858973
     21         42           0        2.505227    0.520064   14.087662
     22         16           0        3.303847   -1.089051   15.213163
     23         16           0        0.463784    1.081488   14.746592
     24         42           0        0.997847    5.624538    7.346354
     25         16           0       -0.218332    5.358722    5.176510
     26         16           0        1.504285    5.657799    9.871500
     27         42           0        3.373962    4.462227    9.548837
     28         16           0        3.396243    4.193605    7.066761
     29         16           0        4.925158    6.445156    9.354855
     30         42           0        4.300289    6.262141    7.244981
     31         16           0        5.946651    6.638738    5.975666
     32         16           0        2.452356    7.663890    6.918723
     33         42           0        1.673568    6.696306    4.828594
     34         16           0        3.065662    5.720056    3.555604
     35         16           0        0.530530    8.349918    3.948151
     36         42           0       -1.089049    7.727785    5.921367
     37          6           0       -2.802347    8.360931    6.772756
     38          8           0       -3.773063    8.762591    7.244289
 ---------------------------------------------------------------------
                    Distance matrix (angstroms):
                    1          2          3          4          5
     1  Mo   0.000000
     2  S    2.358579   0.000000
     3  S    2.343212   3.605422   0.000000
     4  S    2.390277   3.933736   3.581812   0.000000
     5  S    2.543711   3.885092   4.755890   3.208017   0.000000
     6  Mo   2.915787   3.888477   2.375056   2.381586   5.013500
     7  S    4.935929   5.909747   4.766228   3.099755   6.307409
     8  S    3.756222   3.153912   3.527606   3.837795   5.880275
     9  Mo   2.776305   2.436927   4.134119   2.445930   3.905273
    10  S    5.018732   5.007045   5.981847   3.384213   5.724199
    11  S    3.914084   3.902433   5.968563   3.246749   3.254845
    12  Mo   2.931856   2.340356   5.111818   3.877524   2.534378
    13  Mo   5.111745   4.983882   5.108086   3.964854   6.733578
    14  S    4.178575   3.540077   6.037479   5.935175   3.542365
    15  S    5.110755   3.549092   7.024055   5.937044   4.776749
    16  S    6.846405   6.742803   6.039156   5.916042   8.817753
    17  S    6.683490   5.632101   6.805185   6.045018   8.238696
    18  Mo   5.975658   6.653944   4.906804   4.853211   7.913927
    19  S    7.804378   8.722327   6.596906   6.474721   9.584229
    20  S    5.028033   5.834089   3.254394   4.789544   7.321797
    21  Mo   3.113775   3.842951   4.878192   4.951216   2.304632
    22  S    5.017705   5.951878   6.522259   6.626594   3.703575
    23  S    2.581042   3.504394   3.233360   4.874310   3.581643
    24  Mo   6.433914   5.477601   7.319813   5.468594   7.271093
    25  S    8.040908   7.586135   8.613005   6.486077   8.877545
    26  S    4.953448   3.296139   5.993202   5.003815   5.989021
    27  Mo   5.090197   3.819067   6.843603   4.985409   5.083259
    28  S    6.625037   5.915280   8.251565   5.579985   6.413301
    29  S    7.410855   5.695620   9.041429   7.499299   7.344563
    30  Mo   8.008826   6.676783   9.530744   7.425012   7.979613
    31  S    9.912163   8.659495  11.559087   9.216164   9.544640
    32  S    8.436140   6.975171   9.437540   7.808750   9.062230
    33  Mo   9.151828   8.236968  10.065596   7.895824   9.676459
    34  S   10.046815   9.364237  11.265324   8.574484  10.065743
    35  S   10.745895   9.728040  11.309501   9.544147  11.582922
    36  Mo   8.956458   7.984484   9.132887   7.944667  10.261500
    37  C    9.271077   8.311430   8.945817   8.503980  10.980462
    38  O    9.671468   8.732172   9.079210   9.047849  11.561718
                    6          7          8          9         10
     6  Mo   0.000000
     7  S    2.500044   0.000000
     8  S    2.297214   3.826605   0.000000
     9  Mo   2.936859   4.034068   2.549601   0.000000
    10  S    3.910516   3.195099   3.735080   2.604464   0.000000
    11  S    4.975507   5.465723   4.998913   2.456780   3.326702
    12  Mo   5.076372   6.526313   4.860978   2.788810   4.980568
    13  Mo   2.922303   2.515223   2.323525   3.178890   2.364943
    14  S    6.878967   8.734414   6.663449   5.140503   7.515614
    15  S    6.843935   8.139452   5.902161   4.135671   5.889112
    16  S    4.153700   3.583923   3.607022   5.420607   4.672588
    17  S    5.056068   5.018703   3.304841   4.333874   3.667181
    18  Mo   3.062474   2.282007   3.889967   5.327305   4.852017
    19  S    4.969268   3.639407   6.008675   7.316063   6.480577
    20  S    2.540561   3.557940   3.599602   5.323224   5.901281
    21  Mo   6.027872   7.903318   6.550919   5.114275   7.438273
    22  S    7.859959   9.624190   8.614198   7.144315   9.322689
    23  S    5.064208   7.324167   5.666691   5.119997   7.550256
    24  Mo   5.480863   5.174052   4.192433   3.673183   2.440091
    25  S    6.391454   5.075626   5.620998   5.460313   3.188055
    26  S    4.907266   5.788810   3.198264   2.578172   3.535820
    27  Mo   5.874635   6.555708   4.868812   2.951538   3.825609
    28  S    6.667409   6.378991   5.950819   4.134091   3.211655
    29  S    8.160187   8.790411   6.719351   5.330175   5.856342
    30  Mo   8.127344   8.112212   6.834526   5.478785   4.956939
    31  S   10.123297   9.894369   8.930059   7.461166   6.707531
    32  S    7.845792   7.703111   6.195760   5.733930   4.900233
    33  Mo   8.063182   7.150175   6.898820   6.386869   4.549121
    34  S    9.247407   8.113822   8.425760   7.376728   5.392015
    35  S    9.274746   8.266226   7.932437   8.022899   6.208039
    36  Mo   7.168097   6.421683   5.705836   6.431030   4.944004
    37  C    7.173899   6.669259   5.635226   7.098946   6.028914
    38  O    7.466055   7.108531   5.945168   7.723818   6.868212
                   11         12         13         14         15
    11  S    0.000000
    12  Mo   2.368055   0.000000
    13  Mo   5.097423   5.963558   0.000000
    14  S    4.821812   2.564716   8.225063   0.000000
    15  S    3.526341   2.361075   6.949523   3.238955   0.000000
    16  S    7.500015   8.148656   2.418077  10.199813   9.090525
    17  S    6.067442   6.731392   2.524294   8.837876   6.868903
    18  Mo   7.292144   7.911593   2.991188   9.878846   9.387160
    19  S    9.067101   9.867883   4.867008  11.840914  11.424939
    20  S    7.498401   7.451125   4.086008   8.949845   9.093719
    21  Mo   4.978075   3.118716   8.021523   2.226963   4.913072
    22  S    6.666875   5.028123  10.018451   3.601411   6.580138
    23  S    5.959744   4.150477   7.461123   3.658505   5.988812
    24  Mo   4.460250   5.704900   3.174334   8.054740   5.650737
    25  S    6.136043   7.797923   3.647517  10.277185   8.030434
    26  S    3.818570   3.917578   3.821208   5.893737   3.671320
    27  Mo   2.406593   2.956692   5.200070   5.064774   2.348970
    28  S    3.159215   4.972683   5.220414   7.299752   4.692755
    29  S    4.797560   5.011709   7.042628   6.396116   3.160058
    30  Mo   4.883626   6.002512   6.405903   7.934008   4.808170
    31  S    6.452584   7.695875   8.332748   9.448205   6.307193
    32  S    6.082777   7.061355   5.559297   9.077198   6.114843
    33  Mo   6.566396   8.160870   5.436575  10.493394   7.724138
    34  S    6.856427   8.775469   6.885461  11.115310   8.319414
    35  S    8.590381  10.012742   6.410577  12.280423   9.519960
    36  Mo   7.681582   8.772542   4.297316  10.994658   8.647922
    37  C    8.819212   9.565192   4.572276  11.612291   9.608799
    38  O    9.624645  10.196330   5.128784  12.126968  10.312492
                   16         17         18         19         20
    16  S    0.000000
    17  S    3.293632   0.000000
    18  Mo   2.275387   5.026309   0.000000
    19  S    3.647471   6.745819   2.120578   0.000000
    20  S    3.707096   5.939545   2.233012   3.655380   0.000000
    21  Mo   9.890539   9.230648   9.083704  10.858607   7.989380
    22  S   11.863584  11.331027  10.861585  12.490242   9.678450
    23  S    8.903651   8.763987   7.992802   9.729615   6.486236
    24  Mo   4.996930   2.369122   6.132848   7.835212   7.144758
    25  S    4.725610   3.306450   5.920039   7.054177   7.593338
    26  S    5.721896   3.204129   6.579754   8.611306   6.759081
    27  Mo   7.452882   5.085573   7.932254   9.878101   8.159942
    28  S    7.437471   5.137400   8.011524   9.657607   8.871861
    29  S    9.024964   6.053057   9.950150  11.892909  10.243542
    30  Mo   8.339502   5.384576   9.380645  11.117727  10.149843
    31  S   10.204477   7.270549  11.270549  12.885802  12.176537
    32  S    6.965354   3.798328   8.470299  10.127743   9.406521
    33  Mo   6.673775   4.244456   8.068710   9.351238   9.508402
    34  S    8.357032   6.183824   9.421420  10.565018  10.933712
    35  S    6.903610   4.768017   8.678276   9.718340  10.251304
    36  Mo   4.437480   2.462326   6.411747   7.618399   7.837699
    37  C    3.698673   2.839941   5.951169   7.024703   7.202097
    38  O    3.769709   3.606134   6.026952   6.971115   7.117452
                   21         22         23         24         25
    21  Mo   0.000000
    22  S    2.119858   0.000000
    23  S    2.217403   3.604842   0.000000
    24  Mo   8.589126  10.596065   8.699888   0.000000
    25  S   10.499477  12.438405  10.504593   2.501594   0.000000
    26  S    6.721178   8.791574   6.766963   2.575645   5.009969
    27  Mo   6.074231   7.931342   6.849466   3.442066   5.729356
    28  S    7.973824   9.709730   8.790017   2.806786   4.242134
    29  S    7.960040   9.680532   8.817234   4.486787   6.715236
    30  Mo   9.111311  10.886912   9.891011   3.364957   5.051007
    31  S   10.727817  12.330227  11.741976   5.234314   6.346976
    32  S   10.120807  12.088703  10.419115   2.541146   3.934677
    33  Mo  11.161002  13.080859  11.461084   2.818581   2.342960
    34  S   11.759177  13.502568  12.390492   4.319117   3.680016
    35  S   12.962088  14.956133  13.016945   4.381080   3.319174
    36  Mo  11.469893  13.541477  11.156574   3.287761   2.631619
    37  C   11.964840  14.065143  11.280069   4.717874   4.270643
    38  O   12.417243  14.513458  11.542737   5.711338   5.338366
                   26         27         28         29         30
    26  S    0.000000
    27  Mo   2.242587   0.000000
    28  S    3.686452   2.496669   0.000000
    29  S    3.548130   2.525044   3.555620   0.000000
    30  Mo   3.883487   3.066843   2.264487   2.208059   0.000000
    31  S    5.989522   4.911566   3.697803   3.535511   2.112698
    32  S    3.693526   4.244703   3.599405   3.678967   2.342264
    33  Mo   5.151510   5.492098   3.773660   5.578795   3.595426
    34  S    6.506329   6.131560   3.842858   6.133091   3.928061
    35  S    6.578888   7.386943   5.934052   7.223110   5.425770
    36  Mo   5.158854   6.613688   5.824105   7.043058   5.739776
    37  C    5.954512   7.813662   7.474996   8.369693   7.421277
    38  O    6.662760   8.653556   8.503299   9.245758   8.451702
                   31         32         33         34         35
    31  S    0.000000
    32  S    3.761701   0.000000
    33  Mo   4.424740   2.431331   0.000000
    34  S    3.873083   3.932582   2.124028   0.000000
    35  S    6.031030   3.603935   2.194572   3.673848   0.000000
    36  Mo   7.119694   3.679722   3.144862   5.185502   2.627483
    37  C    8.952445   5.302742   5.156021   7.194291   4.368819
    38  O   10.029606   6.330006   6.306418   8.344554   5.436519
                   36         37         38
    36  Mo   0.000000
    37  C    2.015224   0.000000
    38  O    3.166209   1.151505   0.000000
 Symmetry turned off by external request.
 Stoichiometry    CMo12OS24
 Framework group  C1[X(CMo12OS24)]
 Deg. of freedom   108
 Full point group                 C1      NOp   1
 Rotational constants (GHZ):           0.0302988           0.0195688           0.0131092
 General basis read from cards:  (5D, 7F)
 ======================================================================================================
                                       Pseudopotential Parameters
 ======================================================================================================
  Center     Atomic      Valence      Angular      Power
  Number     Number     Electrons     Momentum     of R      Exponent        Coefficient   SO-Coeffient
 ======================================================================================================
    1         42           14
                                      F and up 
                                                     0      537.9667807       -0.04694920    0.00000000
                                                     1      147.8982938      -20.20800840    0.00000000
                                                     2       45.7358898     -106.21163020    0.00000000
                                                     2       13.2911467      -41.81073680    0.00000000
                                                     2        4.7059961       -4.20541030    0.00000000
                                      S - F
                                                     0      110.2991760        2.80637170    0.00000000
                                                     1       23.2014645       44.51620120    0.00000000
                                                     2        5.3530131       82.77852270    0.00000000
                                      P - F
                                                     0       63.2901397        4.94208760    0.00000000
                                                     1       23.3315302       25.86049760    0.00000000
                                                     2       24.6759423      132.47087420    0.00000000
                                                     2        4.6493040       57.31497940    0.00000000
                                      D - F
                                                     0      104.4839977        3.00545910    0.00000000
                                                     1       66.2307245       26.36378510    0.00000000
                                                     2       39.1283176      183.38491990    0.00000000
                                                     2       13.1164437       98.44530680    0.00000000
                                                     2        3.6280263       22.49013770    0.00000000
    2         16
                                   No pseudopotential on this center.
    3         16
                                   No pseudopotential on this center.
    4         16
                                   No pseudopotential on this center.
    5         16
                                   No pseudopotential on this center.
    6         42           14
                                      F and up 
                                                     0      537.9667807       -0.04694920    0.00000000
                                                     1      147.8982938      -20.20800840    0.00000000
                                                     2       45.7358898     -106.21163020    0.00000000
                                                     2       13.2911467      -41.81073680    0.00000000
                                                     2        4.7059961       -4.20541030    0.00000000
                                      S - F
                                                     0      110.2991760        2.80637170    0.00000000
                                                     1       23.2014645       44.51620120    0.00000000
                                                     2        5.3530131       82.77852270    0.00000000
                                      P - F
                                                     0       63.2901397        4.94208760    0.00000000
                                                     1       23.3315302       25.86049760    0.00000000
                                                     2       24.6759423      132.47087420    0.00000000
                                                     2        4.6493040       57.31497940    0.00000000
                                      D - F
                                                     0      104.4839977        3.00545910    0.00000000
                                                     1       66.2307245       26.36378510    0.00000000
                                                     2       39.1283176      183.38491990    0.00000000
                                                     2       13.1164437       98.44530680    0.00000000
                                                     2        3.6280263       22.49013770    0.00000000
    7         16
                                   No pseudopotential on this center.
    8         16
                                   No pseudopotential on this center.
    9         42           14
                                      F and up 
                                                     0      537.9667807       -0.04694920    0.00000000
                                                     1      147.8982938      -20.20800840    0.00000000
                                                     2       45.7358898     -106.21163020    0.00000000
                                                     2       13.2911467      -41.81073680    0.00000000
                                                     2        4.7059961       -4.20541030    0.00000000
                                      S - F
                                                     0      110.2991760        2.80637170    0.00000000
                                                     1       23.2014645       44.51620120    0.00000000
                                                     2        5.3530131       82.77852270    0.00000000
                                      P - F
                                                     0       63.2901397        4.94208760    0.00000000
                                                     1       23.3315302       25.86049760    0.00000000
                                                     2       24.6759423      132.47087420    0.00000000
                                                     2        4.6493040       57.31497940    0.00000000
                                      D - F
                                                     0      104.4839977        3.00545910    0.00000000
                                                     1       66.2307245       26.36378510    0.00000000
                                                     2       39.1283176      183.38491990    0.00000000
                                                     2       13.1164437       98.44530680    0.00000000
                                                     2        3.6280263       22.49013770    0.00000000
   10         16
                                   No pseudopotential on this center.
   11         16
                                   No pseudopotential on this center.
   12         42           14
                                      F and up 
                                                     0      537.9667807       -0.04694920    0.00000000
                                                     1      147.8982938      -20.20800840    0.00000000
[...]
 .00136546,-0.00068173,0.00151606,0.00040046,-0.00022658,0.00018609,-0.
 00053691,0.00016543,-0.00028468,-0.00003190,0.00001378,0.00036395,-0.0
 0002799,-0.00004099,-0.00012778,-0.00318864,-0.00030843,0.00304041,0.0
 0038065,0.00147033,-0.00450547,0.00305811,0.00037251,0.00266697,-0.108
 14306,-0.03522466,0.11466184,0.10845456,0.00002335,-0.00000750,-0.0000
 5335,-0.00000856,-0.00000016,-0.00003640,-0.00001258,-0.00000820,0.000
 03758,0.00000615,-0.00002151,-0.00000104,-0.00000815,-0.00001218,0.000
 00294,0.00002695,-0.00002946,-0.00008481,-0.00005479,0.00000837,0.0000
 6759,-0.00003172,0.00002414,-0.00005209,0.00007120,-0.00003449,0.00014
 489,0.00002769,0.00023886,-0.00047414,-0.00000245,-0.00001399,-0.00003
 216,-0.00000229,0.00007529,0.00005476,0.00000673,0.00026214,-0.0000121
 7,0.00000625,0.00000895,0.00000489,0.00009530,-0.00009714,0.00007294,0
 .00004280,-0.00005231,-0.00000420,-0.00011061,-0.00009759,-0.00025870,
 0.00005491,-0.00000137,0.00000299,-0.00006736,-0.00001926,-0.00005638,
 -0.00000423,0.00000328,0.00002602,-0.00003068,0.00009601,-0.00004986,0
 .00002926,-0.00007165,0.00003613,0.00000488,-0.00000312,0.00001208,-0.
 00007827,0.00185622,0.00120778,-0.00245927,0.00038277,0.00268968,0.000
 19848,-0.00012491,0.00012951,-0.00023088,0.00019907,-0.00008696,0.0003
 9810,0.00039833,-0.00009769,-0.00008060,-0.00014804,-0.00003300,0.0000
 0337,-0.00059227,-0.00003251,0.00154060,0.00009908,0.00057526,0.002334
 32,-0.00044815,0.00200718,-0.03623383,-0.03370274,0.04765126,0.0385747
 1,0.02620678,-0.00003777,-0.00006250,-0.00011335,0.00008960,0.00002213
 ,0.00002200,0.00003923,0.00006324,-0.00011557,0.00006529,-0.00003151,0
 .00001949,-0.00003014,0.00002966,0.00002890,-0.00002803,-0.00002934,0.
 00022561,0.00017774,-0.00006982,-0.00011730,-0.00000387,0.00007029,0.0
 0009862,-0.00032883,0.00002832,-0.00001021,0.00056254,-0.00001545,-0.0
 0040857,0.00007082,-0.00006904,0.00006890,0.00000656,0.00000770,0.0000
 5226,-0.00012209,0.00024305,-0.00033716,-0.00000203,0.00003722,-0.0000
 5805,-0.00012948,0.00003217,-0.00013430,0.00001993,0.00007030,-0.00017
 214,0.00074683,-0.00001811,-0.00000711,-0.00032335,-0.00019893,0.00006
 658,0.00030418,0.00011085,0.00024814,-0.00001009,0.00001240,-0.0001251
 3,0.00017023,-0.00036127,0.00013241,-0.00011512,0.00028494,-0.00014437
 ,-0.00002970,0.00002578,-0.00003688,-0.00356899,0.00164640,-0.00079429
 ,0.00007597,0.00271721,0.00014039,-0.00009815,-0.00012214,-0.00006663,
 0.00035211,0.00009369,0.00030068,-0.00003028,0.00030698,-0.00006814,0.
 00032970,-0.00003572,0.00026474,0.00182092,0.00068044,-0.00225896,-0.0
 0326345,0.00009045,0.00144258,0.00133082,0.00026923,-0.00236171,0.1145
 2358,0.04529985,-0.16525122,-0.12428373,-0.05078186,0.16818240,-0.0000
 5649,0.00016488,0.00028497,-0.00008759,-0.00002359,0.00001901,0.000041
 71,-0.00008351,0.00011641,-0.00004829,0.00002379,-0.00012757,0.0000523
 5,0.00000060,-0.00002144,-0.00027792,0.00010848,-0.00006034,-0.0002648
 1,0.00020318,0.00022152,-0.00003857,-0.00014985,-0.00013297,0.00066154
 ,0.00045295,-0.00037795,0.00031129,-0.00005995,0.00096279,-0.00001373,
 -0.00001943,0.00005208,-0.00009602,-0.00017254,-0.00013902,0.00063276,
 -0.00003774,-0.00108582,-0.00000886,0.00001257,0.00000267,-0.00000422,
 0.00008241,-0.00009031,-0.00002592,0.00010047,0.00018372,-0.00080892,-
 0.00068145,0.00560988,-0.00003442,-0.00013279,0.00002767,-0.00003766,-
 0.00002149,-0.00010958,0.00003272,-0.00001161,0.00008071,-0.00009042,-
 0.00001401,-0.00002608,0.00000727,-0.00001417,0.00000954,-0.00000533,0
 .00001534,0.00000066,0.00314083,0.00264801,-0.00360626,0.00084269,0.00
 505796,-0.00153943,-0.00021723,0.00004566,-0.00009865,0.00029117,-0.00
 060024,0.00056916,-0.00015619,0.00004793,0.00041858,-0.00016066,-0.000
 08964,-0.00010222,-0.00029339,-0.00040664,-0.00089168,0.00038913,-0.00
 001690,-0.00028025,-0.00377800,0.00212486,-0.00429019,-0.09705558,0.05
 569439,0.00529371,-0.00358826,-0.00451874,0.00397438,0.11752846,0.0000
 6368,0.00005018,0.00012321,-0.00008618,0.00003307,-0.00004186,-0.00003
 510,-0.00005419,0.00012237,-0.00003012,-0.00002003,0.00000435,0.000003
 14,-0.00002634,-0.00000547,-0.00001235,-0.00001120,-0.00042600,0.00004
 172,-0.00009182,0.00018018,0.00015221,0.00003028,-0.00025969,0.0002123
 9,0.00002309,-0.00008708,0.00027200,0.00017790,0.00087658,-0.00005196,
 0.00010002,0.00009473,0.00002675,-0.00011939,-0.00011951,0.00066283,-0
 .00018484,0.00001320,-0.00002428,-0.00003122,0.00003830,0.00002429,0.0
 0004649,0.00001390,-0.00023614,0.00035884,-0.00035664,0.00031051,0.002
 26590,0.00814734,0.00012753,-0.00009529,0.00030706,-0.00016317,-0.0000
 8021,-0.00014741,-0.00011289,0.00004852,-0.00008945,-0.00002575,0.0001
 6725,-0.00005493,0.00004790,-0.00011654,0.00005777,-0.00000608,-0.0000
 0842,0.00000786,-0.00143598,-0.00446569,-0.00125610,0.00535510,-0.0017
 3576,0.00325819,0.00017419,0.00005456,-0.00017137,-0.00006403,-0.00025
 573,0.00030001,0.00010357,0.00043610,0.00047822,0.00005040,-0.00005391
 ,-0.00009537,-0.00009545,0.00027583,-0.00064865,0.00006386,0.00007118,
 -0.00027732,-0.00110680,0.00443145,0.00224835,0.06491146,-0.06120985,0
 .00035560,0.00031297,0.00518129,-0.00380404,-0.04756818,0.15659303,0.0
 0010052,-0.00007455,-0.00015191,0.00003597,-0.00002544,-0.00007058,-0.
 00004361,0.00004040,-0.00008784,0.00000126,-0.00004440,0.00006984,-0.0
 0003733,-0.00001949,0.00001464,0.00024222,0.00011783,0.00004932,0.0001
 3335,0.00034590,-0.00001165,-0.00011035,-0.00013112,0.00023095,-0.0001
 7074,-0.00007705,0.00036643,-0.00058377,0.00030518,-0.00050283,-0.0001
 0148,0.00005751,-0.00003402,0.00003209,0.00022463,0.00000612,-0.001378
 49,-0.00102699,0.00026583,-0.00001772,-0.00001387,0.00002238,0.0001275
 1,-0.00015727,0.00012131,-0.00011982,-0.00035787,0.00041106,0.00130383
 ,0.00773251,-0.00885102,-0.00018069,0.00039672,-0.00036025,0.00006052,
 -0.00004254,0.00006862,0.00004821,-0.00004398,0.00000660,0.00008605,0.
 00003067,0.00000130,-0.00000456,0.00000039,0.00000083,-0.00001034,-0.0
 0000943,-0.00000345,-0.00008402,0.00077150,0.00149705,0.00180638,-0.00
 208617,0.00231758,0.00037807,-0.00033625,0.00003871,-0.00042771,0.0002
 4378,-0.00014625,0.00012730,0.00042981,-0.00014512,-0.00002204,0.00012
 473,-0.00002888,0.00094933,-0.00071419,0.00024323,0.00022692,-0.000205
 55,-0.00005205,-0.00356369,0.00021892,-0.00182180,-0.00350203,0.009378
 53,-0.01081942,0.00271509,-0.00460414,0.00113255,-0.00290712,-0.024690
 18,0.02523104,-0.00009161,-0.00030967,-0.00021827,0.00020369,0.0003411
 7,-0.00003098,0.00003525,0.00027183,-0.00030356,-0.00003839,0.00010371
 ,-0.00010178,0.00010822,0.00003976,0.00000236,-0.00040671,-0.00100988,
 0.00132502,0.00120265,-0.00030593,-0.00017110,0.00013516,0.00037732,0.
 00014463,-0.00034133,-0.00054712,0.00106544,0.00081922,0.00069079,0.00
 112988,0.00027868,-0.00014325,-0.00017694,-0.00037088,-0.00027845,-0.0
 0013189,-0.00116662,0.00268351,-0.00238162,0.00004223,-0.00000577,0.00
 002269,-0.00016844,0.00016214,0.00030058,-0.00034942,-0.00201003,-0.00
 026723,-0.01202443,-0.00176381,-0.01341231,-0.00046856,0.00042559,0.00
 035372,0.00031362,0.00033365,0.00027803,0.00007303,0.00008598,0.000184
 15,-0.00000728,-0.00033611,0.00013942,-0.00007648,0.00019653,-0.000085
 67,0.00003882,0.00004179,-0.00002338,-0.01157814,-0.00333832,-0.035147
 19,-0.04037293,0.02948016,0.02563819,-0.00197882,0.00082631,-0.0001317
 0,0.00038489,-0.00035778,-0.00077818,-0.00062859,0.00037791,0.00356981
 ,-0.00001853,0.00023584,-0.00070857,-0.00031140,0.00190286,0.00188263,
 -0.00016828,0.00019226,0.00002278,0.00004242,0.00054166,0.00051899,-0.
 04395876,-0.02663492,-0.00670368,0.00178489,0.00030395,0.00975725,-0.0
 0876530,-0.01734424,0.00304500,0.18746768,0.00024338,-0.00087420,-0.00
 107840,0.00057737,-0.00002536,-0.00049939,-0.00014239,0.00049802,-0.00
 034786,0.00015888,0.00001282,0.00012292,-0.00026572,-0.00000189,0.0000
 5970,-0.00008204,-0.00120311,0.00130145,-0.00023701,-0.00055027,-0.000
 13208,0.00069586,0.00107751,0.00033424,-0.00281156,-0.00005791,0.00212
 942,-0.00064882,0.00034345,-0.00676070,0.00003065,-0.00010958,-0.00057
 801,0.00030275,0.00078699,0.00072098,-0.00237653,0.00413679,-0.0013483
 2,0.00009769,0.00015553,-0.00006868,0.00043352,-0.00021217,0.00019863,
 0.00146639,-0.00098255,0.00016595,-0.00195993,-0.01573464,-0.01540771,
 0.00003504,-0.00078398,0.00103189,-0.00003409,0.00024091,-0.00007312,0
 .00000511,0.00010289,0.00011047,0.00031104,-0.00009898,-0.00014305,-0.
 00006265,0.00011258,-0.00005885,0.00000550,0.00001883,0.00002130,0.002
 00427,0.00352045,0.01205253,0.03944760,-0.04466284,-0.02050468,0.00082
 652,0.00053829,-0.00037181,-0.00152473,0.00035014,-0.00121378,0.000946
 36,-0.00159852,-0.00081899,0.00004057,-0.00012222,0.00051347,0.0006499
 2,0.00018381,-0.00109377,-0.00034255,-0.00024576,0.00043462,0.00063512
 ,-0.00386259,-0.00143352,-0.04557563,0.00065269,0.00228135,-0.00040830
 ,-0.00006444,0.00283072,-0.00314244,-0.09902459,0.01427693,-0.01082370
 ,0.20121155,-0.00114556,0.00134866,0.00171748,-0.00044911,-0.00010058,
 0.00054998,0.00035885,-0.00067925,0.00092187,-0.00039974,0.00033873,-0
 .00051001,0.00050726,0.00011870,-0.00015542,-0.00151882,0.00010065,-0.
 00146471,-0.00171359,-0.00205044,-0.00075650,-0.00038797,-0.00005531,-
 0.00172267,0.00459373,0.00063056,-0.00225643,0.00217336,0.00079001,0.0
 0376905,0.00032157,-0.00027009,0.00063633,-0.00036133,-0.00138869,-0.0
 0063279,0.00789999,0.01123010,0.00207642,0.00003132,0.00000451,-0.0001
 0516,-0.00064072,0.00047533,-0.00040679,0.00066303,0.00055270,-0.00148
 799,-0.01770861,-0.02423144,-0.11356859,0.00049198,-0.00196368,0.00066
 869,-0.00031827,0.00024576,-0.00026569,0.00005639,0.00008342,0.0002153
 1,-0.00084435,-0.00010874,0.00014441,0.00005825,-0.00008324,0.00003377
 ,0.00004160,0.00005530,-0.00004457,-0.04638965,0.00719833,-0.02896766,
 0.03651052,-0.02073031,-0.02641953,-0.00147239,0.00025468,-0.00164742,
 0.00425312,-0.00227616,0.00121312,0.00036284,0.00001138,0.00187296,-0.
 00016925,-0.00005484,-0.00045656,0.00065935,0.00045900,-0.00008489,-0.
 00022888,0.00003957,0.00070447,-0.00002122,0.00337179,0.00022451,0.012
 83590,-0.00887418,-0.00756528,-0.00125152,0.00256077,0.00023495,-0.005
 64173,0.01460420,-0.00820246,0.00863671,0.01834029,0.20835225,0.000891
 68,-0.00082374,-0.00087026,0.00048780,0.00000502,-0.00013876,-0.000181
 30,0.00025229,0.00001360,-0.00000270,-0.00008199,0.00039600,-0.0004064
 9,-0.00008934,0.00009848,0.00028448,-0.00034950,-0.00073342,-0.0001180
 1,0.00017566,0.00040748,0.00065083,0.00005985,-0.00042951,-0.00327758,
 -0.00087380,-0.00006322,-0.00161696,-0.00023595,0.00040412,-0.00055026
 ,0.00032434,-0.00040721,0.00048398,0.00137928,0.00083909,0.00503252,-0
 .00200838,-0.00022594,-0.00006034,-0.00009055,0.00013820,0.00082358,-0
 .00052931,0.00018989,-0.00109263,0.00359759,-0.00138129,-0.00133330,0.
 00093857,-0.00774728,0.00029878,-0.00079527,0.00258742,-0.00121930,-0.
 00086941,-0.00131727,-0.00046739,0.00013442,-0.00085776,0.00045219,0.0
 0082421,-0.00034556,0.00016066,-0.00047560,0.00023254,-0.00000680,-0.0
 0009377,0.00007615,-0.00712907,0.00447160,0.00502607,-0.01333032,0.007
 64046,0.00176536,0.00262509,-0.00136123,0.00100901,-0.00308080,0.00187
 967,-0.00013256,0.00093830,-0.00086509,-0.00266253,0.00026061,-0.00014
 623,0.00087157,-0.00057154,0.00004772,-0.00108817,0.00028139,0.0000873
 9,-0.00046586,0.00002176,-0.00021049,0.00010489,-0.00204680,-0.0037930
 8,0.00765420,0.00036772,0.00044997,-0.00398502,-0.01368906,-0.00643076
 ,0.00216049,-0.01930658,0.00264893,0.00243556,1.04437327,-0.00040708,0
 .00028753,0.00045884,-0.00015330,-0.00012659,0.00000246,0.00009535,-0.
 00008545,0.00005963,-0.00000273,-0.00002052,-0.00011095,0.00016399,0.0
 0002309,-0.00003641,-0.00005717,0.00014093,-0.00010223,-0.00003459,-0.
 00020513,-0.00020540,-0.00027271,-0.00017127,0.00002595,0.00100524,0.0
 0108100,-0.00019919,0.00080016,-0.00046118,-0.00065709,0.00027705,-0.0
 0009526,0.00032690,-0.00012901,-0.00055567,-0.00036444,-0.00104275,0.0
 0036853,0.00074158,0.00000861,0.00005702,-0.00006764,-0.00031253,0.000
 18356,-0.00010315,-0.00013758,-0.00106393,0.00141301,-0.00006769,-0.00
 059908,0.00093739,-0.00031313,-0.00009845,-0.00056281,0.00055785,0.000
 32315,0.00044636,0.00013496,-0.00000450,0.00014010,-0.00014387,-0.0004
 0921,0.00014260,-0.00008848,0.00024714,-0.00012438,-0.00002452,0.00005
 935,-0.00004435,0.00270944,-0.00074774,0.00065326,0.00158059,0.0087466
 7,0.00167920,-0.00108776,0.00031173,-0.00020275,0.00091853,-0.00071326
 ,0.00009849,0.00046201,0.00151168,0.00064953,-0.00010483,0.00018880,-0
 .00032130,0.00100107,-0.00031586,0.00020885,-0.00011477,0.00013471,0.0
 0009093,-0.00025227,-0.00049976,-0.00064404,0.00805911,0.00431804,-0.0
 0280633,0.00046167,0.00059559,0.00112995,-0.00915019,-0.00313177,-0.00
 003225,0.00239109,-0.05548607,-0.00083704,-0.40496624,0.24550634,-0.00
 011728,-0.00000112,0.00027816,-0.00027918,0.00010748,-0.00006112,-0.00
 001863,0.00000433,0.00011810,0.00014980,-0.00001518,-0.00013011,0.0000
 6897,-0.00004038,-0.00003944,0.00008087,-0.00033016,0.00044694,0.00032
 478,-0.00016601,0.00001582,-0.00004994,-0.00000779,-0.00003970,0.00039
 843,0.00044515,-0.00003295,0.00020522,-0.00001276,-0.00009148,0.000266
 49,0.00003209,0.00003730,-0.00014478,-0.00056516,-0.00020180,-0.001393
 57,0.00140082,-0.00049361,0.00001359,0.00003965,0.00001917,-0.00000978
 ,0.00013058,0.00015840,0.00077198,-0.00015329,-0.00117357,-0.00944091,
 0.00313210,-0.00722090,0.00059888,0.00047476,0.00015593,-0.00030122,0.
 00001231,-0.00019393,0.00006470,0.00000272,0.00016753,-0.00012376,0.00
 004057,-0.00012301,0.00004140,-0.00006769,0.00004077,-0.00002068,0.000
 03674,0.00001777,0.01269089,-0.00475149,0.00169062,-0.00688643,0.00363
 413,0.01250793,-0.00210183,0.00126450,-0.00101299,-0.00012946,-0.00031
 507,-0.00146534,0.00110705,-0.00063685,0.00087904,0.00003641,-0.000007
 80,0.00002740,-0.00015456,-0.00010962,0.00049265,0.00011215,0.00007423
 ,-0.00033779,-0.00018339,-0.00072525,-0.00001491,-0.00047238,0.0034032
 8,0.00343543,0.00057929,-0.00064170,-0.00027474,0.00382204,0.00176282,
 -0.00076197,0.00718913,-0.00698932,-0.04223983,0.08174396,-0.03807631,
 0.07114699,-0.00055999,0.00043070,0.00049208,-0.00023810,-0.00000612,0
 .00009012,0.00008402,-0.00012275,-0.00006836,0.00002711,0.00005368,-0.
 00023021,0.00021392,0.00005658,-0.00004998,-0.00018352,0.00019962,0.00
 064397,0.00020299,-0.00018261,-0.00033430,-0.00031474,0.00003572,0.000
 34320,0.00168905,0.00070384,-0.00029039,0.00110874,0.00015164,-0.00036
 911,0.00031487,-0.00016475,0.00028609,-0.00021868,-0.00077798,-0.00041
 249,-0.00303646,0.00118187,-0.00012883,0.00002928,0.00007040,-0.000093
 64,-0.00045382,0.00024970,-0.00012726,0.00078508,-0.00233699,0.0013948
 8,0.00261650,-0.00088835,0.00210914,-0.00027438,0.00031513,-0.00147812
 ,0.00085010,0.00060364,0.00088129,0.00025581,-0.00006298,0.00046477,-0
 .00021118,-0.00054892,0.00021299,-0.00011968,0.00033477,-0.00016575,-0
 .00000479,0.00006155,-0.00005943,0.00128334,-0.00187193,0.00048232,0.0
 0089111,-0.00130242,0.00015713,-0.00123832,0.00051906,-0.00058790,0.00
 154240,-0.00090936,0.00003582,-0.00041203,0.00059832,0.00081388,-0.000
 13276,0.00009690,-0.00052638,0.00051398,-0.00002256,0.00052825,-0.0001
 9022,-0.00003655,0.00029045,0.00005061,0.00013501,-0.00020341,0.000881
 21,0.00376424,-0.00386908,-0.00027864,-0.00026397,0.00197247,0.0056708
 9,0.00191295,-0.00031463,-0.05033294,0.01887562,-0.00222861,-0.9889474
 3,0.39823647,-0.08843826,1.02813669,0.00023188,-0.00019544,-0.00024128
 ,0.00010426,0.00005394,-0.00003804,-0.00003737,0.00005399,0.00001942,0
 .00000301,-0.00001161,0.00007751,-0.00008991,-0.00002098,0.00001898,0.
 00000812,-0.00009013,-0.00011797,0.00005039,0.00006406,0.00008595,0.00
 013823,0.00002860,-0.00010234,-0.00066732,-0.00046097,0.00024229,-0.00
 046929,0.00018073,0.00019658,-0.00012543,0.00006683,-0.00015285,0.0000
 6715,0.00029629,0.00017746,0.00073006,-0.00024324,-0.00004034,-0.00000
 438,-0.00003136,0.00004332,0.00019486,-0.00009371,0.00006994,-0.000261
 06,-0.00069759,0.00088830,-0.00085652,0.00026382,-0.00034513,0.0002824
 6,0.00024603,0.00059720,-0.00039230,-0.00021649,-0.00034516,-0.0000812
 1,-0.00000142,-0.00011579,0.00007056,0.00025290,-0.00009606,0.00005779
 ,-0.00015727,0.00007900,0.00001014,-0.00002825,0.00002843,-0.00041102,
 0.00029184,-0.00057177,-0.00010899,-0.00285940,-0.00075276,0.00048340,
 -0.00015532,0.00012008,-0.00054302,0.00029536,-0.00002293,-0.00003439,
 -0.00043884,-0.00013730,0.00005290,-0.00006716,0.00021311,-0.00040048,
 0.00007573,-0.00024983,0.00008092,-0.00001428,-0.00009666,0.00004951,0
 .00009535,0.00022207,-0.00253038,-0.00190186,0.00130573,-0.00002094,-0
 .00008566,-0.00050327,0.00013161,0.00037180,-0.00000318,0.02320318,0.0
 1175841,0.00088956,0.40017275,-0.19929418,0.03761469,-0.41908919,0.192
 66948,0.00000547,0.00005622,-0.00003444,0.00004822,-0.00004212,0.00002
 680,0.00000606,-0.00001323,-0.00003581,-0.00005546,0.00000788,0.000020
 68,-0.00000166,0.00001472,0.00000882,0.00000750,0.00010114,-0.00012595
 ,-0.00019541,0.00006294,0.00004208,-0.00000660,0.00001072,0.00001999,0
 .00006908,-0.00006403,-0.00004905,0.00008868,-0.00010305,0.00000483,-0
 .00006117,-0.00002742,0.00001349,0.00002601,0.00011197,0.00002128,0.00
 044782,-0.00025939,-0.00004511,-0.00000368,-0.00000565,-0.00001345,-0.
 00003831,-0.00001495,-0.00005661,0.00031298,0.00192979,-0.00129433,0.0
 0194551,-0.00062340,0.00152033,-0.00036828,-0.00033830,-0.00032171,0.0
 0019493,0.00000885,0.00013461,-0.00001187,0.00000190,-0.00001530,0.000
 01837,-0.00005981,0.00005525,-0.00002238,0.00004819,-0.00002610,0.0000
 0607,-0.00000728,-0.00000967,-0.00331742,0.00104710,-0.00017006,0.0012
 2109,-0.00084781,-0.00372144,0.00048670,-0.00030148,0.00024902,0.00016
 920,0.00003392,0.00042097,-0.00040205,0.00025839,-0.00022646,-0.000019
 96,0.00002005,-0.00006439,0.00011084,0.00005991,-0.00006399,-0.0000508
 4,-0.00001915,0.00012475,0.00007490,0.00010893,-0.00005463,0.00060144,
 -0.00013252,-0.00085128,-0.00020736,0.00010892,0.00019461,-0.00012090,
 -0.00046319,-0.00004391,-0.00443235,0.00199516,0.01562535,-0.08530246,
 0.03629303,-0.03572679,0.08877728,-0.03895695,0.02446765\\0.00001800,-
 0.00001524,0.00000004,-0.00000461,0.00000106,-0.00000817,-0.00001564,-
 0.00001186,-0.00000767,0.00000635,0.00000904,-0.00000604,-0.00000230,-
 0.00000060,-0.00000577,0.00005537,-0.00003488,0.00003813,0.00000112,-0
 .00000061,0.00000464,-0.00001706,-0.00000700,-0.00001486,-0.00004918,0
 .00003316,0.00000578,0.00002196,-0.00000258,-0.00000202,-0.00001263,-0
 .00000136,0.00000398,0.00000798,0.00001557,0.00001727,-0.00001238,0.00
 002849,-0.00001572,0.00000315,-0.00000592,-0.00000257,0.00000483,-0.00
 000817,-0.00001117,0.00000257,0.00000197,0.00000116,0.00001210,0.00000
 252,-0.00000683,0.00000385,0.00000471,0.00001021,-0.00000170,-0.000001
 43,0.00000314,-0.00001017,0.00002459,-0.00000941,-0.00001114,0.0000003
 5,-0.00000426,0.00000130,-0.00000150,-0.00000150,-0.00000366,0.0000018
 2,-0.00000089,-0.00000865,0.00001084,-0.00001430,0.00001169,-0.0000030
 1,0.00000746,0.00001145,-0.00001989,0.00000203,0.00002791,-0.00003064,
 0.00000743,0.00000035,0.00000269,0.00000489,-0.00001459,0.00001288,0.0
 0000615,-0.00002231,0.00000885,-0.00000140,-0.00000010,-0.00000006,0.0
 0000126,-0.00000065,-0.00000384,0.00000063,-0.00002536,-0.00000014,-0.
 00002382,0.00000157,0.00000457,-0.00000140,0.00002214,-0.00000454,0.00
 000376,-0.00002115,-0.00000490,0.00002698,0.00003885,-0.00001185,-0.00
 001048,-0.00001926,0.00000690,0.00000333\\\@
 The archive entry for this job was punched.


 BE NOT THE FIRST BY WHOM THE NEW ARE TRIED,
 NOR YET THE THE LAST TO LAY THE OLD ASIDE.

                          -- ALEXANDER POPE
 Job cpu time:       0 days 22 hours 25 minutes  5.6 seconds.
 Elapsed time:       0 days  0 hours 28 minutes  6.5 seconds.
 File lengths (MBytes):  RWF=   3155 Int=      0 D2E=      0 Chk=     48 Scr=      2
 Normal termination of Gaussian 16 at Mon Dec 19 14:02:02 2022.
