 Entering Gaussian System, Link 0=g16
 Initial command:
 /home/chesagar/softwares/G16_AVX2//g16/l1.exe "/home/chesagar/scratch/Gau-103767.inp" -scrdir="/home/chesagar/scratch/"
 Entering Link 1 = /home/chesagar/softwares/G16_AVX2//g16/l1.exe PID=    103769.
  
 Copyright (c) 1988-2019, Gaussian, Inc.  All Rights Reserved.
  
 This is part of the Gaussian(R) 16 program.  It is based on
 the Gaussian(R) 09 system (copyright 2009, Gaussian, Inc.),
 the Gaussian(R) 03 system (copyright 2003, Gaussian, Inc.),
 the Gaussian(R) 98 system (copyright 1998, Gaussian, Inc.),
 the Gaussian(R) 94 system (copyright 1995, Gaussian, Inc.),
 the Gaussian 92(TM) system (copyright 1992, Gaussian, Inc.),
 the Gaussian 90(TM) system (copyright 1990, Gaussian, Inc.),
 the Gaussian 88(TM) system (copyright 1988, Gaussian, Inc.),
 the Gaussian 86(TM) system (copyright 1986, Carnegie Mellon
 University), and the Gaussian 82(TM) system (copyright 1983,
 Carnegie Mellon University). Gaussian is a federally registered
 trademark of Gaussian, Inc.
  
 This software contains proprietary and confidential information,
 including trade secrets, belonging to Gaussian, Inc.
  
 This software is provided under written license and may be
 used, copied, transmitted, or stored only in accord with that
 written license.
  
 The following legend is applicable only to US Government
 contracts under FAR:
  
                    RESTRICTED RIGHTS LEGEND
  
 Use, reproduction and disclosure by the US Government is
 subject to restrictions as set forth in subparagraphs (a)
 and (c) of the Commercial Computer Software - Restricted
 Rights clause in FAR 52.227-19.
  
 Gaussian, Inc.
 340 Quinnipiac St., Bldg. 40, Wallingford CT 06492
  
  
 ---------------------------------------------------------------
 Warning -- This program may not be used in any manner that
 competes with the business of Gaussian, Inc. or will provide
 assistance to any competitor of Gaussian, Inc.  The licensee
 of this program is prohibited from giving any competitor of
 Gaussian, Inc. access to this program.  By using this program,
 the user acknowledges that Gaussian, Inc. is engaged in the
 business of creating and licensing software in the field of
 computational chemistry and represents and warrants to the
 licensee that it is not a competitor of Gaussian, Inc. and that
 it will not use this program in any manner prohibited above.
 ---------------------------------------------------------------
  

 Cite this work as:
 Gaussian 16, Revision C.01,
 M. J. Frisch, G. W. Trucks, H. B. Schlegel, G. E. Scuseria, 
 M. A. Robb, J. R. Cheeseman, G. Scalmani, V. Barone, 
 G. A. Petersson, H. Nakatsuji, X. Li, M. Caricato, A. V. Marenich, 
 J. Bloino, B. G. Janesko, R. Gomperts, B. Mennucci, H. P. Hratchian, 
 J. V. Ortiz, A. F. Izmaylov, J. L. Sonnenberg, D. Williams-Young, 
 F. Ding, F. Lipparini, F. Egidi, J. Goings, B. Peng, A. Petrone, 
 T. Henderson, D. Ranasinghe, V. G. Zakrzewski, J. Gao, N. Rega, 
 G. Zheng, W. Liang, M. Hada, M. Ehara, K. Toyota, R. Fukuda, 
 J. Hasegawa, M. Ishida, T. Nakajima, Y. Honda, O. Kitao, H. Nakai, 
 T. Vreven, K. Throssell, J. A. Montgomery, Jr., J. E. Peralta, 
 F. Ogliaro, M. J. Bearpark, J. J. Heyd, E. N. Brothers, K. N. Kudin, 
 V. N. Staroverov, T. A. Keith, R. Kobayashi, J. Normand, 
 K. Raghavachari, A. P. Rendell, J. C. Burant, S. S. Iyengar, 
 J. Tomasi, M. Cossi, J. M. Millam, M. Klene, C. Adamo, R. Cammi, 
 J. W. Ochterski, R. L. Martin, K. Morokuma, O. Farkas, 
 J. B. Foresman, and D. J. Fox, Gaussian, Inc., Wallingford CT, 2019.
 
 ******************************************
 Gaussian 16:  ES64L-G16RevC.01  3-Jul-2019
                20-Dec-2022 
 ******************************************
 %nprocshared=48
 Will use up to   48 processors via shared memory.
 %mem=100GB
 -----------------------------------------------------------
 # opt=(calcfc,ts,noeigen) freq b3lyp/gen nosymm pseudo=read
 -----------------------------------------------------------
 1/5=1,10=4,11=1,18=20,26=3,38=1/1,3;
 2/9=110,12=2,15=1,17=6,18=5,40=1/2;
 3/5=7,11=2,16=1,17=8,25=1,30=1,71=2,74=-5,140=1/1,2,3;
 4//1;
 5/5=2,38=5/2;
 8/6=4,10=90,11=11/1;
 11/6=1,8=1,9=11,15=111,16=1,31=1/1,2,10;
 10/6=1,13=1,31=1/2;
 6/7=2,8=2,9=2,10=2,28=1/1;
 7/10=1,25=1,30=1/1,2,3,16;
 1/5=1,10=4,11=1,18=20,26=3/3(2);
 2/9=110,15=1/2;
 99//99;
 2/9=110,15=1/2;
 3/5=7,6=1,11=2,16=1,17=8,25=1,30=1,71=1,74=-5,82=7/1,2,3;
 4/5=5,16=3,69=1/1;
 5/5=2,38=5/2;
 7/30=1/1,2,3,16;
 1/5=1,11=1,18=20,26=3/3(-5);
 2/9=110,15=1/2;
 6/7=2,8=2,9=2,10=2,19=2,28=1/1;
 99/9=1/99;
 -------------------
 Title Card Required
 -------------------
 Symbolic Z-matrix:
 Charge =  0 Multiplicity = 1
 42                   -0.00917   1.57638   12.31835 
 16                    1.0352    3.65369   12.58834 
 16                   -2.13918   2.07815   12.909 
 16                   -0.26307   0.95753   10.00407 
 16                    2.17366   0.09544   11.85536 
 42                   -2.07876   2.40341   10.51345 
 16                   -2.66784   1.81381   8.18771 
 16                   -1.31236   4.55079   10.45816 
 42                    0.81129   3.13342   10.179 
 16                    0.35117   3.31059   7.7149 
 16                    2.82723   1.99676   9.35504 
 42                    2.93573   2.53548   11.70749 
 42                   -1.96181   4.13138   8.14984 
 16                    3.73436   2.29329   14.15982 
 16                    4.37937   4.3085    11.66329 
 16                   -3.9805    5.29365   8.25354 
 16                   -0.7176    6.48509   7.87641 
 42                   -4.51612   3.10643   8.76938 
 16                   -6.18563   2.48797   7.60956 
 16                   -4.55926   2.84974   10.98563 
 42                    2.40126   0.51518   14.08854 
 16                    3.19404  -1.0958    15.20268 
 16                    0.31796   1.02923   14.75662 
 42                    1.70567   5.43168   7.32889 
 16                    1.04543   5.05677   4.98755 
 16                    1.65335   5.52864   9.81687 
 42                    3.48631   4.25143   9.43633 
 16                    3.60155   3.96269   6.96632 
 16                    5.32725   6.04848   9.20394 
 42                    4.44164   6.13496   7.17345 
 16                    5.79746   6.52272   5.59296 
 16                    2.67715   7.75556   7.29002 
 42                    1.72467   7.2907    5.13521 
 16                    2.92419   7.68385   3.42777 
 16                   -0.15037   8.52413   5.06501 
 42                   -0.91539   6.3119    5.66622 
 16                   -1.9735    4.04393   5.54107 
 1                    -3.4558    4.97012   5.20421 
 16                   -2.92315   7.22742   4.81167 
 1                    -3.63052   5.5822    5.07258 
 
 Add virtual bond connecting atoms H38        and S37        Dist= 3.36D+00.
 Add virtual bond connecting atoms H40        and S39        Dist= 3.42D+00.

 GradGradGradGradGradGradGradGradGradGradGradGradGradGradGradGradGradGrad
 Berny optimization.
 Initialization pass.
                           ----------------------------
                           !    Initial Parameters    !
                           ! (Angstroms and Degrees)  !
 --------------------------                            --------------------------
 ! Name  Definition              Value          Derivative Info.                !
 --------------------------------------------------------------------------------
 ! R1    R(1,2)                  2.3407         calculate D2E/DX2 analytically  !
 ! R2    R(1,3)                  2.2666         calculate D2E/DX2 analytically  !
 ! R3    R(1,4)                  2.409          calculate D2E/DX2 analytically  !
 ! R4    R(1,5)                  2.6781         calculate D2E/DX2 analytically  !
 ! R5    R(1,6)                  2.8679         calculate D2E/DX2 analytically  !
 ! R6    R(1,9)                  2.7703         calculate D2E/DX2 analytically  !
 ! R7    R(1,23)                 2.5202         calculate D2E/DX2 analytically  !
 ! R8    R(2,9)                  2.475          calculate D2E/DX2 analytically  !
 ! R9    R(2,12)                 2.3745         calculate D2E/DX2 analytically  !
 ! R10   R(3,6)                  2.4183         calculate D2E/DX2 analytically  !
 ! R11   R(4,6)                  2.3763         calculate D2E/DX2 analytically  !
 ! R12   R(4,9)                  2.433          calculate D2E/DX2 analytically  !
 ! R13   R(5,12)                 2.5605         calculate D2E/DX2 analytically  !
 ! R14   R(5,21)                 2.2837         calculate D2E/DX2 analytically  !
 ! R15   R(6,7)                  2.4706         calculate D2E/DX2 analytically  !
 ! R16   R(6,8)                  2.2807         calculate D2E/DX2 analytically  !
 ! R17   R(6,9)                  2.9995         calculate D2E/DX2 analytically  !
 ! R18   R(6,13)                 2.9302         calculate D2E/DX2 analytically  !
 ! R19   R(6,18)                 3.0784         calculate D2E/DX2 analytically  !
 ! R20   R(6,20)                 2.5642         calculate D2E/DX2 analytically  !
 ! R21   R(7,13)                 2.423          calculate D2E/DX2 analytically  !
 ! R22   R(7,18)                 2.3292         calculate D2E/DX2 analytically  !
 ! R23   R(8,9)                  2.5684         calculate D2E/DX2 analytically  !
 ! R24   R(8,13)                 2.4343         calculate D2E/DX2 analytically  !
 ! R25   R(9,10)                 2.5129         calculate D2E/DX2 analytically  !
 ! R26   R(9,11)                 2.4566         calculate D2E/DX2 analytically  !
 ! R27   R(9,12)                 2.6846         calculate D2E/DX2 analytically  !
 ! R28   R(9,26)                 2.5646         calculate D2E/DX2 analytically  !
 ! R29   R(9,27)                 2.9929         calculate D2E/DX2 analytically  !
 ! R30   R(10,13)                2.4925         calculate D2E/DX2 analytically  !
 ! R31   R(10,24)                2.5461         calculate D2E/DX2 analytically  !
 ! R32   R(11,12)                2.4158         calculate D2E/DX2 analytically  !
 ! R33   R(11,27)                2.3504         calculate D2E/DX2 analytically  !
 ! R34   R(12,14)                2.5904         calculate D2E/DX2 analytically  !
 ! R35   R(12,15)                2.2868         calculate D2E/DX2 analytically  !
 ! R36   R(12,27)                2.8993         calculate D2E/DX2 analytically  !
 ! R37   R(13,16)                2.3317         calculate D2E/DX2 analytically  !
 ! R38   R(13,17)                2.6763         calculate D2E/DX2 analytically  !
 ! R39   R(13,18)                2.8211         calculate D2E/DX2 analytically  !
 ! R40   R(13,37)                2.6103         calculate D2E/DX2 analytically  !
 ! R41   R(14,21)                2.2235         calculate D2E/DX2 analytically  !
 ! R42   R(15,27)                2.4            calculate D2E/DX2 analytically  !
 ! R43   R(16,18)                2.3102         calculate D2E/DX2 analytically  !
 ! R44   R(17,24)                2.6985         calculate D2E/DX2 analytically  !
 ! R45   R(17,36)                2.2258         calculate D2E/DX2 analytically  !
 ! R46   R(18,19)                2.1248         calculate D2E/DX2 analytically  !
 ! R47   R(18,20)                2.2315         calculate D2E/DX2 analytically  !
 ! R48   R(21,22)                2.1131         calculate D2E/DX2 analytically  !
 ! R49   R(21,23)                2.2474         calculate D2E/DX2 analytically  !
 ! R50   R(24,25)                2.4614         calculate D2E/DX2 analytically  !
 ! R51   R(24,26)                2.4904         calculate D2E/DX2 analytically  !
 ! R52   R(24,27)                3.0008         calculate D2E/DX2 analytically  !
 ! R53   R(24,28)                2.4257         calculate D2E/DX2 analytically  !
 ! R54   R(24,30)                2.8292         calculate D2E/DX2 analytically  !
 ! R55   R(24,32)                2.5191         calculate D2E/DX2 analytically  !
 ! R56   R(24,33)                2.8755         calculate D2E/DX2 analytically  !
 ! R57   R(25,33)                2.3396         calculate D2E/DX2 analytically  !
 ! R58   R(25,36)                2.425          calculate D2E/DX2 analytically  !
 ! R59   R(26,27)                2.2662         calculate D2E/DX2 analytically  !
 ! R60   R(27,28)                2.4895         calculate D2E/DX2 analytically  !
 ! R61   R(27,29)                2.5831         calculate D2E/DX2 analytically  !
 ! R62   R(27,30)                3.0953         calculate D2E/DX2 analytically  !
 ! R63   R(28,30)                2.3383         calculate D2E/DX2 analytically  !
 ! R64   R(29,30)                2.2169         calculate D2E/DX2 analytically  !
 ! R65   R(30,31)                2.1181         calculate D2E/DX2 analytically  !
 ! R66   R(30,32)                2.3986         calculate D2E/DX2 analytically  !
 ! R67   R(32,33)                2.4014         calculate D2E/DX2 analytically  !
 ! R68   R(33,34)                2.1234         calculate D2E/DX2 analytically  !
 ! R69   R(33,35)                2.2455         calculate D2E/DX2 analytically  !
 ! R70   R(33,36)                2.8653         calculate D2E/DX2 analytically  !
 ! R71   R(35,36)                2.4168         calculate D2E/DX2 analytically  !
 ! R72   R(36,37)                2.5058         calculate D2E/DX2 analytically  !
 ! R73   R(36,39)                2.3663         calculate D2E/DX2 analytically  !
 ! R74   R(37,38)                1.78           calculate D2E/DX2 analytically  !
 ! R75   R(38,40)                0.65           calculate D2E/DX2 analytically  !
 ! R76   R(39,40)                1.8097         calculate D2E/DX2 analytically  !
 ! A1    A(2,1,3)              101.1145         calculate D2E/DX2 analytically  !
 ! A2    A(2,1,4)              112.6946         calculate D2E/DX2 analytically  !
 ! A3    A(2,1,5)               98.4548         calculate D2E/DX2 analytically  !
 ! A4    A(2,1,6)               97.9696         calculate D2E/DX2 analytically  !
 ! A5    A(2,1,23)              91.3273         calculate D2E/DX2 analytically  !
 ! A6    A(3,1,4)              102.0149         calculate D2E/DX2 analytically  !
 ! A7    A(3,1,5)              158.9714         calculate D2E/DX2 analytically  !
 ! A8    A(3,1,9)              110.8015         calculate D2E/DX2 analytically  !
 ! A9    A(3,1,23)              85.2923         calculate D2E/DX2 analytically  !
 ! A10   A(4,1,5)               77.1599         calculate D2E/DX2 analytically  !
 ! A11   A(4,1,23)             152.5413         calculate D2E/DX2 analytically  !
 ! A12   A(5,1,6)              129.7058         calculate D2E/DX2 analytically  !
 ! A13   A(5,1,9)               86.3251         calculate D2E/DX2 analytically  !
 ! A14   A(5,1,23)              86.6408         calculate D2E/DX2 analytically  !
 ! A15   A(6,1,23)             139.9211         calculate D2E/DX2 analytically  !
 ! A16   A(9,1,23)             146.173          calculate D2E/DX2 analytically  !
 ! A17   A(1,2,12)              84.0532         calculate D2E/DX2 analytically  !
 ! A18   A(1,5,12)              74.0744         calculate D2E/DX2 analytically  !
 ! A19   A(1,5,21)              79.0787         calculate D2E/DX2 analytically  !
 ! A20   A(12,5,21)             81.4692         calculate D2E/DX2 analytically  !
 ! A21   A(1,6,7)              134.083          calculate D2E/DX2 analytically  !
 ! A22   A(1,6,8)               92.5378         calculate D2E/DX2 analytically  !
 ! A23   A(1,6,13)             130.4592         calculate D2E/DX2 analytically  !
 ! A24   A(1,6,20)             129.2268         calculate D2E/DX2 analytically  !
 ! A25   A(3,6,4)               98.6036         calculate D2E/DX2 analytically  !
 ! A26   A(3,6,7)              153.4404         calculate D2E/DX2 analytically  !
 ! A27   A(3,6,8)               99.1517         calculate D2E/DX2 analytically  !
 ! A28   A(3,6,9)               99.6288         calculate D2E/DX2 analytically  !
 ! A29   A(3,6,13)             151.5654         calculate D2E/DX2 analytically  !
 ! A30   A(3,6,18)             124.9002         calculate D2E/DX2 analytically  !
 ! A31   A(3,6,20)              79.4453         calculate D2E/DX2 analytically  !
 ! A32   A(4,6,7)               80.5136         calculate D2E/DX2 analytically  !
 ! A33   A(4,6,8)              108.1157         calculate D2E/DX2 analytically  !
 ! A34   A(4,6,13)              98.9406         calculate D2E/DX2 analytically  !
 ! A35   A(4,6,18)             128.4973         calculate D2E/DX2 analytically  !
 ! A36   A(4,6,20)             152.1937         calculate D2E/DX2 analytically  !
 ! A37   A(7,6,8)              106.3797         calculate D2E/DX2 analytically  !
 ! A38   A(7,6,9)              100.5361         calculate D2E/DX2 analytically  !
 ! A39   A(7,6,20)              89.0964         calculate D2E/DX2 analytically  !
 ! A40   A(8,6,18)              92.1378         calculate D2E/DX2 analytically  !
 ! A41   A(8,6,20)              99.5347         calculate D2E/DX2 analytically  !
 ! A42   A(9,6,13)              74.2217         calculate D2E/DX2 analytically  !
 ! A43   A(9,6,18)             130.0987         calculate D2E/DX2 analytically  !
 ! A44   A(9,6,20)             155.5367         calculate D2E/DX2 analytically  !
 ! A45   A(13,6,20)             94.8472         calculate D2E/DX2 analytically  !
 ! A46   A(9,8,13)              91.2862         calculate D2E/DX2 analytically  !
 ! A47   A(1,9,8)               88.9313         calculate D2E/DX2 analytically  !
 ! A48   A(1,9,10)             137.9569         calculate D2E/DX2 analytically  !
 ! A49   A(1,9,11)             104.0045         calculate D2E/DX2 analytically  !
 ! A50   A(1,9,12)              70.7005         calculate D2E/DX2 analytically  !
 ! A51   A(1,9,26)             136.9886         calculate D2E/DX2 analytically  !
 ! A52   A(1,9,27)             131.7826         calculate D2E/DX2 analytically  !
 ! A53   A(2,9,4)              107.3336         calculate D2E/DX2 analytically  !
 ! A54   A(2,9,6)               91.7068         calculate D2E/DX2 analytically  !
 ! A55   A(2,9,8)               81.5466         calculate D2E/DX2 analytically  !
 ! A56   A(2,9,10)             162.9963         calculate D2E/DX2 analytically  !
 ! A57   A(2,9,11)             110.4582         calculate D2E/DX2 analytically  !
 ! A58   A(2,9,26)              84.9185         calculate D2E/DX2 analytically  !
 ! A59   A(2,9,27)              94.7135         calculate D2E/DX2 analytically  !
 ! A60   A(4,9,8)               97.8299         calculate D2E/DX2 analytically  !
 ! A61   A(4,9,10)              84.934          calculate D2E/DX2 analytically  !
 ! A62   A(4,9,11)              85.6673         calculate D2E/DX2 analytically  !
 ! A63   A(4,9,12)             101.0217         calculate D2E/DX2 analytically  !
 ! A64   A(4,9,27)             135.3107         calculate D2E/DX2 analytically  !
 ! A65   A(6,9,10)              87.1383         calculate D2E/DX2 analytically  !
 ! A66   A(6,9,11)             135.6807         calculate D2E/DX2 analytically  !
 ! A67   A(6,9,12)             130.1483         calculate D2E/DX2 analytically  !
 ! A68   A(6,9,26)             124.0144         calculate D2E/DX2 analytically  !
 ! A69   A(8,9,10)              85.1975         calculate D2E/DX2 analytically  !
 ! A70   A(8,9,12)             135.671          calculate D2E/DX2 analytically  !
 ! A71   A(8,9,26)              76.7875         calculate D2E/DX2 analytically  !
 ! A72   A(8,9,27)             124.0455         calculate D2E/DX2 analytically  !
 ! A73   A(10,9,11)             81.6043         calculate D2E/DX2 analytically  !
 ! A74   A(10,9,12)            135.9627         calculate D2E/DX2 analytically  !
 ! A75   A(10,9,26)             81.71           calculate D2E/DX2 analytically  !
 ! A76   A(10,9,27)             83.9151         calculate D2E/DX2 analytically  !
 ! A77   A(11,9,26)             96.6227         calculate D2E/DX2 analytically  !
 ! A78   A(12,9,26)             91.638          calculate D2E/DX2 analytically  !
 ! A79   A(9,10,13)             91.2619         calculate D2E/DX2 analytically  !
 ! A80   A(9,10,24)             96.3146         calculate D2E/DX2 analytically  !
 ! A81   A(13,10,24)           104.2285         calculate D2E/DX2 analytically  !
 ! A82   A(2,12,5)             100.9018         calculate D2E/DX2 analytically  !
 ! A83   A(2,12,11)            115.4867         calculate D2E/DX2 analytically  !
 ! A84   A(2,12,14)             86.5373         calculate D2E/DX2 analytically  !
 ! A85   A(2,12,15)             98.4719         calculate D2E/DX2 analytically  !
 ! A86   A(2,12,27)             99.4315         calculate D2E/DX2 analytically  !
 ! A87   A(5,12,9)              90.5506         calculate D2E/DX2 analytically  !
 ! A88   A(5,12,11)             80.2336         calculate D2E/DX2 analytically  !
 ! A89   A(5,12,14)             87.0189         calculate D2E/DX2 analytically  !
 ! A90   A(5,12,15)            158.098          calculate D2E/DX2 analytically  !
 ! A91   A(5,12,27)            131.7406         calculate D2E/DX2 analytically  !
 ! A92   A(9,12,14)            143.4938         calculate D2E/DX2 analytically  !
 ! A93   A(9,12,15)            108.4132         calculate D2E/DX2 analytically  !
 ! A94   A(11,12,14)           156.1866         calculate D2E/DX2 analytically  !
 ! A95   A(11,12,15)           100.5109         calculate D2E/DX2 analytically  !
 ! A96   A(14,12,15)            84.0398         calculate D2E/DX2 analytically  !
 ! A97   A(14,12,27)           137.5933         calculate D2E/DX2 analytically  !
 ! A98   A(6,13,10)             89.0603         calculate D2E/DX2 analytically  !
 ! A99   A(6,13,16)            102.916          calculate D2E/DX2 analytically  !
 ! A100  A(6,13,17)            128.2858         calculate D2E/DX2 analytically  !
 ! A101  A(6,13,37)            141.8351         calculate D2E/DX2 analytically  !
 ! A102  A(7,13,8)             103.1621         calculate D2E/DX2 analytically  !
 ! A103  A(7,13,10)             87.6016         calculate D2E/DX2 analytically  !
 ! A104  A(7,13,16)            102.9328         calculate D2E/DX2 analytically  !
 ! A105  A(7,13,37)             88.9841         calculate D2E/DX2 analytically  !
 ! A106  A(8,13,10)             88.5463         calculate D2E/DX2 analytically  !
 ! A107  A(8,13,16)             95.9075         calculate D2E/DX2 analytically  !
 ! A108  A(8,13,17)             79.7079         calculate D2E/DX2 analytically  !
 ! A109  A(8,13,18)             95.5037         calculate D2E/DX2 analytically  !
 ! A110  A(8,13,37)            162.68           calculate D2E/DX2 analytically  !
 ! A111  A(10,13,17)            80.8147         calculate D2E/DX2 analytically  !
 ! A112  A(10,13,18)           139.3652         calculate D2E/DX2 analytically  !
 ! A113  A(10,13,37)            79.5562         calculate D2E/DX2 analytically  !
 ! A114  A(16,13,17)            88.2036         calculate D2E/DX2 analytically  !
 ! A115  A(16,13,37)            93.283          calculate D2E/DX2 analytically  !
 ! A116  A(17,13,18)           139.718          calculate D2E/DX2 analytically  !
 ! A117  A(17,13,37)            85.9536         calculate D2E/DX2 analytically  !
 ! A118  A(18,13,37)           101.7271         calculate D2E/DX2 analytically  !
 ! A119  A(12,14,21)            81.9277         calculate D2E/DX2 analytically  !
 ! A120  A(13,17,24)            95.4454         calculate D2E/DX2 analytically  !
 ! A121  A(13,17,36)            89.525          calculate D2E/DX2 analytically  !
 ! A122  A(24,17,36)            81.2539         calculate D2E/DX2 analytically  !
 ! A123  A(6,18,16)             99.1575         calculate D2E/DX2 analytically  !
 ! A124  A(6,18,19)            149.8669         calculate D2E/DX2 analytically  !
 ! A125  A(7,18,16)            106.5995         calculate D2E/DX2 analytically  !
 ! A126  A(7,18,19)            109.004          calculate D2E/DX2 analytically  !
 ! A127  A(7,18,20)            101.5091         calculate D2E/DX2 analytically  !
 ! A128  A(13,18,19)           134.2086         calculate D2E/DX2 analytically  !
 ! A129  A(13,18,20)           106.1053         calculate D2E/DX2 analytically  !
 ! A130  A(16,18,19)           109.6249         calculate D2E/DX2 analytically  !
 ! A131  A(16,18,20)           109.5822         calculate D2E/DX2 analytically  !
 ! A132  A(19,18,20)           119.567          calculate D2E/DX2 analytically  !
 ! A133  A(5,21,14)            103.7738         calculate D2E/DX2 analytically  !
 ! A134  A(5,21,22)            114.3853         calculate D2E/DX2 analytically  !
 ! A135  A(5,21,23)            103.9073         calculate D2E/DX2 analytically  !
 ! A136  A(14,21,22)           111.5823         calculate D2E/DX2 analytically  !
 ! A137  A(14,21,23)           111.305          calculate D2E/DX2 analytically  !
 ! A138  A(22,21,23)           111.4341         calculate D2E/DX2 analytically  !
 ! A139  A(1,23,21)             83.2453         calculate D2E/DX2 analytically  !
 ! A140  A(10,24,17)            79.4387         calculate D2E/DX2 analytically  !
 ! A141  A(10,24,25)            82.7976         calculate D2E/DX2 analytically  !
 ! A142  A(10,24,26)            82.5186         calculate D2E/DX2 analytically  !
 ! A143  A(10,24,27)            83.1971         calculate D2E/DX2 analytically  !
 ! A144  A(10,24,28)            86.2127         calculate D2E/DX2 analytically  !
 ! A145  A(10,24,30)           136.8756         calculate D2E/DX2 analytically  !
 ! A146  A(10,24,33)           131.1289         calculate D2E/DX2 analytically  !
 ! A147  A(17,24,25)            90.6638         calculate D2E/DX2 analytically  !
 ! A148  A(17,24,26)            76.3044         calculate D2E/DX2 analytically  !
 ! A149  A(17,24,27)           122.9504         calculate D2E/DX2 analytically  !
 ! A150  A(17,24,30)           141.4938         calculate D2E/DX2 analytically  !
 ! A151  A(17,24,32)            89.3885         calculate D2E/DX2 analytically  !
 ! A152  A(17,24,33)            84.7414         calculate D2E/DX2 analytically  !
 ! A153  A(25,24,26)           161.9154         calculate D2E/DX2 analytically  !
 ! A154  A(25,24,27)           140.1118         calculate D2E/DX2 analytically  !
 ! A155  A(25,24,28)            88.5804         calculate D2E/DX2 analytically  !
 ! A156  A(25,24,30)           104.1818         calculate D2E/DX2 analytically  !
 ! A157  A(25,24,32)           103.2552         calculate D2E/DX2 analytically  !
 ! A158  A(26,24,28)           100.9131         calculate D2E/DX2 analytically  !
 ! A159  A(26,24,30)            93.757          calculate D2E/DX2 analytically  !
 ! A160  A(26,24,32)            89.2895         calculate D2E/DX2 analytically  !
 ! A161  A(26,24,33)           137.4857         calculate D2E/DX2 analytically  !
 ! A162  A(27,24,32)            98.3272         calculate D2E/DX2 analytically  !
 ! A163  A(27,24,33)           141.8239         calculate D2E/DX2 analytically  !
 ! A164  A(28,24,32)           104.7707         calculate D2E/DX2 analytically  !
 ! A165  A(28,24,33)           105.803          calculate D2E/DX2 analytically  !
 ! A166  A(30,24,33)            77.9356         calculate D2E/DX2 analytically  !
 ! A167  A(24,25,36)            82.6368         calculate D2E/DX2 analytically  !
 ! A168  A(9,26,24)             96.4076         calculate D2E/DX2 analytically  !
 ! A169  A(9,27,15)             96.3855         calculate D2E/DX2 analytically  !
 ! A170  A(9,27,24)             77.926          calculate D2E/DX2 analytically  !
 ! A171  A(9,27,28)            104.1375         calculate D2E/DX2 analytically  !
 ! A172  A(9,27,29)            156.8097         calculate D2E/DX2 analytically  !
 ! A173  A(9,27,30)            133.2029         calculate D2E/DX2 analytically  !
 ! A174  A(11,27,15)            99.163          calculate D2E/DX2 analytically  !
 ! A175  A(11,27,24)           100.7546         calculate D2E/DX2 analytically  !
 ! A176  A(11,27,26)           108.6405         calculate D2E/DX2 analytically  !
 ! A177  A(11,27,28)            82.3804         calculate D2E/DX2 analytically  !
 ! A178  A(11,27,29)           149.7778         calculate D2E/DX2 analytically  !
 ! A179  A(11,27,30)           130.1639         calculate D2E/DX2 analytically  !
 ! A180  A(12,27,24)           132.0851         calculate D2E/DX2 analytically  !
 ! A181  A(12,27,26)            92.7756         calculate D2E/DX2 analytically  !
 ! A182  A(12,27,28)           135.8374         calculate D2E/DX2 analytically  !
 ! A183  A(12,27,29)           128.1385         calculate D2E/DX2 analytically  !
 ! A184  A(15,27,24)           149.6652         calculate D2E/DX2 analytically  !
 ! A185  A(15,27,26)            97.571          calculate D2E/DX2 analytically  !
 ! A186  A(15,27,28)           154.9794         calculate D2E/DX2 analytically  !
 ! A187  A(15,27,29)            78.5648         calculate D2E/DX2 analytically  !
 ! A188  A(15,27,30)           123.3007         calculate D2E/DX2 analytically  !
 ! A189  A(24,27,29)            94.9389         calculate D2E/DX2 analytically  !
 ! A190  A(26,27,28)           105.6291         calculate D2E/DX2 analytically  !
 ! A191  A(26,27,29)           101.5051         calculate D2E/DX2 analytically  !
 ! A192  A(26,27,30)            91.6873         calculate D2E/DX2 analytically  !
 ! A193  A(28,27,29)            87.6182         calculate D2E/DX2 analytically  !
 ! A194  A(24,30,29)           109.0442         calculate D2E/DX2 analytically  !
 ! A195  A(24,30,31)           134.8709         calculate D2E/DX2 analytically  !
 ! A196  A(27,30,31)           148.6992         calculate D2E/DX2 analytically  !
 ! A197  A(27,30,32)            98.5434         calculate D2E/DX2 analytically  !
 ! A198  A(28,30,29)           100.8604         calculate D2E/DX2 analytically  !
 ! A199  A(28,30,31)           109.5088         calculate D2E/DX2 analytically  !
 ! A200  A(28,30,32)           111.573          calculate D2E/DX2 analytically  !
 ! A201  A(29,30,31)           115.7761         calculate D2E/DX2 analytically  !
 ! A202  A(29,30,32)           106.0042         calculate D2E/DX2 analytically  !
 ! A203  A(31,30,32)           112.5478         calculate D2E/DX2 analytically  !
 ! A204  A(30,32,33)            96.7407         calculate D2E/DX2 analytically  !
 ! A205  A(24,33,34)           137.4664         calculate D2E/DX2 analytically  !
 ! A206  A(24,33,35)           111.929          calculate D2E/DX2 analytically  !
 ! A207  A(24,33,36)            68.3881         calculate D2E/DX2 analytically  !
 ! A208  A(25,33,32)           110.8933         calculate D2E/DX2 analytically  !
 ! A209  A(25,33,34)           106.8609         calculate D2E/DX2 analytically  !
 ! A210  A(25,33,35)           106.266          calculate D2E/DX2 analytically  !
 ! A211  A(32,33,34)           117.4933         calculate D2E/DX2 analytically  !
 ! A212  A(32,33,35)           104.6509         calculate D2E/DX2 analytically  !
 ! A213  A(32,33,36)           105.3843         calculate D2E/DX2 analytically  !
 ! A214  A(34,33,35)           110.1741         calculate D2E/DX2 analytically  !
 ! A215  A(34,33,36)           137.1194         calculate D2E/DX2 analytically  !
 ! A216  A(17,36,25)           104.2599         calculate D2E/DX2 analytically  !
 ! A217  A(17,36,33)            94.334          calculate D2E/DX2 analytically  !
 ! A218  A(17,36,35)            98.492          calculate D2E/DX2 analytically  !
 ! A219  A(17,36,37)            99.0643         calculate D2E/DX2 analytically  !
 ! A220  A(17,36,39)           113.8216         calculate D2E/DX2 analytically  !
 ! A221  A(25,36,35)            98.5227         calculate D2E/DX2 analytically  !
 ! A222  A(25,36,37)            81.8947         calculate D2E/DX2 analytically  !
 ! A223  A(25,36,39)           141.7424         calculate D2E/DX2 analytically  !
 ! A224  A(33,36,37)           133.5513         calculate D2E/DX2 analytically  !
 ! A225  A(33,36,39)           125.6395         calculate D2E/DX2 analytically  !
 ! A226  A(35,36,37)           161.7583         calculate D2E/DX2 analytically  !
 ! A227  A(35,36,39)            79.8976         calculate D2E/DX2 analytically  !
 ! A228  A(37,36,39)            88.5019         calculate D2E/DX2 analytically  !
 ! A229  A(13,37,36)            85.2891         calculate D2E/DX2 analytically  !
 ! A230  A(13,37,38)           100.1042         calculate D2E/DX2 analytically  !
 ! A231  A(36,37,38)            83.6934         calculate D2E/DX2 analytically  !
 ! A232  A(37,38,40)           138.7754         calculate D2E/DX2 analytically  !
 ! A233  A(36,39,40)            85.8627         calculate D2E/DX2 analytically  !
 ! A234  A(38,40,39)           141.278          calculate D2E/DX2 analytically  !
 ! A235  L(1,6,18,8,-1)        184.6757         calculate D2E/DX2 analytically  !
 ! A236  L(4,9,26,2,-1)        192.2522         calculate D2E/DX2 analytically  !
 ! A237  L(6,9,27,2,-1)        186.4203         calculate D2E/DX2 analytically  !
 ! A238  L(8,9,11,1,-1)        192.9358         calculate D2E/DX2 analytically  !
 ! A239  L(7,13,17,8,-1)       182.87           calculate D2E/DX2 analytically  !
 ! A240  L(10,13,16,6,-1)      191.9763         calculate D2E/DX2 analytically  !
 ! A241  L(10,24,32,17,-1)     168.8272         calculate D2E/DX2 analytically  !
 ! A242  L(17,24,28,10,-1)     165.6514         calculate D2E/DX2 analytically  !
 ! A243  L(12,27,30,26,-1)     184.4629         calculate D2E/DX2 analytically  !
 ! A244  L(1,6,18,8,-2)        184.3704         calculate D2E/DX2 analytically  !
 ! A245  L(4,9,26,2,-2)        187.0187         calculate D2E/DX2 analytically  !
 ! A246  L(6,9,27,2,-2)        189.6056         calculate D2E/DX2 analytically  !
 ! A247  L(8,9,11,1,-2)        174.5945         calculate D2E/DX2 analytically  !
 ! A248  L(7,13,17,8,-2)       168.1233         calculate D2E/DX2 analytically  !
 ! A249  L(10,13,16,6,-2)      175.5563         calculate D2E/DX2 analytically  !
 ! A250  L(10,24,32,17,-2)     174.2029         calculate D2E/DX2 analytically  !
 ! A251  L(17,24,28,10,-2)     181.0764         calculate D2E/DX2 analytically  !
 ! A252  L(12,27,30,26,-2)     173.9709         calculate D2E/DX2 analytically  !
 ! D1    D(3,1,2,12)          -175.56           calculate D2E/DX2 analytically  !
 ! D2    D(4,1,2,12)           -67.3738         calculate D2E/DX2 analytically  !
 ! D3    D(5,1,2,12)            12.1768         calculate D2E/DX2 analytically  !
 ! D4    D(6,1,2,12)          -120.1202         calculate D2E/DX2 analytically  !
 ! D5    D(23,1,2,12)           98.9775         calculate D2E/DX2 analytically  !
 ! D6    D(2,1,5,12)           -11.6725         calculate D2E/DX2 analytically  !
 ! D7    D(2,1,5,21)            72.4703         calculate D2E/DX2 analytically  !
 ! D8    D(3,1,5,12)          -170.0719         calculate D2E/DX2 analytically  !
 ! D9    D(3,1,5,21)           -85.929          calculate D2E/DX2 analytically  !
 ! D10   D(4,1,5,12)            99.8079         calculate D2E/DX2 analytically  !
 ! D11   D(4,1,5,21)          -176.0493         calculate D2E/DX2 analytically  !
 ! D12   D(6,1,5,12)            96.1236         calculate D2E/DX2 analytically  !
 ! D13   D(6,1,5,21)          -179.7335         calculate D2E/DX2 analytically  !
 ! D14   D(9,1,5,12)            44.3747         calculate D2E/DX2 analytically  !
 ! D15   D(9,1,5,21)           128.5175         calculate D2E/DX2 analytically  !
 ! D16   D(23,1,5,12)         -102.5167         calculate D2E/DX2 analytically  !
 ! D17   D(23,1,5,21)          -18.3739         calculate D2E/DX2 analytically  !
 ! D18   D(2,1,6,7)            117.6659         calculate D2E/DX2 analytically  !
 ! D19   D(2,1,6,8)              1.824          calculate D2E/DX2 analytically  !
 ! D20   D(2,1,6,13)            44.4307         calculate D2E/DX2 analytically  !
 ! D21   D(2,1,6,20)          -102.6669         calculate D2E/DX2 analytically  !
 ! D22   D(5,1,6,7)              9.6531         calculate D2E/DX2 analytically  !
 ! D23   D(5,1,6,8)           -106.1889         calculate D2E/DX2 analytically  !
 ! D24   D(5,1,6,13)           -63.5822         calculate D2E/DX2 analytically  !
 ! D25   D(5,1,6,20)           149.3202         calculate D2E/DX2 analytically  !
 ! D26   D(23,1,6,7)          -140.6387         calculate D2E/DX2 analytically  !
 ! D27   D(23,1,6,8)           103.5194         calculate D2E/DX2 analytically  !
 ! D28   D(23,1,6,13)          146.1261         calculate D2E/DX2 analytically  !
 ! D29   D(23,1,6,20)           -0.9715         calculate D2E/DX2 analytically  !
 ! D30   D(3,1,9,8)              9.8549         calculate D2E/DX2 analytically  !
 ! D31   D(3,1,9,10)           -71.7659         calculate D2E/DX2 analytically  !
 ! D32   D(3,1,9,11)          -164.7396         calculate D2E/DX2 analytically  !
 ! D33   D(3,1,9,12)           149.726          calculate D2E/DX2 analytically  !
 ! D34   D(3,1,9,26)            79.0541         calculate D2E/DX2 analytically  !
 ! D35   D(3,1,9,27)           147.0992         calculate D2E/DX2 analytically  !
 ! D36   D(5,1,9,8)            177.3149         calculate D2E/DX2 analytically  !
 ! D37   D(5,1,9,10)            95.6941         calculate D2E/DX2 analytically  !
 ! D38   D(5,1,9,11)             2.7203         calculate D2E/DX2 analytically  !
 ! D39   D(5,1,9,12)           -42.814          calculate D2E/DX2 analytically  !
 ! D40   D(5,1,9,26)          -113.4859         calculate D2E/DX2 analytically  !
 ! D41   D(5,1,9,27)           -45.4408         calculate D2E/DX2 analytically  !
 ! D42   D(23,1,9,8)          -104.2992         calculate D2E/DX2 analytically  !
 ! D43   D(23,1,9,10)          174.08           calculate D2E/DX2 analytically  !
 ! D44   D(23,1,9,11)           81.1063         calculate D2E/DX2 analytically  !
 ! D45   D(23,1,9,12)           35.5719         calculate D2E/DX2 analytically  !
 ! D46   D(23,1,9,26)          -35.1            calculate D2E/DX2 analytically  !
 ! D47   D(23,1,9,27)           32.9451         calculate D2E/DX2 analytically  !
 ! D48   D(2,1,23,21)          -79.9294         calculate D2E/DX2 analytically  !
 ! D49   D(3,1,23,21)          179.0263         calculate D2E/DX2 analytically  !
 ! D50   D(4,1,23,21)           71.8987         calculate D2E/DX2 analytically  !
 ! D51   D(5,1,23,21)           18.4635         calculate D2E/DX2 analytically  !
 ! D52   D(6,1,23,21)          176.0105         calculate D2E/DX2 analytically  !
 ! D53   D(9,1,23,21)          -59.8284         calculate D2E/DX2 analytically  !
 ! D54   D(1,2,12,5)           -12.8399         calculate D2E/DX2 analytically  !
 ! D55   D(1,2,12,11)           71.4462         calculate D2E/DX2 analytically  !
 ! D56   D(1,2,12,14)          -99.1295         calculate D2E/DX2 analytically  !
 ! D57   D(1,2,12,15)          177.4274         calculate D2E/DX2 analytically  !
 ! D58   D(1,2,12,27)          123.1551         calculate D2E/DX2 analytically  !
 ! D59   D(1,4,6,9)             72.4067         calculate D2E/DX2 analytically  !
 ! D60   D(1,5,12,2)            11.5892         calculate D2E/DX2 analytically  !
 ! D61   D(1,5,12,9)           -46.072          calculate D2E/DX2 analytically  !
 ! D62   D(1,5,12,11)         -102.71           calculate D2E/DX2 analytically  !
 ! D63   D(1,5,12,14)           97.4821         calculate D2E/DX2 analytically  !
 ! D64   D(1,5,12,15)          163.3851         calculate D2E/DX2 analytically  !
 ! D65   D(1,5,12,27)         -101.7077         calculate D2E/DX2 analytically  !
 ! D66   D(21,5,12,2)          -69.4113         calculate D2E/DX2 analytically  !
 ! D67   D(21,5,12,9)         -127.0725         calculate D2E/DX2 analytically  !
 ! D68   D(21,5,12,11)         176.2895         calculate D2E/DX2 analytically  !
 ! D69   D(21,5,12,14)          16.4816         calculate D2E/DX2 analytically  !
 ! D70   D(21,5,12,15)          82.3846         calculate D2E/DX2 analytically  !
 ! D71   D(21,5,12,27)         177.2918         calculate D2E/DX2 analytically  !
 ! D72   D(1,5,21,14)          -95.1754         calculate D2E/DX2 analytically  !
 ! D73   D(1,5,21,22)          143.0251         calculate D2E/DX2 analytically  !
 ! D74   D(1,5,21,23)           21.3175         calculate D2E/DX2 analytically  !
 ! D75   D(12,5,21,14)         -19.868          calculate D2E/DX2 analytically  !
 ! D76   D(12,5,21,22)        -141.6675         calculate D2E/DX2 analytically  !
 ! D77   D(12,5,21,23)          96.6249         calculate D2E/DX2 analytically  !
 ! D78   D(3,6,9,2)            -17.7126         calculate D2E/DX2 analytically  !
 ! D79   D(3,6,9,10)           179.2657         calculate D2E/DX2 analytically  !
 ! D80   D(3,6,9,11)           104.3616         calculate D2E/DX2 analytically  !
 ! D81   D(3,6,9,12)            25.1738         calculate D2E/DX2 analytically  !
 ! D82   D(3,6,9,26)          -102.7335         calculate D2E/DX2 analytically  !
 ! D83   D(7,6,9,2)            179.6637         calculate D2E/DX2 analytically  !
 ! D84   D(7,6,9,10)            16.642          calculate D2E/DX2 analytically  !
 ! D85   D(7,6,9,11)           -58.2621         calculate D2E/DX2 analytically  !
 ! D86   D(7,6,9,12)          -137.4499         calculate D2E/DX2 analytically  !
 ! D87   D(7,6,9,26)            94.6428         calculate D2E/DX2 analytically  !
 ! D88   D(13,6,9,2)           133.7987         calculate D2E/DX2 analytically  !
 ! D89   D(13,6,9,10)          -29.223          calculate D2E/DX2 analytically  !
 ! D90   D(13,6,9,11)         -104.1271         calculate D2E/DX2 analytically  !
 ! D91   D(13,6,9,12)          176.6851         calculate D2E/DX2 analytically  !
 ! D92   D(13,6,9,26)           48.7778         calculate D2E/DX2 analytically  !
 ! D93   D(18,6,9,2)           136.6451         calculate D2E/DX2 analytically  !
 ! D94   D(18,6,9,10)          -26.3766         calculate D2E/DX2 analytically  !
 ! D95   D(18,6,9,11)         -101.2807         calculate D2E/DX2 analytically  !
 ! D96   D(18,6,9,12)          179.5315         calculate D2E/DX2 analytically  !
 ! D97   D(18,6,9,26)           51.6242         calculate D2E/DX2 analytically  !
 ! D98   D(20,6,9,2)            67.9434         calculate D2E/DX2 analytically  !
 ! D99   D(20,6,9,10)          -95.0783         calculate D2E/DX2 analytically  !
 ! D100  D(20,6,9,11)         -169.9824         calculate D2E/DX2 analytically  !
 ! D101  D(20,6,9,12)          110.8298         calculate D2E/DX2 analytically  !
 ! D102  D(20,6,9,26)          -17.0775         calculate D2E/DX2 analytically  !
 ! D103  D(1,6,13,10)           32.1435         calculate D2E/DX2 analytically  !
 ! D104  D(1,6,13,16)         -143.4128         calculate D2E/DX2 analytically  !
 ! D105  D(1,6,13,17)          -45.3623         calculate D2E/DX2 analytically  !
 ! D106  D(1,6,13,37)          103.8273         calculate D2E/DX2 analytically  !
 ! D107  D(3,6,13,10)          110.4285         calculate D2E/DX2 analytically  !
 ! D108  D(3,6,13,16)          -65.1278         calculate D2E/DX2 analytically  !
 ! D109  D(3,6,13,17)           32.9227         calculate D2E/DX2 analytically  !
 ! D110  D(3,6,13,37)         -177.8877         calculate D2E/DX2 analytically  !
 ! D111  D(4,6,13,10)          -17.0586         calculate D2E/DX2 analytically  !
 ! D112  D(4,6,13,16)          167.3851         calculate D2E/DX2 analytically  !
 ! D113  D(4,6,13,17)          -94.5644         calculate D2E/DX2 analytically  !
 ! D114  D(4,6,13,37)           54.6252         calculate D2E/DX2 analytically  !
 ! D115  D(9,6,13,10)           29.4497         calculate D2E/DX2 analytically  !
 ! D116  D(9,6,13,16)         -146.1066         calculate D2E/DX2 analytically  !
 ! D117  D(9,6,13,17)          -48.0562         calculate D2E/DX2 analytically  !
 ! D118  D(9,6,13,37)          101.1334         calculate D2E/DX2 analytically  !
 ! D119  D(20,6,13,10)        -172.8368         calculate D2E/DX2 analytically  !
 ! D120  D(20,6,13,16)          11.6069         calculate D2E/DX2 analytically  !
 ! D121  D(20,6,13,17)         109.6573         calculate D2E/DX2 analytically  !
 ! D122  D(20,6,13,37)        -101.153          calculate D2E/DX2 analytically  !
 ! D123  D(3,6,18,16)          108.9745         calculate D2E/DX2 analytically  !
 ! D124  D(3,6,18,19)          -88.2041         calculate D2E/DX2 analytically  !
 ! D125  D(4,6,18,16)         -109.0345         calculate D2E/DX2 analytically  !
 ! D126  D(4,6,18,19)           53.787          calculate D2E/DX2 analytically  !
 ! D127  D(8,6,18,16)            6.2594         calculate D2E/DX2 analytically  !
 ! D128  D(8,6,18,19)          169.0808         calculate D2E/DX2 analytically  !
 ! D129  D(9,6,18,16)          -39.6788         calculate D2E/DX2 analytically  !
 ! D130  D(9,6,18,19)          123.1427         calculate D2E/DX2 analytically  !
 ! D131  D(6,7,13,18)          -84.0716         calculate D2E/DX2 analytically  !
 ! D132  D(13,8,9,1)          -123.8544         calculate D2E/DX2 analytically  !
 ! D133  D(13,8,9,2)          -176.2057         calculate D2E/DX2 analytically  !
 ! D134  D(13,8,9,4)           -69.7302         calculate D2E/DX2 analytically  !
 ! D135  D(13,8,9,10)           14.4729         calculate D2E/DX2 analytically  !
 ! D136  D(13,8,9,12)          175.6281         calculate D2E/DX2 analytically  !
 ! D137  D(13,8,9,26)           97.0669         calculate D2E/DX2 analytically  !
 ! D138  D(13,8,9,27)           93.8032         calculate D2E/DX2 analytically  !
 ! D139  D(9,8,13,7)            72.6493         calculate D2E/DX2 analytically  !
 ! D140  D(9,8,13,10)          -14.5465         calculate D2E/DX2 analytically  !
 ! D141  D(9,8,13,16)          177.4389         calculate D2E/DX2 analytically  !
 ! D142  D(9,8,13,17)          -95.4741         calculate D2E/DX2 analytically  !
 ! D143  D(9,8,13,18)          124.9345         calculate D2E/DX2 analytically  !
 ! D144  D(9,8,13,37)          -60.88           calculate D2E/DX2 analytically  !
 ! D145  D(1,9,10,13)           68.9156         calculate D2E/DX2 analytically  !
 ! D146  D(1,9,10,24)          173.3805         calculate D2E/DX2 analytically  !
 ! D147  D(2,9,10,13)          -52.9398         calculate D2E/DX2 analytically  !
 ! D148  D(2,9,10,24)           51.5251         calculate D2E/DX2 analytically  !
 ! D149  D(4,9,10,13)           84.1919         calculate D2E/DX2 analytically  !
 ! D150  D(4,9,10,24)         -171.3431         calculate D2E/DX2 analytically  !
 ! D151  D(6,9,10,13)           33.5351         calculate D2E/DX2 analytically  !
 ! D152  D(6,9,10,24)          138.0            calculate D2E/DX2 analytically  !
 ! D153  D(8,9,10,13)          -14.1278         calculate D2E/DX2 analytically  !
 ! D154  D(8,9,10,24)           90.3371         calculate D2E/DX2 analytically  !
 ! D155  D(11,9,10,13)         170.5465         calculate D2E/DX2 analytically  !
 ! D156  D(11,9,10,24)         -84.9886         calculate D2E/DX2 analytically  !
 ! D157  D(12,9,10,13)        -175.1802         calculate D2E/DX2 analytically  !
 ! D158  D(12,9,10,24)         -70.7153         calculate D2E/DX2 analytically  !
 ! D159  D(26,9,10,13)         -91.4453         calculate D2E/DX2 analytically  !
 ! D160  D(26,9,10,24)          13.0196         calculate D2E/DX2 analytically  !
 ! D161  D(27,9,10,13)        -139.1548         calculate D2E/DX2 analytically  !
 ! D162  D(27,9,10,24)         -34.6899         calculate D2E/DX2 analytically  !
 ! D163  D(1,9,12,5)            45.1859         calculate D2E/DX2 analytically  !
 ! D164  D(1,9,12,14)          -40.5451         calculate D2E/DX2 analytically  !
 ! D165  D(1,9,12,15)         -145.9619         calculate D2E/DX2 analytically  !
 ! D166  D(4,9,12,5)            -1.0215         calculate D2E/DX2 analytically  !
 ! D167  D(4,9,12,14)          -86.7525         calculate D2E/DX2 analytically  !
 ! D168  D(4,9,12,15)          167.8307         calculate D2E/DX2 analytically  !
 ! D169  D(6,9,12,5)            45.9625         calculate D2E/DX2 analytically  !
 ! D170  D(6,9,12,14)          -39.7684         calculate D2E/DX2 analytically  !
 ! D171  D(6,9,12,15)         -145.1852         calculate D2E/DX2 analytically  !
 ! D172  D(8,9,12,5)           112.4325         calculate D2E/DX2 analytically  !
 ! D173  D(8,9,12,14)           26.7015         calculate D2E/DX2 analytically  !
 ! D174  D(8,9,12,15)          -78.7153         calculate D2E/DX2 analytically  !
 ! D175  D(10,9,12,5)          -95.1512         calculate D2E/DX2 analytically  !
 ! D176  D(10,9,12,14)         179.1179         calculate D2E/DX2 analytically  !
 ! D177  D(10,9,12,15)          73.7011         calculate D2E/DX2 analytically  !
 ! D178  D(26,9,12,5)         -174.9019         calculate D2E/DX2 analytically  !
 ! D179  D(26,9,12,14)          99.3671         calculate D2E/DX2 analytically  !
 ! D180  D(26,9,12,15)          -6.0497         calculate D2E/DX2 analytically  !
 ! D181  D(1,9,26,24)         -174.0523         calculate D2E/DX2 analytically  !
 ! D182  D(2,9,26,24)          177.2134         calculate D2E/DX2 analytically  !
 ! D183  D(6,9,26,24)          -94.1581         calculate D2E/DX2 analytically  !
 ! D184  D(8,9,26,24)         -100.2978         calculate D2E/DX2 analytically  !
 ! D185  D(10,9,26,24)         -13.3185         calculate D2E/DX2 analytically  !
 ! D186  D(11,9,26,24)          67.1576         calculate D2E/DX2 analytically  !
 ! D187  D(12,9,26,24)         122.9518         calculate D2E/DX2 analytically  !
 ! D188  D(1,9,27,15)          -25.8147         calculate D2E/DX2 analytically  !
 ! D189  D(1,9,27,24)         -175.6045         calculate D2E/DX2 analytically  !
 ! D190  D(1,9,27,28)          139.7617         calculate D2E/DX2 analytically  !
 ! D191  D(1,9,27,29)         -101.6105         calculate D2E/DX2 analytically  !
 ! D192  D(1,9,27,30)         -175.4704         calculate D2E/DX2 analytically  !
 ! D193  D(2,9,27,15)           16.2092         calculate D2E/DX2 analytically  !
 ! D194  D(2,9,27,24)         -133.5806         calculate D2E/DX2 analytically  !
 ! D195  D(2,9,27,28)         -178.2144         calculate D2E/DX2 analytically  !
 ! D196  D(2,9,27,29)          -59.5866         calculate D2E/DX2 analytically  !
 ! D197  D(2,9,27,30)         -133.4465         calculate D2E/DX2 analytically  !
 ! D198  D(4,9,27,15)         -104.3506         calculate D2E/DX2 analytically  !
 ! D199  D(4,9,27,24)          105.8597         calculate D2E/DX2 analytically  !
 ! D200  D(4,9,27,28)           61.2258         calculate D2E/DX2 analytically  !
 ! D201  D(4,9,27,29)          179.8536         calculate D2E/DX2 analytically  !
 ! D202  D(4,9,27,30)          105.9937         calculate D2E/DX2 analytically  !
 ! D203  D(8,9,27,15)           99.1839         calculate D2E/DX2 analytically  !
 ! D204  D(8,9,27,24)          -50.6058         calculate D2E/DX2 analytically  !
 ! D205  D(8,9,27,28)          -95.2397         calculate D2E/DX2 analytically  !
 ! D206  D(8,9,27,29)           23.3881         calculate D2E/DX2 analytically  !
 ! D207  D(8,9,27,30)          -50.4718         calculate D2E/DX2 analytically  !
 ! D208  D(10,9,27,15)         179.1844         calculate D2E/DX2 analytically  !
 ! D209  D(10,9,27,24)          29.3946         calculate D2E/DX2 analytically  !
 ! D210  D(10,9,27,28)         -15.2392         calculate D2E/DX2 analytically  !
 ! D211  D(10,9,27,29)         103.3886         calculate D2E/DX2 analytically  !
 ! D212  D(10,9,27,30)          29.5287         calculate D2E/DX2 analytically  !
 ! D213  D(9,10,13,6)          -34.3943         calculate D2E/DX2 analytically  !
 ! D214  D(9,10,13,7)          -88.366          calculate D2E/DX2 analytically  !
 ! D215  D(9,10,13,8)           14.8748         calculate D2E/DX2 analytically  !
 ! D216  D(9,10,13,17)          94.6831         calculate D2E/DX2 analytically  !
 ! D217  D(9,10,13,18)         -81.8874         calculate D2E/DX2 analytically  !
 ! D218  D(9,10,13,37)        -177.7745         calculate D2E/DX2 analytically  !
 ! D219  D(24,10,13,6)        -131.2334         calculate D2E/DX2 analytically  !
 ! D220  D(24,10,13,7)         174.7949         calculate D2E/DX2 analytically  !
 ! D221  D(24,10,13,8)         -81.9644         calculate D2E/DX2 analytically  !
 ! D222  D(24,10,13,17)         -2.1561         calculate D2E/DX2 analytically  !
 ! D223  D(24,10,13,18)       -178.7265         calculate D2E/DX2 analytically  !
 ! D224  D(24,10,13,37)         85.3864         calculate D2E/DX2 analytically  !
 ! D225  D(9,10,24,17)         -90.7713         calculate D2E/DX2 analytically  !
 ! D226  D(9,10,24,25)         177.1977         calculate D2E/DX2 analytically  !
 ! D227  D(9,10,24,26)         -13.388          calculate D2E/DX2 analytically  !
 ! D228  D(9,10,24,27)          34.6407         calculate D2E/DX2 analytically  !
 ! D229  D(9,10,24,28)          88.1523         calculate D2E/DX2 analytically  !
 ! D230  D(9,10,24,30)          74.1168         calculate D2E/DX2 analytically  !
 ! D231  D(9,10,24,33)        -164.1175         calculate D2E/DX2 analytically  !
 ! D232  D(13,10,24,17)          2.1473         calculate D2E/DX2 analytically  !
 ! D233  D(13,10,24,25)        -89.8837         calculate D2E/DX2 analytically  !
 ! D234  D(13,10,24,26)         79.5307         calculate D2E/DX2 analytically  !
 ! D235  D(13,10,24,27)        127.5593         calculate D2E/DX2 analytically  !
 ! D236  D(13,10,24,28)       -178.929          calculate D2E/DX2 analytically  !
 ! D237  D(13,10,24,30)        167.0355         calculate D2E/DX2 analytically  !
 ! D238  D(13,10,24,33)        -71.1988         calculate D2E/DX2 analytically  !
 ! D239  D(9,11,12,27)         -82.0308         calculate D2E/DX2 analytically  !
 ! D240  D(2,12,14,21)          84.2004         calculate D2E/DX2 analytically  !
 ! D241  D(5,12,14,21)         -16.9205         calculate D2E/DX2 analytically  !
 ! D242  D(9,12,14,21)          69.9733         calculate D2E/DX2 analytically  !
 ! D243  D(11,12,14,21)        -74.3252         calculate D2E/DX2 analytically  !
 ! D244  D(15,12,14,21)       -176.8995         calculate D2E/DX2 analytically  !
 ! D245  D(27,12,14,21)       -175.5939         calculate D2E/DX2 analytically  !
 ! D246  D(2,12,27,24)         -45.9026         calculate D2E/DX2 analytically  !
 ! D247  D(2,12,27,26)          -3.9418         calculate D2E/DX2 analytically  !
 ! D248  D(2,12,27,28)        -119.8589         calculate D2E/DX2 analytically  !
 ! D249  D(2,12,27,29)         103.0333         calculate D2E/DX2 analytically  !
 ! D250  D(5,12,27,24)          67.9979         calculate D2E/DX2 analytically  !
 ! D251  D(5,12,27,26)         109.9587         calculate D2E/DX2 analytically  !
 ! D252  D(5,12,27,28)          -5.9583         calculate D2E/DX2 analytically  !
 ! D253  D(5,12,27,29)        -143.0661         calculate D2E/DX2 analytically  !
 ! D254  D(14,12,27,24)       -141.1289         calculate D2E/DX2 analytically  !
 ! D255  D(14,12,27,26)        -99.1681         calculate D2E/DX2 analytically  !
 ! D256  D(14,12,27,28)        144.9149         calculate D2E/DX2 analytically  !
 ! D257  D(14,12,27,29)          7.8071         calculate D2E/DX2 analytically  !
 ! D258  D(6,13,17,24)          83.4232         calculate D2E/DX2 analytically  !
 ! D259  D(6,13,17,36)         164.5911         calculate D2E/DX2 analytically  !
 ! D260  D(8,13,17,24)          92.1667         calculate D2E/DX2 analytically  !
 ! D261  D(8,13,17,36)         173.3345         calculate D2E/DX2 analytically  !
 ! D262  D(10,13,17,24)          1.9808         calculate D2E/DX2 analytically  !
 ! D263  D(10,13,17,36)         83.1487         calculate D2E/DX2 analytically  !
 ! D264  D(16,13,17,24)       -171.4977         calculate D2E/DX2 analytically  !
 ! D265  D(16,13,17,36)        -90.3299         calculate D2E/DX2 analytically  !
 ! D266  D(18,13,17,24)        178.5264         calculate D2E/DX2 analytically  !
 ! D267  D(18,13,17,36)       -100.3057         calculate D2E/DX2 analytically  !
 ! D268  D(37,13,17,24)        -78.0775         calculate D2E/DX2 analytically  !
 ! D269  D(37,13,17,36)          3.0903         calculate D2E/DX2 analytically  !
 ! D270  D(8,13,18,19)         174.7165         calculate D2E/DX2 analytically  !
 ! D271  D(8,13,18,20)          -9.4352         calculate D2E/DX2 analytically  !
 ! D272  D(10,13,18,19)        -91.0889         calculate D2E/DX2 analytically  !
 ! D273  D(10,13,18,20)         84.7594         calculate D2E/DX2 analytically  !
 ! D274  D(17,13,18,19)         94.1516         calculate D2E/DX2 analytically  !
 ! D275  D(17,13,18,20)        -90.0001         calculate D2E/DX2 analytically  !
 ! D276  D(37,13,18,19)         -3.5183         calculate D2E/DX2 analytically  !
 ! D277  D(37,13,18,20)        172.33           calculate D2E/DX2 analytically  !
 ! D278  D(6,13,37,36)        -158.9853         calculate D2E/DX2 analytically  !
 ! D279  D(6,13,37,38)         118.2903         calculate D2E/DX2 analytically  !
 ! D280  D(7,13,37,36)        -171.8936         calculate D2E/DX2 analytically  !
 ! D281  D(7,13,37,38)         105.382          calculate D2E/DX2 analytically  !
 ! D282  D(8,13,37,36)         -36.8111         calculate D2E/DX2 analytically  !
 ! D283  D(8,13,37,38)        -119.5355         calculate D2E/DX2 analytically  !
 ! D284  D(10,13,37,36)        -84.1453         calculate D2E/DX2 analytically  !
 ! D285  D(10,13,37,38)       -166.8697         calculate D2E/DX2 analytically  !
 ! D286  D(16,13,37,36)         85.2096         calculate D2E/DX2 analytically  !
 ! D287  D(16,13,37,38)          2.4853         calculate D2E/DX2 analytically  !
 ! D288  D(17,13,37,36)         -2.7539         calculate D2E/DX2 analytically  !
 ! D289  D(17,13,37,38)        -85.4783         calculate D2E/DX2 analytically  !
 ! D290  D(18,13,37,36)        137.2775         calculate D2E/DX2 analytically  !
 ! D291  D(18,13,37,38)         54.5531         calculate D2E/DX2 analytically  !
 ! D292  D(12,14,21,5)          19.6054         calculate D2E/DX2 analytically  !
 ! D293  D(12,14,21,22)        143.2552         calculate D2E/DX2 analytically  !
 ! D294  D(12,14,21,23)        -91.5698         calculate D2E/DX2 analytically  !
 ! D295  D(13,17,24,10)         -1.9472         calculate D2E/DX2 analytically  !
 ! D296  D(13,17,24,25)         80.6003         calculate D2E/DX2 analytically  !
 ! D297  D(13,17,24,26)        -86.7325         calculate D2E/DX2 analytically  !
 ! D298  D(13,17,24,27)        -76.6133         calculate D2E/DX2 analytically  !
 ! D299  D(13,17,24,30)       -165.3142         calculate D2E/DX2 analytically  !
 ! D300  D(13,17,24,32)       -176.1502         calculate D2E/DX2 analytically  !
 ! D301  D(13,17,24,33)        131.61           calculate D2E/DX2 analytically  !
 ! D302  D(36,17,24,10)        -90.6241         calculate D2E/DX2 analytically  !
 ! D303  D(36,17,24,25)         -8.0766         calculate D2E/DX2 analytically  !
 ! D304  D(36,17,24,26)       -175.4094         calculate D2E/DX2 analytically  !
 ! D305  D(36,17,24,27)       -165.2902         calculate D2E/DX2 analytically  !
 ! D306  D(36,17,24,30)        106.009          calculate D2E/DX2 analytically  !
 ! D307  D(36,17,24,32)         95.173          calculate D2E/DX2 analytically  !
 ! D308  D(36,17,24,33)         42.9331         calculate D2E/DX2 analytically  !
 ! D309  D(13,17,36,25)        -87.1229         calculate D2E/DX2 analytically  !
 ! D310  D(13,17,36,33)       -138.6342         calculate D2E/DX2 analytically  !
 ! D311  D(13,17,36,35)        171.7752         calculate D2E/DX2 analytically  !
 ! D312  D(13,17,36,37)         -3.2519         calculate D2E/DX2 analytically  !
 ! D313  D(13,17,36,39)         89.1262         calculate D2E/DX2 analytically  !
 ! D314  D(24,17,36,25)          8.4604         calculate D2E/DX2 analytically  !
 ! D315  D(24,17,36,33)        -43.0509         calculate D2E/DX2 analytically  !
 ! D316  D(24,17,36,35)        -92.6415         calculate D2E/DX2 analytically  !
 ! D317  D(24,17,36,37)         92.3314         calculate D2E/DX2 analytically  !
 ! D318  D(24,17,36,39)       -175.2905         calculate D2E/DX2 analytically  !
 ! D319  D(5,21,23,1)          -22.4554         calculate D2E/DX2 analytically  !
 ! D320  D(14,21,23,1)          88.6347         calculate D2E/DX2 analytically  !
 ! D321  D(22,21,23,1)        -146.1075         calculate D2E/DX2 analytically  !
 ! D322  D(10,24,25,36)         86.6513         calculate D2E/DX2 analytically  !
 ! D323  D(17,24,25,36)          7.3837         calculate D2E/DX2 analytically  !
 ! D324  D(26,24,25,36)         50.7243         calculate D2E/DX2 analytically  !
 ! D325  D(27,24,25,36)        156.9338         calculate D2E/DX2 analytically  !
 ! D326  D(28,24,25,36)        173.0125         calculate D2E/DX2 analytically  !
 ! D327  D(30,24,25,36)       -136.7242         calculate D2E/DX2 analytically  !
 ! D328  D(32,24,25,36)        -82.1445         calculate D2E/DX2 analytically  !
 ! D329  D(10,24,26,9)          13.1157         calculate D2E/DX2 analytically  !
 ! D330  D(17,24,26,9)          94.0093         calculate D2E/DX2 analytically  !
 ! D331  D(25,24,26,9)          49.0688         calculate D2E/DX2 analytically  !
 ! D332  D(28,24,26,9)         -71.5384         calculate D2E/DX2 analytically  !
 ! D333  D(30,24,26,9)        -123.6953         calculate D2E/DX2 analytically  !
 ! D334  D(32,24,26,9)        -176.4469         calculate D2E/DX2 analytically  !
 ! D335  D(33,24,26,9)         160.0928         calculate D2E/DX2 analytically  !
 ! D336  D(10,24,27,9)         -29.0198         calculate D2E/DX2 analytically  !
 ! D337  D(10,24,27,11)         19.2539         calculate D2E/DX2 analytically  !
 ! D338  D(10,24,27,12)        -30.7291         calculate D2E/DX2 analytically  !
 ! D339  D(10,24,27,15)       -110.9514         calculate D2E/DX2 analytically  !
 ! D340  D(10,24,27,29)        173.3096         calculate D2E/DX2 analytically  !
 ! D341  D(17,24,27,9)          43.685          calculate D2E/DX2 analytically  !
 ! D342  D(17,24,27,11)         91.9587         calculate D2E/DX2 analytically  !
 ! D343  D(17,24,27,12)         41.9757         calculate D2E/DX2 analytically  !
 ! D344  D(17,24,27,15)        -38.2466         calculate D2E/DX2 analytically  !
 ! D345  D(17,24,27,29)       -113.9855         calculate D2E/DX2 analytically  !
 ! D346  D(25,24,27,9)         -99.1659         calculate D2E/DX2 analytically  !
 ! D347  D(25,24,27,11)        -50.8922         calculate D2E/DX2 analytically  !
 ! D348  D(25,24,27,12)       -100.8752         calculate D2E/DX2 analytically  !
 ! D349  D(25,24,27,15)        178.9025         calculate D2E/DX2 analytically  !
 ! D350  D(25,24,27,29)        103.1636         calculate D2E/DX2 analytically  !
 ! D351  D(32,24,27,9)         138.3898         calculate D2E/DX2 analytically  !
 ! D352  D(32,24,27,11)       -173.3365         calculate D2E/DX2 analytically  !
 ! D353  D(32,24,27,12)        136.6805         calculate D2E/DX2 analytically  !
 ! D354  D(32,24,27,15)         56.4581         calculate D2E/DX2 analytically  !
 ! D355  D(32,24,27,29)        -19.2808         calculate D2E/DX2 analytically  !
 ! D356  D(33,24,27,9)         174.0524         calculate D2E/DX2 analytically  !
 ! D357  D(33,24,27,11)       -137.6739         calculate D2E/DX2 analytically  !
 ! D358  D(33,24,27,12)        172.3431         calculate D2E/DX2 analytically  !
 ! D359  D(33,24,27,15)         92.1208         calculate D2E/DX2 analytically  !
 ! D360  D(33,24,27,29)         16.3818         calculate D2E/DX2 analytically  !
 ! D361  D(10,24,30,29)        -72.2498         calculate D2E/DX2 analytically  !
 ! D362  D(10,24,30,31)        100.8537         calculate D2E/DX2 analytically  !
 ! D363  D(17,24,30,29)         83.4421         calculate D2E/DX2 analytically  !
 ! D364  D(17,24,30,31)       -103.4544         calculate D2E/DX2 analytically  !
 ! D365  D(25,24,30,29)       -166.8751         calculate D2E/DX2 analytically  !
 ! D366  D(25,24,30,31)          6.2284         calculate D2E/DX2 analytically  !
 ! D367  D(26,24,30,29)         10.8136         calculate D2E/DX2 analytically  !
 ! D368  D(26,24,30,31)       -176.0828         calculate D2E/DX2 analytically  !
 ! D369  D(33,24,30,29)        148.6598         calculate D2E/DX2 analytically  !
 ! D370  D(33,24,30,31)        -38.2367         calculate D2E/DX2 analytically  !
 ! D371  D(10,24,33,34)       -100.4084         calculate D2E/DX2 analytically  !
 ! D372  D(10,24,33,35)         70.9967         calculate D2E/DX2 analytically  !
 ! D373  D(10,24,33,36)         36.821          calculate D2E/DX2 analytically  !
 ! D374  D(17,24,33,34)       -171.4588         calculate D2E/DX2 analytically  !
 ! D375  D(17,24,33,35)         -0.0537         calculate D2E/DX2 analytically  !
 ! D376  D(17,24,33,36)        -34.2294         calculate D2E/DX2 analytically  !
 ! D377  D(26,24,33,34)        125.4282         calculate D2E/DX2 analytically  !
 ! D378  D(26,24,33,35)        -63.1667         calculate D2E/DX2 analytically  !
 ! D379  D(26,24,33,36)        -97.3424         calculate D2E/DX2 analytically  !
 ! D380  D(27,24,33,34)         48.486          calculate D2E/DX2 analytically  !
 ! D381  D(27,24,33,35)       -140.1088         calculate D2E/DX2 analytically  !
 ! D382  D(27,24,33,36)       -174.2845         calculate D2E/DX2 analytically  !
 ! D383  D(28,24,33,34)         -1.4327         calculate D2E/DX2 analytically  !
 ! D384  D(28,24,33,35)        169.9724         calculate D2E/DX2 analytically  !
 ! D385  D(28,24,33,36)        135.7967         calculate D2E/DX2 analytically  !
 ! D386  D(30,24,33,34)         43.1277         calculate D2E/DX2 analytically  !
 ! D387  D(30,24,33,35)       -145.4671         calculate D2E/DX2 analytically  !
 ! D388  D(30,24,33,36)       -179.6428         calculate D2E/DX2 analytically  !
 ! D389  D(24,25,36,17)         -9.2503         calculate D2E/DX2 analytically  !
 ! D390  D(24,25,36,35)         91.8282         calculate D2E/DX2 analytically  !
 ! D391  D(24,25,36,37)       -106.6041         calculate D2E/DX2 analytically  !
 ! D392  D(24,25,36,39)        176.2961         calculate D2E/DX2 analytically  !
 ! D393  D(30,27,28,24)        -74.7998         calculate D2E/DX2 analytically  !
 ! D394  D(9,27,30,31)        -129.4675         calculate D2E/DX2 analytically  !
 ! D395  D(9,27,30,32)          43.9606         calculate D2E/DX2 analytically  !
 ! D396  D(11,27,30,31)        -56.0354         calculate D2E/DX2 analytically  !
 ! D397  D(11,27,30,32)        117.3928         calculate D2E/DX2 analytically  !
 ! D398  D(15,27,30,31)         87.4521         calculate D2E/DX2 analytically  !
 ! D399  D(15,27,30,32)        -99.1198         calculate D2E/DX2 analytically  !
 ! D400  D(26,27,30,31)       -172.3496         calculate D2E/DX2 analytically  !
 ! D401  D(26,27,30,32)          1.0786         calculate D2E/DX2 analytically  !
 ! D402  D(27,30,32,33)       -113.9307         calculate D2E/DX2 analytically  !
 ! D403  D(28,30,32,33)        -61.1943         calculate D2E/DX2 analytically  !
 ! D404  D(29,30,32,33)       -170.1105         calculate D2E/DX2 analytically  !
 ! D405  D(31,30,32,33)         62.378          calculate D2E/DX2 analytically  !
 ! D406  D(30,32,33,25)         59.0979         calculate D2E/DX2 analytically  !
 ! D407  D(30,32,33,34)        -64.1765         calculate D2E/DX2 analytically  !
 ! D408  D(30,32,33,35)        173.2827         calculate D2E/DX2 analytically  !
 ! D409  D(30,32,33,36)        116.3418         calculate D2E/DX2 analytically  !
 ! D410  D(24,33,36,17)         42.9252         calculate D2E/DX2 analytically  !
 ! D411  D(24,33,36,37)        -63.9354         calculate D2E/DX2 analytically  !
 ! D412  D(24,33,36,39)        166.4801         calculate D2E/DX2 analytically  !
 ! D413  D(32,33,36,17)         -0.1755         calculate D2E/DX2 analytically  !
 ! D414  D(32,33,36,37)       -107.036          calculate D2E/DX2 analytically  !
 ! D415  D(32,33,36,39)        123.3794         calculate D2E/DX2 analytically  !
 ! D416  D(34,33,36,17)       -179.4997         calculate D2E/DX2 analytically  !
 ! D417  D(34,33,36,37)         73.6397         calculate D2E/DX2 analytically  !
 ! D418  D(34,33,36,39)        -55.9449         calculate D2E/DX2 analytically  !
 ! D419  D(17,36,37,13)          3.3455         calculate D2E/DX2 analytically  !
 ! D420  D(17,36,37,38)        104.0774         calculate D2E/DX2 analytically  !
 ! D421  D(25,36,37,13)        106.5975         calculate D2E/DX2 analytically  !
 ! D422  D(25,36,37,38)       -152.6707         calculate D2E/DX2 analytically  !
 ! D423  D(33,36,37,13)        108.2526         calculate D2E/DX2 analytically  !
 ! D424  D(33,36,37,38)       -151.0155         calculate D2E/DX2 analytically  !
 ! D425  D(35,36,37,13)       -160.7586         calculate D2E/DX2 analytically  !
 ! D426  D(35,36,37,38)        -60.0268         calculate D2E/DX2 analytically  !
 ! D427  D(39,36,37,13)       -110.5434         calculate D2E/DX2 analytically  !
 ! D428  D(39,36,37,38)         -9.8115         calculate D2E/DX2 analytically  !
 ! D429  D(17,36,39,40)        -89.463          calculate D2E/DX2 analytically  !
 ! D430  D(25,36,39,40)         84.6598         calculate D2E/DX2 analytically  !
 ! D431  D(33,36,39,40)        155.8166         calculate D2E/DX2 analytically  !
 ! D432  D(35,36,39,40)        175.6435         calculate D2E/DX2 analytically  !
 ! D433  D(37,36,39,40)          9.786          calculate D2E/DX2 analytically  !
 ! D434  D(13,37,38,40)         93.5421         calculate D2E/DX2 analytically  !
 ! D435  D(36,37,38,40)          9.49           calculate D2E/DX2 analytically  !
 ! D436  D(37,38,40,39)          1.9894         calculate D2E/DX2 analytically  !
 ! D437  D(36,39,40,38)        -12.4534         calculate D2E/DX2 analytically  !
 --------------------------------------------------------------------------------
 Trust Radius=3.00D-01 FncErr=1.00D-07 GrdErr=1.00D-06 EigMax=2.50D+02 EigMin=1.00D-04
 Number of steps in this run=    240 maximum allowed number of steps=    240.
 Search for a saddle point of order  1.
 GradGradGradGradGradGradGradGradGradGradGradGradGradGradGradGradGradGrad

                          Input orientation:                          
 ---------------------------------------------------------------------
 Center     Atomic      Atomic             Coordinates (Angstroms)
 Number     Number       Type             X           Y           Z
 ---------------------------------------------------------------------
      1         42           0       -0.009174    1.576378   12.318347
      2         16           0        1.035205    3.653691   12.588337
      3         16           0       -2.139185    2.078146   12.908999
      4         16           0       -0.263070    0.957527   10.004069
      5         16           0        2.173659    0.095438   11.855360
      6         42           0       -2.078755    2.403410   10.513447
      7         16           0       -2.667838    1.813808    8.187709
      8         16           0       -1.312361    4.550785   10.458160
      9         42           0        0.811288    3.133424   10.178995
     10         16           0        0.351166    3.310590    7.714904
     11         16           0        2.827231    1.996764    9.355035
     12         42           0        2.935732    2.535475   11.707488
     13         42           0       -1.961807    4.131378    8.149842
     14         16           0        3.734356    2.293290   14.159818
     15         16           0        4.379374    4.308501   11.663287
     16         16           0       -3.980503    5.293651    8.253541
     17         16           0       -0.717598    6.485087    7.876407
     18         42           0       -4.516121    3.106430    8.769379
     19         16           0       -6.185626    2.487965    7.609558
     20         16           0       -4.559263    2.849736   10.985625
     21         42           0        2.401264    0.515179   14.088539
     22         16           0        3.194043   -1.095801   15.202676
     23         16           0        0.317958    1.029226   14.756621
     24         42           0        1.705665    5.431682    7.328888
     25         16           0        1.045434    5.056767    4.987547
     26         16           0        1.653352    5.528636    9.816866
     27         42           0        3.486312    4.251431    9.436328
     28         16           0        3.601550    3.962687    6.966322
     29         16           0        5.327249    6.048480    9.203943
     30         42           0        4.441641    6.134959    7.173445
     31         16           0        5.797463    6.522721    5.592963
     32         16           0        2.677149    7.755557    7.290025
     33         42           0        1.724667    7.290696    5.135206
     34         16           0        2.924187    7.683851    3.427766
     35         16           0       -0.150370    8.524134    5.065006
     36         42           0       -0.915386    6.311899    5.666216
     37         16           0       -1.973503    4.043931    5.541072
     38          1           0       -3.455797    4.970118    5.204207
     39         16           0       -2.923154    7.227419    4.811674
     40          1           0       -3.630517    5.582203    5.072584
 ---------------------------------------------------------------------
                    Distance matrix (angstroms):
                    1          2          3          4          5
     1  Mo   0.000000
     2  S    2.340695   0.000000
     3  S    2.266625   3.558359   0.000000
     4  S    2.409009   3.953892   3.635136   0.000000
     5  S    2.678115   3.807164   4.862295   3.179328   0.000000
     6  Mo   2.867893   3.945265   2.418288   2.376290   5.021005
     7  S    4.918032   6.038479   4.758143   3.132936   6.312254
     8  S    3.742418   3.294465   3.578295   3.770771   5.827059
     9  Mo   2.770267   2.475024   4.155938   2.432976   3.727682
    10  S    4.932446   4.933151   5.890619   3.339830   5.549960
    11  S    4.123486   4.051050   6.107583   3.324337   3.208399
    12  Mo   3.156816   2.374511   5.235223   3.952707   2.560547
    13  Mo   5.264716   5.376849   5.186212   4.049345   6.864529
    14  S    4.233083   3.406708   6.009103   5.918946   3.546386
    15  S    5.210850   3.531000   7.001278   5.961067   4.759409
    16  S    6.790598   6.829147   5.950060   5.973745   8.824298
    17  S    6.657937   5.769871   6.838788   5.940325   8.063439
    18  Mo   5.937070   6.760263   4.882996   4.922468   7.958801
    19  S    7.819990   8.848026   6.680248   6.569063   9.676191
    20  S    4.909267   5.874785   3.186141   4.795955   7.326311
    21  Mo   3.173316   3.737242   4.944680   4.896656   2.283654
    22  S    5.071538   5.835497   6.616511   6.572161   3.696587
    23  S    2.520232   3.479039   3.248306   4.788474   3.568319
    24  Mo   6.534428   5.592189   7.560867   5.572304   7.013093
    25  S    8.183272   7.729213   9.042311   6.609194   8.547194
    26  S    4.964045   3.402731   5.987529   4.960117   5.826304
    27  Mo   5.261213   4.037373   6.959082   5.022947   4.984682
    28  S    6.883020   6.187783   8.474842   5.761439   6.395090
    29  S    7.627360   5.967477   9.232477   7.603267   7.239741
    30  Mo   8.189043   6.861600   9.626089   7.546691   7.971191
    31  S   10.169274   8.935642  11.673432   9.335915   9.677786
    32  S    8.407295   6.898797   9.327537   7.888228   8.931585
    33  Mo   9.341154   8.321798  10.125803   8.232008   9.855648
    34  S   11.178026  10.184621  12.122518   9.932261  11.365370
    35  S   10.045009   9.040316  10.345742   9.036625  11.070363
    36  Mo   8.215670   7.667244   8.478222   6.921834   9.300112
    37  S    7.475217   7.672585   7.627458   5.689448   8.524071
    38  H    8.602771   8.742280   8.334314   7.023750   9.984544
    39  S    9.837463   9.429561   9.627891   8.564377  11.245273
    40  H    9.036694   9.053986   8.712742   7.552938  10.478506
                    6          7          8          9         10
     6  Mo   0.000000
     7  S    2.470568   0.000000
     8  S    2.280709   3.805694   0.000000
     9  Mo   2.999521   4.220299   2.568410   0.000000
    10  S    3.815670   3.402688   3.439602   2.512935   0.000000
    11  S    5.057270   5.620668   4.987598   2.456610   3.247625
    12  Mo   5.156380   6.656549   4.865037   2.684604   4.818870
    13  Mo   2.930218   2.423024   2.434341   3.578188   2.492530
    14  S    6.862974   8.768357   6.653413   5.009701   7.349680
    15  S    6.830735   8.244170   5.822961   4.039204   5.728177
    16  S    4.132471   3.719776   3.539940   5.597787   4.794373
    17  S    5.046466   5.071606   3.280353   4.344312   3.353471
    18  Mo   3.078435   2.329241   3.899003   5.510811   4.984384
    19  S    5.030518   3.628165   6.009865   7.481673   6.589193
    20  S    2.564192   3.532558   3.703263   5.438194   5.917965
    21  Mo   6.034672   7.886826   6.576989   4.966665   7.255374
    22  S    7.876277   9.593604   8.643034   6.985788   9.141387
    23  S    5.063313   7.258178   5.791035   5.062182   7.402128
    24  Mo   5.799455   5.740567   4.435854   3.768953   2.546116
    25  S    6.880148   5.877602   5.978530   5.541228   3.312041
    26  S    4.917406   5.926785   3.187931   2.564615   3.321695
    27  Mo   5.961991   6.736068   4.915386   2.992866   3.698327
    28  S    6.875995   6.739042   6.056840   4.335263   3.398618
    29  S    8.357645   9.104208   6.921024   5.462800   5.871514
    30  Mo   8.221656   8.381275   6.812305   5.587666   5.000222
    31  S   10.159463  10.028354   8.837888   7.575022   6.669525
    32  S    7.852041   8.042332   6.018624   5.761224   5.034724
    33  Mo   8.202259   7.655598   6.713009   6.599771   4.937873
    34  S   10.154770   9.401341   8.785834   8.411291   6.642695
    35  S    8.418280   7.817761   6.798811   7.492491   5.869799
    36  Mo   6.334458   5.446268   5.120726   5.783535   3.848264
    37  S    5.237070   3.529906   4.987160   5.485838   3.266102
    38  H    6.055763   4.414120   5.689832   6.806613   4.852896
    39  S    7.516268   6.385138   6.453048   7.714596   5.872943
    40  H    6.489659   4.983127   5.953326   7.197331   5.291113
                   11         12         13         14         15
    11  S    0.000000
    12  Mo   2.415785   0.000000
    13  Mo   5.379958   6.260163   0.000000
    14  S    4.898647   2.590439   8.482019   0.000000
    15  S    3.616808   2.286849   7.251637   3.272582   0.000000
    16  S    7.643821   8.208020   2.331687  10.168841   9.082094
    17  S    5.907385   6.604804   2.676335   8.767686   6.712459
    18  Mo   7.449777   8.030479   2.821146   9.888802   9.431305
    19  S    9.193452   9.999723   4.564358  11.889064  11.461514
    20  S    7.612272   7.536232   4.053523   8.897710   9.082205
    21  Mo   4.978213   3.168068   8.208618   2.223487   4.917729
    22  S    6.625211   5.046705  10.180798   3.586841   6.568011
    23  S    6.034046   4.291706   7.646581   3.691315   6.067739
    24  Mo   4.142686   5.391959   3.976821   7.786315   5.215100
    25  S    5.622577   7.422112   4.460936   9.949757   7.499371
    26  S    3.750387   3.765364   4.219084   5.801661   3.511295
    27  Mo   2.350430   2.899278   5.599237   5.119297   2.400034
    28  S    3.189102   4.995889   5.690353   7.385859   4.773476
    29  S    4.763331   4.932372   7.610305   6.418680   3.158222
    30  Mo   4.948769   5.981772   6.780253   8.004254   4.847526
[...]
 33,-0.00008136,-0.00635101,0.00006913,0.00877295,0.01618549,-0.0266649
 8,-0.01704008,0.00177824,0.00173667,-0.00149254,-0.00015239,-0.0002170
 9,-0.00047985,0.00135900,0.00028095,-0.00020463,-0.00019642,-0.0002771
 5,0.00102008,0.00051925,0.00009888,-0.00255066,-0.00027463,-0.00001319
 ,0.00060103,0.00071346,-0.00147462,0.00104724,-0.02093471,0.02401820,0
 .00212682,-0.00014162,-0.00053041,-0.00086390,0.01623832,-0.02629468,0
 .00472409,-0.03164357,0.18143752,0.00045385,-0.00037527,0.00113902,-0.
 00011342,0.00040612,-0.00066494,0.00048265,-0.00036154,0.00009675,-0.0
 0023248,-0.00010677,0.00011194,0.00003143,-0.00001022,0.00001226,-0.00
 181738,-0.00241430,-0.00013036,-0.00116826,-0.00301878,0.00012208,-0.0
 0102054,-0.00056491,-0.00398542,-0.00045083,0.00129573,0.00099733,-0.0
 0156412,0.00070221,-0.00232529,0.00041787,-0.00008189,0.00015969,-0.00
 000256,-0.00099039,-0.00006003,0.01149194,0.02435533,-0.00317168,0.000
 02827,0.00006888,-0.00002047,-0.00017196,0.00002709,-0.00010257,0.0021
 7023,0.00089936,-0.00273987,-0.01356817,-0.03491409,-0.16846169,0.0006
 1533,-0.00135144,0.00095554,-0.00009295,0.00012086,-0.00026214,0.00018
 620,0.00024405,-0.00023183,-0.00026736,0.00021282,-0.00023691,0.000093
 52,-0.00017349,0.00008142,-0.00002896,0.00008322,-0.00001353,-0.024380
 70,0.00959697,0.00489379,0.02888599,-0.01250761,-0.02501311,0.00095973
 ,0.00066943,-0.00226547,0.00148695,-0.00086225,-0.00021675,0.00344708,
 -0.00239071,-0.00054105,-0.00016568,-0.00022617,-0.00012309,0.00047154
 ,-0.00102682,0.00024943,0.00004067,0.00018309,-0.00033909,-0.00108225,
 0.00065574,-0.00173373,0.00682248,-0.00541723,-0.00404439,0.00031261,0
 .00075405,0.00069461,0.00085658,0.01239582,-0.00954841,0.04155944,0.00
 847546,0.28288981,0.00014801,0.00048977,-0.00048320,-0.00005382,0.0000
 2326,-0.00012569,-0.00048748,0.00007496,-0.00057366,0.00034007,0.00034
 990,0.00008090,-0.00001107,-0.00009804,-0.00008730,0.00052535,-0.00006
 051,0.00216729,0.00024548,0.00005978,0.00303435,0.00166036,0.00087794,
 0.00330261,-0.00105848,-0.00128435,0.00052626,-0.00652824,0.00206346,-
 0.00637069,0.00020516,0.00006344,-0.00014320,-0.00032577,-0.00008703,0
 .00036338,-0.00866494,-0.00447503,-0.00776382,-0.00000924,-0.00003427,
 0.00002719,-0.00005343,-0.00004594,-0.00001022,-0.00105400,0.00158707,
 0.00410541,-0.00003492,-0.00010544,-0.00238378,0.00046668,0.00116062,0
 .00047174,-0.00022423,-0.00037383,-0.00068192,0.00024022,0.00005337,-0
 .00031640,0.00010528,0.00007280,-0.00011910,0.00001394,0.00001056,-0.0
 0001274,-0.00009579,0.00007552,-0.00001500,0.00109134,0.00063112,0.000
 32547,-0.00868937,-0.00683039,0.00210661,-0.00039499,-0.00000355,-0.00
 024327,0.00042678,0.00003359,-0.00043050,-0.00013783,0.00010389,0.0000
 8127,0.00000266,-0.00001759,0.00015885,-0.00012676,-0.00013464,-0.0001
 5218,0.00004167,0.00003843,-0.00009284,0.00000995,0.00034572,-0.000130
 25,-0.00174476,-0.00204083,0.00062746,0.00006380,0.00012798,-0.0003941
 7,-0.00269936,-0.00237040,0.00225350,-0.02010420,-0.03783938,-0.001342
 85,0.06315924,-0.00095809,0.00059112,-0.00077159,-0.00004040,-0.000507
 83,0.00070578,-0.00073698,0.00040107,-0.00012333,0.00043938,0.00034634
 ,-0.00052217,-0.00001682,0.00006778,-0.00004009,0.00118491,-0.00005628
 ,0.00036368,0.00102688,-0.00044839,0.00651538,0.00251421,0.00219155,0.
 00420600,0.00011986,-0.00013068,-0.00160815,0.00311169,-0.00089515,0.0
 0349349,0.00008827,0.00019682,-0.00006807,-0.00003778,0.00010428,0.000
 15509,-0.00674396,-0.01409184,-0.02738807,-0.00002165,-0.00011463,0.00
 003672,0.00005067,0.00009661,0.00006213,0.00017897,-0.00077952,-0.0005
 7327,-0.00206684,-0.00186106,-0.00439445,-0.00136469,0.00054493,0.0002
 1472,0.00018193,-0.00003609,0.00017948,-0.00016476,-0.00007942,0.00061
 371,0.00018607,-0.00007355,0.00018482,-0.00000790,0.00004979,-0.000014
 89,0.00007596,-0.00004217,-0.00000926,0.00071013,0.00046280,0.00028179
 ,-0.00312191,0.00121024,0.00095598,-0.00018776,-0.00003820,-0.00002860
 ,-0.00011997,-0.00030343,-0.00037296,-0.00007362,-0.00005307,0.0000151
 1,-0.00001495,0.00002706,-0.00004679,0.00003399,-0.00012555,0.00017339
 ,-0.00002430,0.00004223,-0.00014793,-0.00010618,0.00008722,-0.00009863
 ,0.00178039,-0.00457376,0.00181142,-0.00027571,0.00008525,0.00043070,-
 0.00859801,-0.00237676,0.00230174,-0.01250444,-0.07653825,-0.01053811,
 0.01755100,0.13568565,-0.00069521,0.00028158,-0.00088762,-0.00001659,0
 .00023253,-0.00035106,-0.00048093,0.00016369,0.00044958,0.00043775,-0.
 00012883,0.00009228,0.00009917,0.00002244,-0.00003573,-0.00033767,-0.0
 0308589,-0.00396103,0.00093182,0.00186092,-0.00385980,-0.00153019,0.00
 378002,-0.00877144,-0.00122420,-0.00079020,0.00112540,-0.00789355,0.00
 254152,-0.00488588,0.00022768,0.00005032,-0.00029191,-0.00054388,-0.00
 052234,0.00058943,0.00298141,-0.01278708,-0.04864952,0.00002185,-0.000
 03814,0.00002661,-0.00018931,-0.00007758,-0.00003410,0.00572565,-0.002
 90740,-0.00735238,-0.00293143,-0.00461866,0.00076651,-0.00144089,-0.00
 364820,0.00105381,0.00042614,0.00043082,0.00039942,-0.00028693,0.00063
 374,-0.00079426,0.00021945,-0.00010419,-0.00007348,-0.00001413,0.00011
 237,-0.00006636,-0.00011157,0.00015140,-0.00006017,0.00256085,0.000408
 34,0.00058527,0.00479729,0.00301972,0.00027656,-0.00058522,-0.00004574
 ,-0.00074500,0.00078527,0.00033896,-0.00090572,0.00011880,0.00012056,0
 .00003107,0.00001299,-0.00019933,0.00048819,-0.00037282,-0.00019706,-0
 .00065394,-0.00001392,0.00002256,-0.00001628,-0.00009033,0.00018316,-0
 .00004606,0.00001853,-0.00331410,0.00078769,-0.00006901,0.00030967,-0.
 00018945,-0.00382042,-0.00179478,0.00202778,-0.00224220,-0.01581111,-0
 .02563261,0.00458267,0.01851848,0.10629957,-0.00013028,-0.00002956,0.0
 0028741,-0.00001797,-0.00008145,0.00032170,0.00013775,0.00001028,-0.00
 001512,-0.00018875,-0.00001312,-0.00024484,0.00000547,0.00005437,0.000
 02010,-0.00019362,0.00020731,0.00082053,0.00004778,0.00034967,0.000056
 65,-0.00047326,-0.00073861,0.00050738,0.00111510,0.00072046,-0.0011921
 8,0.00221900,-0.00057830,0.00224876,-0.00013109,-0.00006532,0.00022219
 ,0.00038354,0.00021293,-0.00050353,0.00201136,-0.00064693,-0.01788524,
 -0.00001139,0.00000993,-0.00003073,0.00010081,0.00006478,-0.00001550,-
 0.00238172,0.00044289,0.00322928,0.00043448,0.00009097,0.00031597,0.00
 030843,0.00211396,-0.00126260,-0.00010149,-0.00010979,0.00012184,0.000
 25676,-0.00043539,0.00069359,-0.00013524,-0.00006508,0.00014574,-0.000
 01459,-0.00000163,0.00000951,0.00009642,-0.00009280,0.00001913,-0.0013
 3059,0.00020187,-0.00142711,0.00025086,0.00079328,-0.00064557,0.000469
 86,-0.00017129,0.00051594,-0.00054844,-0.00010349,0.00071323,-0.000075
 18,-0.00019665,0.00009030,-0.00001833,0.00011143,-0.00028077,0.0002389
 4,0.00011532,0.00044120,-0.00002563,-0.00001817,0.00001497,0.00002559,
 -0.00010034,0.00000019,0.00347544,0.00318935,-0.00146805,-0.00022371,-
 0.00032918,0.00064411,0.00424583,0.00090161,-0.00048635,-0.03638961,-0
 .01386101,-0.00472849,0.01092706,-0.00240243,0.01769299,0.01133942,0.0
 0011072,0.00005586,-0.00030425,-0.00001088,0.00008370,-0.00024527,-0.0
 0014949,0.00000874,-0.00006039,0.00017824,0.00004575,0.00021043,-0.000
 00375,-0.00005575,-0.00002039,0.00016793,-0.00022692,-0.00036543,0.000
 03486,-0.00028033,0.00011756,0.00031304,0.00045712,-0.00030061,-0.0008
 1999,-0.00071106,0.00091093,-0.00191755,0.00059719,-0.00197531,0.00011
 315,0.00006073,-0.00018069,-0.00034204,-0.00019559,0.00044481,-0.00087
 308,0.00088403,0.01412194,0.00000741,-0.00001133,0.00001796,-0.0000993
 0,-0.00006621,-0.00004134,0.00216072,-0.00057970,-0.00266878,-0.000148
 82,0.00056969,0.00020210,-0.00011062,-0.00148233,0.00132817,-0.0000256
 7,0.00008702,-0.00024942,-0.00016433,0.00037700,-0.00055401,0.00012918
 ,0.00002097,-0.00009259,-0.00000122,0.00003243,-0.00002451,-0.00007473
 ,0.00007739,-0.00002590,0.00118997,0.00019759,0.00095292,0.00078768,-0
 .00081497,0.00014318,-0.00037011,0.00015356,-0.00037178,0.00048035,0.0
 0013646,-0.00049464,0.00005936,0.00010328,-0.00006855,0.00001073,-0.00
 008667,0.00021780,-0.00018851,-0.00011770,-0.00028179,-0.00000046,0.00
 002674,0.00000733,0.00000024,0.00007423,-0.00001884,-0.00167523,-0.002
 57183,0.00036851,0.00020606,0.00028719,-0.00039998,-0.00269024,-0.0014
 5818,0.00098809,0.01431838,-0.00175283,0.00422117,-0.02246065,0.001644
 00,-0.01707499,0.00710763,0.09878253,0.00000995,0.00002880,0.00009121,
 0.,-0.00001233,0.00007758,0.00003987,0.00000545,-0.00010656,-0.0000679
 1,0.00000471,-0.00007098,-0.00000472,0.00001342,0.00000211,-0.00004081
 ,-0.00006076,0.00046647,-0.00017469,0.00007229,0.00013268,-0.00006991,
 -0.00019357,0.00016142,0.00034299,0.00011643,-0.00027532,0.00055065,-0
 .00011304,0.00054663,-0.00005767,-0.00002614,0.00005658,0.00014557,0.0
 0012276,-0.00013016,-0.00195511,0.00049467,-0.00685263,-0.00000604,0.0
 0000511,-0.00000967,0.00004083,-0.00000106,0.00000258,-0.00064194,0.00
 001293,0.00015007,0.00012668,-0.00027927,0.00039527,0.00005060,0.00046
 211,-0.00091164,0.00000593,-0.00006831,0.00019203,0.00008024,-0.000100
 04,0.00013952,-0.00005285,-0.00000972,0.00002793,-0.00000002,-0.000010
 20,0.00000862,0.00002482,-0.00002786,0.00000979,-0.00069502,0.00001707
 ,-0.00030052,-0.00043393,0.00107448,0.00009397,0.00017101,-0.00005908,
 0.00017673,-0.00019845,0.00000804,0.00021493,0.00001278,-0.00004001,-0
 .00002670,-0.00000703,0.00004396,-0.00008830,0.00012357,0.00002098,0.0
 0012389,-0.00000015,-0.00000757,0.00000013,-0.00000137,-0.00003637,0.0
 0001404,0.00139831,0.00138385,-0.00036869,-0.00006561,-0.00012410,0.00
 012062,0.00173759,0.00020703,0.00004794,-0.01264155,-0.00347904,-0.000
 59735,0.01208989,-0.00400285,-0.00331449,-0.00408376,-0.00886095,0.024
 29902,-0.00003965,0.00011625,-0.00010416,0.00014271,0.00002830,-0.0001
 2559,-0.00006065,-0.00002375,0.00000964,0.00010607,-0.00003944,0.00013
 781,-0.00002902,-0.00002174,0.00000393,0.00012820,-0.00010120,-0.00050
 480,-0.00010237,-0.00000011,-0.00015649,0.00016723,0.00033506,-0.00014
 072,-0.00064818,-0.00083780,0.00060662,-0.00169283,0.00073984,-0.00174
 838,-0.00003792,-0.00007525,-0.00008145,-0.00007372,0.00029569,-0.0000
 4540,-0.00234691,-0.00110752,0.01356325,-0.00000837,0.00002120,-0.0000
 0779,0.00002979,-0.00000025,0.00014260,0.00183505,-0.00100646,-0.00079
 235,-0.00140537,-0.00404021,-0.01057448,0.00019265,-0.00102149,0.00089
 074,-0.00002289,0.00028973,-0.00016102,-0.00004213,0.00024468,-0.00039
 185,0.00020350,-0.00015849,0.00000929,-0.00007033,0.00014821,-0.000087
 18,-0.00011721,0.00006341,-0.00007182,-0.00092903,-0.00087784,-0.00183
 972,-0.00513767,0.00196690,0.00454654,0.00030958,-0.00011255,0.0000052
 5,0.00008608,-0.00017823,0.00021065,-0.00064770,0.00038994,0.00038632,
 -0.00001230,-0.00009441,0.00019462,0.00012863,0.00043848,-0.00062467,-
 0.00018448,-0.00005475,0.00024245,0.00018454,0.00042083,0.00022453,-0.
 00386326,-0.00518469,0.00158079,0.00041943,0.00082639,-0.00126249,-0.0
 1630833,-0.00758181,0.00048682,-0.09827020,0.06922055,-0.04326965,-0.0
 2153442,0.01034961,-0.01585183,0.02614787,-0.04279879,0.01232978,0.123
 95485,0.00025661,-0.00008993,0.00000231,-0.00004567,0.00002799,-0.0001
 2583,-0.00003610,0.00002905,0.00002295,-0.00007136,0.00000824,0.000000
 59,0.00000560,-0.00001999,-0.00002199,-0.00021652,-0.00009079,-0.00028
 314,0.00002257,0.00013093,-0.00003228,0.00013652,0.00036090,-0.0000864
 9,-0.00033898,0.00041938,0.00029912,-0.00037936,0.00001432,-0.00032831
 ,0.00013262,0.00005347,-0.00001439,-0.00026627,-0.00037870,0.00024195,
 0.00082558,-0.00344838,0.00108983,0.00002097,-0.00001191,0.00003464,0.
 00000804,0.00007701,-0.00007997,-0.00103651,0.00008090,0.00076488,-0.0
 0033864,0.00297316,0.00364692,0.00082166,0.00046004,0.00127393,-0.0006
 4494,-0.00019131,-0.00057338,-0.00010616,-0.00000896,-0.00033931,-0.00
 009831,0.00019240,-0.00012912,0.00007022,-0.00013422,0.00007212,0.0000
 2086,0.00001042,0.00004577,0.00275687,0.00073563,0.00072686,0.00203570
 ,0.00131077,0.00077066,-0.00044459,-0.00005021,-0.00014114,0.00011209,
 0.00025515,-0.00048200,0.00007685,-0.00028923,-0.00025084,0.00005153,0
 .00000513,0.00000669,-0.00033202,-0.00014500,0.00025103,0.00010315,0.0
 0005310,-0.00015387,-0.00006884,-0.00007888,-0.00005427,0.00075380,-0.
 00217260,-0.00040935,0.00043924,0.00016051,-0.00030833,-0.00685529,-0.
 00166340,-0.00014370,0.04613925,-0.04737733,0.01963115,-0.00384899,-0.
 02014963,0.00250699,0.02166257,-0.03834523,0.01122079,-0.05777722,0.09
 822753,-0.00000859,-0.00004551,-0.00000343,0.00012415,-0.00000440,-0.0
 0003612,0.00007173,-0.00001984,-0.00009150,-0.00005380,0.00000321,0.00
 009096,-0.00003217,-0.00000284,0.00000225,-0.00029972,0.00021310,-0.00
 016284,-0.00011594,-0.00037799,-0.00015203,0.00014375,-0.00014684,-0.0
 0013423,-0.00004065,-0.00015601,0.00004710,-0.00036977,0.00019143,-0.0
 0072265,-0.00005636,-0.00003365,0.00004746,0.00014371,0.00028159,-0.00
 023441,-0.00170576,0.00220858,0.00386193,-0.00000251,0.00001807,-0.000
 01736,0.00003550,0.00005196,0.00009164,0.00044040,-0.00008303,-0.00012
 350,-0.00410178,0.00262811,-0.00035649,0.00000174,-0.00005111,0.000043
 16,0.00017074,0.00006007,0.00010649,-0.00002192,-0.00003657,-0.0000572
 7,0.00005530,-0.00009020,0.00007338,-0.00004607,0.00008428,-0.00004953
 ,-0.00001013,-0.00000793,-0.00001891,0.00045269,-0.00064676,-0.0011284
 7,-0.00899565,-0.00041693,0.00503906,0.00012204,0.00002750,0.00018443,
 -0.00031100,-0.00009252,0.00023470,-0.00056154,0.00005888,0.00016905,0
 .00004583,0.00004625,-0.00004427,0.00006011,0.00048630,-0.00007348,-0.
 00010273,-0.00005297,0.00011512,0.00025865,0.00011349,0.00012759,-0.00
 185253,0.00162769,0.00188668,-0.00022921,-0.00006323,-0.00037076,-0.00
 122757,-0.00111748,0.00048889,-0.02869346,0.02183604,-0.04175397,-0.00
 544449,0.00622818,-0.00027796,0.00365353,-0.00479440,0.00168379,0.0452
 7328,-0.03689768,0.04193437,0.00000794,-0.00007151,0.00006047,-0.00002
 707,-0.00000319,-0.00000929,0.00003189,-0.00000703,-0.00000358,-0.0000
 5485,-0.00001364,-0.00003343,0.00000410,0.00000983,0.00000069,-0.00001
 341,0.00003218,0.00023454,-0.00002371,0.00016543,0.00006870,-0.0000099
 1,-0.00029165,0.00014135,0.00007972,0.00040407,-0.00010685,0.00034308,
 -0.00010080,-0.00001269,0.00000641,-0.00002585,0.00005543,0.00008656,-
 0.00003734,-0.00010307,-0.00014590,0.00022374,-0.00183742,0.00000208,0
 .00000995,-0.00001168,0.00002111,0.00000749,-0.00001380,-0.00017226,-0
 .00011158,-0.00018232,0.00039071,0.00011005,0.00026822,-0.00027588,0.0
 0021982,-0.00048354,0.00019175,-0.00000433,0.00035388,0.00005987,-0.00
 006888,0.00015549,-0.00004005,-0.00002905,0.00002715,-0.00000656,0.000
 01216,-0.00000568,0.00002008,-0.00000826,0.00000699,-0.00020842,0.0001
 1807,-0.00023539,-0.00013950,-0.00014944,-0.00006937,0.00010928,-0.000
 14276,0.00011040,-0.00012710,0.00008714,0.00014126,0.00000355,-0.00006
 119,-0.00000552,0.00000386,0.00001903,-0.00007059,0.00005939,0.0000355
 2,0.00007964,-0.00001173,-0.00001671,0.00001714,0.00000222,-0.00004715
 ,0.00000385,0.00068779,0.00126714,-0.00049594,-0.00008445,-0.00013031,
 0.00018018,0.00123460,0.00057075,-0.00032092,-0.02136576,0.00018806,-0
 .00534575,-0.00563994,0.00000525,-0.00089804,-0.02184690,0.04754979,-0
 .00808251,-0.00045125,-0.00354654,0.00323022,0.04729865,-0.00026898,0.
 00002812,0.00023578,-0.00002872,-0.00013013,0.00041652,0.00007166,0.00
 005478,-0.00004375,-0.00015298,0.00003244,-0.00030508,0.00000493,0.000
 08200,0.00002120,0.00010636,0.00008213,0.00090161,0.00018906,0.0002490
 4,0.00023703,-0.00045979,-0.00071901,0.00061128,0.00122933,0.00077038,
 -0.00149293,0.00294376,-0.00099520,0.00302565,-0.00015103,-0.00003790,
 0.00021087,0.00045475,0.00023705,-0.00047807,0.00289264,-0.00105825,-0
 .02113420,-0.00001826,-0.00000602,-0.00003374,0.00008226,0.00004864,-0
 .00003907,-0.00230550,0.00094629,0.00092083,0.00055244,0.00043631,0.00
 128628,-0.00025333,0.00155923,-0.00163285,0.00010661,-0.00021916,0.000
 26799,0.00019773,-0.00036429,0.00073205,-0.00011906,-0.00009051,0.0001
 9682,-0.00001894,0.00000896,0.00000804,0.00011940,-0.00010851,0.000016
 66,-0.00167592,0.00043291,-0.00127456,0.00073647,0.00121214,-0.0012545
 3,0.00048955,-0.00013710,0.00050853,-0.00056556,-0.00008755,0.00071893
 ,0.00003916,-0.00025654,0.00005501,-0.00003453,0.00011636,-0.00030036,
 0.00027364,0.00006291,0.00048748,-0.00003347,-0.00000909,-0.00000191,0
 .00000226,-0.00013577,-0.00000063,0.00410983,0.00406226,-0.00175737,-0
 .00033185,-0.00036108,0.00093136,0.00588541,0.00135212,-0.00057106,-0.
 04309654,-0.00552070,-0.00766654,0.05631667,-0.02055949,0.03145582,-0.
 01832009,-0.05600656,0.00219742,0.03719892,0.00905965,0.00897319,-0.04
 616828,0.06596914,0.00002357,0.00003275,0.00000533,0.00000581,0.000011
 40,-0.00000132,-0.00000727,0.00000138,-0.00000656,0.00002292,-0.000013
 06,0.00000842,-0.00000141,-0.00001023,0.00000175,-0.00004703,-0.000070
 12,-0.00000651,-0.00006501,0.00003665,0.00001408,0.00000763,0.00010755
 ,-0.00015285,-0.00011368,-0.00023429,0.00013748,-0.00048695,0.00016822
 ,-0.00033154,-0.00002654,-0.00000182,-0.00004253,-0.00002882,0.0000655
 5,0.00003290,-0.00064303,-0.00034717,0.00263358,-0.00000515,0.00000404
 ,0.00000215,0.00000026,-0.00002348,0.00001718,0.00016440,0.00001121,0.
 00050151,-0.00003503,-0.00016612,0.00013548,0.00019647,0.00009863,0.00
 001472,-0.00006348,0.00005022,-0.00007833,0.00002350,0.00000394,0.0000
 0209,0.00003082,-0.00000299,-0.00003302,-0.00000106,0.00000135,-0.0000
 0204,-0.00003345,0.00001865,-0.00001177,0.00008790,-0.00003649,0.00023
 003,0.00009259,0.00090063,-0.00003053,-0.00005852,0.00003485,-0.000078
 65,0.00006992,-0.00002419,-0.00006827,-0.00000474,0.00006704,-0.000028
 66,-0.00000710,-0.00001831,0.00005512,-0.00000395,-0.00001139,-0.00008
 547,0.00000463,0.00000491,0.00000621,-0.00001099,0.00001621,0.00004711
 ,-0.00038637,-0.00033892,0.00008010,0.00007802,0.00007947,-0.00014250,
 -0.00017249,0.00006118,0.00058562,-0.00129113,-0.00081711,0.00181207,-
 0.00898762,0.00330143,-0.00314295,0.00148362,0.01522190,-0.01618253,-0
 .00300306,-0.00175383,-0.01041883,0.01319180,-0.01642966,0.02452191\\-
 0.00000023,-0.00000006,0.00000024,-0.00000041,-0.00000154,0.00000111,0
 .00000152,-0.00000243,-0.00000134,0.00000021,0.00000036,-0.00000128,-0
 .00000087,-0.00000064,-0.00000097,0.00000156,-0.00000451,0.00000407,-0
 .00000137,-0.00000061,-0.00000160,0.00000295,-0.00000375,-0.00000078,0
 .00000489,-0.00000167,-0.00000057,-0.00000092,0.00000051,0.00000539,0.
 00000076,-0.00000019,-0.00000061,0.00000092,0.00000434,-0.00000028,-0.
 00000700,0.00002156,0.00000385,0.00000178,-0.00000295,-0.00000172,-0.0
 0000136,-0.00000094,0.00000066,0.00000371,0.00000077,-0.00000195,-0.00
 000335,-0.00001082,-0.00000715,0.00000286,-0.00000432,0.00000047,-0.00
 000140,0.00000103,0.00000101,0.00000007,-0.00000169,0.00000146,0.00000
 043,-0.00000058,-0.00000049,0.00000134,-0.00000062,-0.00000120,0.00000
 170,-0.00000101,-0.00000063,0.00000004,0.00000493,-0.00000086,0.000004
 56,0.00000011,-0.00000133,0.00000039,-0.00000168,-0.00000023,0.0000025
 5,0.00000327,-0.00000041,0.00000076,0.00000118,-0.00000004,-0.00000213
 ,0.00000149,0.00000011,-0.00000271,-0.00000018,0.00000054,0.00000075,0
 .00000311,0.00000071,-0.00000181,0.00000063,0.00000342,-0.00001896,0.0
 0001283,-0.00000822,-0.00000250,-0.00000009,0.00000112,0.00001438,-0.0
 0002923,0.00000797,0.00001245,0.00004248,0.00000355,-0.00000823,-0.000
 02431,-0.00000168,-0.00000508,0.00002150,-0.00000886,0.00000643,-0.000
 00461,0.00000941,-0.00000872,-0.00002167,-0.00000290\\\@
 The archive entry for this job was punched.


 A MAN SHOULD NEVER BE ASHAMED TO OWN HE HAS BEEN IN THE WRONG
 WHICH IS BUT SAYING IN OTHER WORDS,
 THAT HE IS WISER TODAY THAN HE WAS YESTERDAY.

                          -- JONATHAN SWIFT
 Job cpu time:       1 days  1 hours 56 minutes 16.8 seconds.
 Elapsed time:       0 days  0 hours 32 minutes 33.2 seconds.
 File lengths (MBytes):  RWF=   3463 Int=      0 D2E=      0 Chk=     53 Scr=      2
 Normal termination of Gaussian 16 at Tue Dec 20 15:49:33 2022.
