 Entering Gaussian System, Link 0=g16
 Initial command:
 /home/chesagar/softwares/G16_AVX2//g16/l1.exe "/home/chesagar/scratch/Gau-146097.inp" -scrdir="/home/chesagar/scratch/"
 Entering Link 1 = /home/chesagar/softwares/G16_AVX2//g16/l1.exe PID=    146098.
  
 Copyright (c) 1988-2019, Gaussian, Inc.  All Rights Reserved.
  
 This is part of the Gaussian(R) 16 program.  It is based on
 the Gaussian(R) 09 system (copyright 2009, Gaussian, Inc.),
 the Gaussian(R) 03 system (copyright 2003, Gaussian, Inc.),
 the Gaussian(R) 98 system (copyright 1998, Gaussian, Inc.),
 the Gaussian(R) 94 system (copyright 1995, Gaussian, Inc.),
 the Gaussian 92(TM) system (copyright 1992, Gaussian, Inc.),
 the Gaussian 90(TM) system (copyright 1990, Gaussian, Inc.),
 the Gaussian 88(TM) system (copyright 1988, Gaussian, Inc.),
 the Gaussian 86(TM) system (copyright 1986, Carnegie Mellon
 University), and the Gaussian 82(TM) system (copyright 1983,
 Carnegie Mellon University). Gaussian is a federally registered
 trademark of Gaussian, Inc.
  
 This software contains proprietary and confidential information,
 including trade secrets, belonging to Gaussian, Inc.
  
 This software is provided under written license and may be
 used, copied, transmitted, or stored only in accord with that
 written license.
  
 The following legend is applicable only to US Government
 contracts under FAR:
  
                    RESTRICTED RIGHTS LEGEND
  
 Use, reproduction and disclosure by the US Government is
 subject to restrictions as set forth in subparagraphs (a)
 and (c) of the Commercial Computer Software - Restricted
 Rights clause in FAR 52.227-19.
  
 Gaussian, Inc.
 340 Quinnipiac St., Bldg. 40, Wallingford CT 06492
  
  
 ---------------------------------------------------------------
 Warning -- This program may not be used in any manner that
 competes with the business of Gaussian, Inc. or will provide
 assistance to any competitor of Gaussian, Inc.  The licensee
 of this program is prohibited from giving any competitor of
 Gaussian, Inc. access to this program.  By using this program,
 the user acknowledges that Gaussian, Inc. is engaged in the
 business of creating and licensing software in the field of
 computational chemistry and represents and warrants to the
 licensee that it is not a competitor of Gaussian, Inc. and that
 it will not use this program in any manner prohibited above.
 ---------------------------------------------------------------
  

 Cite this work as:
 Gaussian 16, Revision C.01,
 M. J. Frisch, G. W. Trucks, H. B. Schlegel, G. E. Scuseria, 
 M. A. Robb, J. R. Cheeseman, G. Scalmani, V. Barone, 
 G. A. Petersson, H. Nakatsuji, X. Li, M. Caricato, A. V. Marenich, 
 J. Bloino, B. G. Janesko, R. Gomperts, B. Mennucci, H. P. Hratchian, 
 J. V. Ortiz, A. F. Izmaylov, J. L. Sonnenberg, D. Williams-Young, 
 F. Ding, F. Lipparini, F. Egidi, J. Goings, B. Peng, A. Petrone, 
 T. Henderson, D. Ranasinghe, V. G. Zakrzewski, J. Gao, N. Rega, 
 G. Zheng, W. Liang, M. Hada, M. Ehara, K. Toyota, R. Fukuda, 
 J. Hasegawa, M. Ishida, T. Nakajima, Y. Honda, O. Kitao, H. Nakai, 
 T. Vreven, K. Throssell, J. A. Montgomery, Jr., J. E. Peralta, 
 F. Ogliaro, M. J. Bearpark, J. J. Heyd, E. N. Brothers, K. N. Kudin, 
 V. N. Staroverov, T. A. Keith, R. Kobayashi, J. Normand, 
 K. Raghavachari, A. P. Rendell, J. C. Burant, S. S. Iyengar, 
 J. Tomasi, M. Cossi, J. M. Millam, M. Klene, C. Adamo, R. Cammi, 
 J. W. Ochterski, R. L. Martin, K. Morokuma, O. Farkas, 
 J. B. Foresman, and D. J. Fox, Gaussian, Inc., Wallingford CT, 2019.
 
 ******************************************
 Gaussian 16:  ES64L-G16RevC.01  3-Jul-2019
                19-Dec-2022 
 ******************************************
 %nprocshared=48
 Will use up to   48 processors via shared memory.
 %mem=100GB
 ---------------------------------------
 # opt freq b3lyp/gen nosymm pseudo=read
 ---------------------------------------
 1/18=20,19=15,26=3,38=1/1,3;
 2/9=110,12=2,15=1,17=6,18=5,40=1/2;
 3/5=7,11=2,16=1,17=8,25=1,30=1,71=1,74=-5/1,2,3;
 4//1;
 5/5=2,38=5/2;
 6/7=2,8=2,9=2,10=2,28=1/1;
 7/30=1/1,2,3,16;
 1/18=20,19=15,26=3/3(2);
 2/9=110,15=1/2;
 99//99;
 2/9=110,15=1/2;
 3/5=7,6=1,11=2,16=1,17=8,25=1,30=1,71=1,74=-5,82=7/1,2,3;
 4/5=5,16=3,69=1/1;
 5/5=2,38=5/2;
 7/30=1/1,2,3,16;
 1/18=20,19=15,26=3/3(-5);
 2/9=110,15=1/2;
 6/7=2,8=2,9=2,10=2,19=2,28=1/1;
 99/9=1/99;
 -------------------
 Title Card Required
 -------------------
 Symbolic Z-matrix:
 Charge =  0 Multiplicity = 1
 42                    0.1877    1.4948    12.12448 
 16                    1.06364   3.66184   12.42749 
 16                   -2.02403   1.84988   12.72848 
 16                   -0.14557   0.97197   9.80696 
 16                    2.22246  -0.00699   11.73824 
 42                   -1.99618   2.36853   10.40108 
 16                   -2.59806   1.8761    8.06058 
 16                   -1.29899   4.51438   10.37387 
 42                    0.8946    3.17341   10.0462 
 16                    0.3778    3.28527   7.55206 
 16                    2.97855   2.09621   9.3158 
 42                    2.92828   2.42221   11.67247 
 42                   -1.93004   4.24085   8.0171 
 16                    3.81687   2.14441   14.06087 
 16                    4.41528   4.27121   11.66082 
 16                   -3.98012   5.29822   8.33856 
 16                   -0.88378   6.65155   7.84627 
 42                   -4.46106   3.07627   8.73584 
 16                   -6.19595   2.45728   7.68455 
 16                   -4.46306   2.77153   10.94113 
 42                    2.43203   0.40574   13.99792 
 16                    3.18612  -1.23814   15.10403 
 16                    0.40447   1.01617   14.65382 
 42                    1.13083   5.5368    7.1481 
 16                    0.88635   4.92962   4.83453 
 16                    1.53214   5.58455   9.73596 
 42                    3.47878   4.45207   9.5311 
 16                    3.54489   4.30157   7.02711 
 16                    4.89265   6.52536   9.46729 
 42                    4.29991   6.42458   7.34301 
 16                    5.97621   6.87528   6.14405 
 16                    2.41322   7.80764   7.03756 
 42                    1.65913   7.12029   4.84645 
 16                    3.17678   7.12029   3.35253 
 16                   -0.24484   8.23239   4.33827 
 42                   -1.00532   6.31162   5.56949 
 16                   -2.28454   4.23013   5.4123 
 16                   -3.20367   7.33445   5.50374 
 

 GradGradGradGradGradGradGradGradGradGradGradGradGradGradGradGradGradGrad
 Berny optimization.
 Initialization pass.
                           ----------------------------
                           !    Initial Parameters    !
                           ! (Angstroms and Degrees)  !
 --------------------------                            --------------------------
 ! Name  Definition              Value          Derivative Info.                !
 --------------------------------------------------------------------------------
 ! R1    R(1,2)                  2.3569         estimate D2E/DX2                !
 ! R2    R(1,3)                  2.3201         estimate D2E/DX2                !
 ! R3    R(1,4)                  2.399          estimate D2E/DX2                !
 ! R4    R(1,5)                  2.5583         estimate D2E/DX2                !
 ! R5    R(1,6)                  2.916          estimate D2E/DX2                !
 ! R6    R(1,9)                  2.7634         estimate D2E/DX2                !
 ! R7    R(1,12)                 2.9283         estimate D2E/DX2                !
 ! R8    R(1,21)                 3.1198         estimate D2E/DX2                !
 ! R9    R(1,23)                 2.5833         estimate D2E/DX2                !
 ! R10   R(2,9)                  2.4367         estimate D2E/DX2                !
 ! R11   R(2,12)                 2.363          estimate D2E/DX2                !
 ! R12   R(3,6)                  2.3847         estimate D2E/DX2                !
 ! R13   R(4,6)                  2.3934         estimate D2E/DX2                !
 ! R14   R(4,9)                  2.4465         estimate D2E/DX2                !
 ! R15   R(5,12)                 2.5305         estimate D2E/DX2                !
 ! R16   R(5,21)                 2.3066         estimate D2E/DX2                !
 ! R17   R(6,7)                  2.4663         estimate D2E/DX2                !
 ! R18   R(6,8)                  2.2564         estimate D2E/DX2                !
 ! R19   R(6,9)                  3.0216         estimate D2E/DX2                !
 ! R20   R(6,13)                 3.0321         estimate D2E/DX2                !
 ! R21   R(6,18)                 3.0577         estimate D2E/DX2                !
 ! R22   R(6,20)                 2.5573         estimate D2E/DX2                !
 ! R23   R(7,13)                 2.4577         estimate D2E/DX2                !
 ! R24   R(7,18)                 2.3167         estimate D2E/DX2                !
 ! R25   R(8,9)                  2.5918         estimate D2E/DX2                !
 ! R26   R(8,13)                 2.4551         estimate D2E/DX2                !
 ! R27   R(9,10)                 2.5496         estimate D2E/DX2                !
 ! R28   R(9,11)                 2.457          estimate D2E/DX2                !
 ! R29   R(9,12)                 2.7101         estimate D2E/DX2                !
 ! R30   R(9,26)                 2.5132         estimate D2E/DX2                !
 ! R31   R(9,27)                 2.9289         estimate D2E/DX2                !
 ! R32   R(10,13)                2.5408         estimate D2E/DX2                !
 ! R33   R(10,24)                2.4082         estimate D2E/DX2                !
 ! R34   R(11,12)                2.3796         estimate D2E/DX2                !
 ! R35   R(11,27)                2.418          estimate D2E/DX2                !
 ! R36   R(12,14)                2.5634         estimate D2E/DX2                !
 ! R37   R(12,15)                2.3728         estimate D2E/DX2                !
 ! R38   R(12,21)                3.1177         estimate D2E/DX2                !
 ! R39   R(12,27)                3.0015         estimate D2E/DX2                !
 ! R40   R(13,16)                2.329          estimate D2E/DX2                !
 ! R41   R(13,17)                2.6335         estimate D2E/DX2                !
 ! R42   R(13,18)                2.8773         estimate D2E/DX2                !
 ! R43   R(13,37)                2.6288         estimate D2E/DX2                !
 ! R44   R(14,21)                2.2237         estimate D2E/DX2                !
 ! R45   R(15,27)                2.3336         estimate D2E/DX2                !
 ! R46   R(16,18)                2.3079         estimate D2E/DX2                !
 ! R47   R(17,24)                2.406          estimate D2E/DX2                !
 ! R48   R(17,36)                2.3052         estimate D2E/DX2                !
 ! R49   R(18,19)                2.1209         estimate D2E/DX2                !
 ! R50   R(18,20)                2.2262         estimate D2E/DX2                !
 ! R51   R(21,22)                2.12           estimate D2E/DX2                !
 ! R52   R(21,23)                2.2167         estimate D2E/DX2                !
 ! R53   R(24,25)                2.4044         estimate D2E/DX2                !
 ! R54   R(24,26)                2.6192         estimate D2E/DX2                !
 ! R55   R(24,28)                2.7144         estimate D2E/DX2                !
 ! R56   R(24,32)                2.6103         estimate D2E/DX2                !
 ! R57   R(24,33)                2.8433         estimate D2E/DX2                !
 ! R58   R(24,36)                2.7669         estimate D2E/DX2                !
 ! R59   R(25,33)                2.323          estimate D2E/DX2                !
 ! R60   R(25,36)                2.4553         estimate D2E/DX2                !
 ! R61   R(26,27)                2.2614         estimate D2E/DX2                !
 ! R62   R(27,28)                2.5094         estimate D2E/DX2                !
 ! R63   R(27,29)                2.5103         estimate D2E/DX2                !
 ! R64   R(27,30)                3.0582         estimate D2E/DX2                !
 ! R65   R(28,30)                2.2753         estimate D2E/DX2                !
 ! R66   R(29,30)                2.2077         estimate D2E/DX2                !
 ! R67   R(30,31)                2.1096         estimate D2E/DX2                !
 ! R68   R(30,32)                2.3592         estimate D2E/DX2                !
 ! R69   R(32,33)                2.417          estimate D2E/DX2                !
 ! R70   R(33,34)                2.1296         estimate D2E/DX2                !
 ! R71   R(33,35)                2.2628         estimate D2E/DX2                !
 ! R72   R(33,36)                2.8768         estimate D2E/DX2                !
 ! R73   R(35,36)                2.4049         estimate D2E/DX2                !
 ! R74   R(36,37)                2.4482         estimate D2E/DX2                !
 ! R75   R(36,38)                2.4255         estimate D2E/DX2                !
 ! A1    A(2,1,3)              100.3757         estimate D2E/DX2                !
 ! A2    A(2,1,4)              112.0986         estimate D2E/DX2                !
 ! A3    A(2,1,5)              105.2809         estimate D2E/DX2                !
 ! A4    A(2,1,6)               94.5211         estimate D2E/DX2                !
 ! A5    A(2,1,21)              88.6476         estimate D2E/DX2                !
 ! A6    A(2,1,23)              90.7614         estimate D2E/DX2                !
 ! A7    A(3,1,4)               98.7672         estimate D2E/DX2                !
 ! A8    A(3,1,5)              152.5454         estimate D2E/DX2                !
 ! A9    A(3,1,9)              110.2846         estimate D2E/DX2                !
 ! A10   A(3,1,12)             152.1162         estimate D2E/DX2                !
 ! A11   A(3,1,21)             125.6544         estimate D2E/DX2                !
 ! A12   A(3,1,23)              81.5729         estimate D2E/DX2                !
 ! A13   A(4,1,5)               80.602          estimate D2E/DX2                !
 ! A14   A(4,1,12)              92.8613         estimate D2E/DX2                !
 ! A15   A(4,1,21)             127.1544         estimate D2E/DX2                !
 ! A16   A(4,1,23)             156.5073         estimate D2E/DX2                !
 ! A17   A(5,1,6)              133.0272         estimate D2E/DX2                !
 ! A18   A(5,1,9)               92.2684         estimate D2E/DX2                !
 ! A19   A(5,1,23)              88.4137         estimate D2E/DX2                !
 ! A20   A(6,1,12)             120.9838         estimate D2E/DX2                !
 ! A21   A(6,1,23)             134.189          estimate D2E/DX2                !
 ! A22   A(9,1,21)             118.6619         estimate D2E/DX2                !
 ! A23   A(9,1,23)             145.8343         estimate D2E/DX2                !
 ! A24   A(12,1,23)             97.5434         estimate D2E/DX2                !
 ! A25   A(1,6,7)              133.1428         estimate D2E/DX2                !
 ! A26   A(1,6,8)               93.4786         estimate D2E/DX2                !
 ! A27   A(1,6,13)             129.3007         estimate D2E/DX2                !
 ! A28   A(1,6,20)             130.1566         estimate D2E/DX2                !
 ! A29   A(3,6,4)               97.1462         estimate D2E/DX2                !
 ! A30   A(3,6,7)              151.6338         estimate D2E/DX2                !
 ! A31   A(3,6,8)              102.8393         estimate D2E/DX2                !
 ! A32   A(3,6,9)              100.5874         estimate D2E/DX2                !
 ! A33   A(3,6,13)             154.4146         estimate D2E/DX2                !
 ! A34   A(3,6,18)             124.9216         estimate D2E/DX2                !
 ! A35   A(3,6,20)              79.4493         estimate D2E/DX2                !
 ! A36   A(4,6,7)               80.5967         estimate D2E/DX2                !
 ! A37   A(4,6,8)              108.2411         estimate D2E/DX2                !
 ! A38   A(4,6,13)              98.5274         estimate D2E/DX2                !
 ! A39   A(4,6,18)             128.5491         estimate D2E/DX2                !
 ! A40   A(4,6,20)             152.9089         estimate D2E/DX2                !
 ! A41   A(7,6,8)              104.7044         estimate D2E/DX2                !
 ! A42   A(7,6,9)              100.0904         estimate D2E/DX2                !
 ! A43   A(7,6,20)              89.797          estimate D2E/DX2                !
 ! A44   A(8,6,18)              91.2828         estimate D2E/DX2                !
 ! A45   A(8,6,20)              98.6697         estimate D2E/DX2                !
 ! A46   A(9,6,13)              73.8772         estimate D2E/DX2                !
 ! A47   A(9,6,18)             130.2101         estimate D2E/DX2                !
 ! A48   A(9,6,20)             154.9182         estimate D2E/DX2                !
 ! A49   A(13,6,20)             95.1504         estimate D2E/DX2                !
 ! A50   A(9,8,13)              92.209          estimate D2E/DX2                !
 ! A51   A(1,9,8)               90.1548         estimate D2E/DX2                !
 ! A52   A(1,9,10)             135.2761         estimate D2E/DX2                !
 ! A53   A(1,9,11)             100.0336         estimate D2E/DX2                !
 ! A54   A(1,9,26)             137.7727         estimate D2E/DX2                !
 ! A55   A(1,9,27)             128.5466         estimate D2E/DX2                !
 ! A56   A(2,9,4)              107.7837         estimate D2E/DX2                !
 ! A57   A(2,9,6)               90.2857         estimate D2E/DX2                !
 ! A58   A(2,9,8)               80.297          estimate D2E/DX2                !
 ! A59   A(2,9,10)             164.0007         estimate D2E/DX2                !
 ! A60   A(2,9,11)             108.636          estimate D2E/DX2                !
 ! A61   A(2,9,26)              84.8785         estimate D2E/DX2                !
 ! A62   A(2,9,27)              91.3266         estimate D2E/DX2                !
 ! A63   A(4,9,8)               96.7816         estimate D2E/DX2                !
 ! A64   A(4,9,10)              81.8153         estimate D2E/DX2                !
 ! A65   A(4,9,11)              86.3902         estimate D2E/DX2                !
 ! A66   A(4,9,12)              97.3718         estimate D2E/DX2                !
 ! A67   A(4,9,26)             163.5466         estimate D2E/DX2                !
 ! A68   A(4,9,27)             138.6563         estimate D2E/DX2                !
 ! A69   A(6,9,10)              86.1387         estimate D2E/DX2                !
 ! A70   A(6,9,11)             136.8509         estimate D2E/DX2                !
 ! A71   A(6,9,12)             125.0007         estimate D2E/DX2                !
 ! A72   A(6,9,26)             120.8461         estimate D2E/DX2                !
 ! A73   A(8,9,10)              85.9526         estimate D2E/DX2                !
 ! A74   A(8,9,12)             134.6401         estimate D2E/DX2                !
 ! A75   A(8,9,26)              74.5694         estimate D2E/DX2                !
 ! A76   A(8,9,27)             122.8954         estimate D2E/DX2                !
 ! A77   A(10,9,11)             84.2808         estimate D2E/DX2                !
 ! A78   A(10,9,12)            138.7018         estimate D2E/DX2                !
 ! A79   A(10,9,26)             83.6022         estimate D2E/DX2                !
 ! A80   A(10,9,27)             89.292          estimate D2E/DX2                !
 ! A81   A(11,9,26)             99.7156         estimate D2E/DX2                !
 ! A82   A(12,9,26)             98.606          estimate D2E/DX2                !
 ! A83   A(9,10,13)             91.2356         estimate D2E/DX2                !
 ! A84   A(9,10,24)             98.1478         estimate D2E/DX2                !
 ! A85   A(13,10,24)            87.8852         estimate D2E/DX2                !
 ! A86   A(1,12,11)             97.4264         estimate D2E/DX2                !
 ! A87   A(1,12,14)             98.4114         estimate D2E/DX2                !
 ! A88   A(1,12,15)            146.5178         estimate D2E/DX2                !
 ! A89   A(1,12,27)            119.7328         estimate D2E/DX2                !
 ! A90   A(2,12,5)             105.9739         estimate D2E/DX2                !
 ! A91   A(2,12,11)            113.8899         estimate D2E/DX2                !
 ! A92   A(2,12,14)             91.873          estimate D2E/DX2                !
 ! A93   A(2,12,15)             95.008          estimate D2E/DX2                !
 ! A94   A(2,12,21)             88.589          estimate D2E/DX2                !
 ! A95   A(2,12,27)             91.026          estimate D2E/DX2                !
 ! A96   A(5,12,9)              94.1505         estimate D2E/DX2                !
 ! A97   A(5,12,11)             84.2679         estimate D2E/DX2                !
 ! A98   A(5,12,14)             88.1914         estimate D2E/DX2                !
 ! A99   A(5,12,15)            157.3653         estimate D2E/DX2                !
 ! A100  A(5,12,27)            135.9645         estimate D2E/DX2                !
 ! A101  A(9,12,14)            148.13           estimate D2E/DX2                !
 ! A102  A(9,12,15)            104.5562         estimate D2E/DX2                !
 ! A103  A(9,12,21)            120.4916         estimate D2E/DX2                !
 ! A104  A(11,12,14)           154.2307         estimate D2E/DX2                !
 ! A105  A(11,12,15)            95.0861         estimate D2E/DX2                !
 ! A106  A(11,12,21)           130.8014         estimate D2E/DX2                !
 ! A107  A(14,12,15)            82.6334         estimate D2E/DX2                !
 ! A108  A(14,12,27)           132.4103         estimate D2E/DX2                !
 ! A109  A(15,12,21)           127.4029         estimate D2E/DX2                !
 ! A110  A(6,13,10)             86.0709         estimate D2E/DX2                !
 ! A111  A(6,13,16)             98.7792         estimate D2E/DX2                !
 ! A112  A(6,13,17)            128.6777         estimate D2E/DX2                !
 ! A113  A(6,13,37)            140.6793         estimate D2E/DX2                !
 ! A114  A(7,13,8)              99.2117         estimate D2E/DX2                !
 ! A115  A(7,13,10)             83.5836         estimate D2E/DX2                !
 ! A116  A(7,13,16)            101.2527         estimate D2E/DX2                !
 ! A117  A(7,13,37)             88.6794         estimate D2E/DX2                !
 ! A118  A(8,13,10)             89.0907         estimate D2E/DX2                !
 ! A119  A(8,13,16)             92.4747         estimate D2E/DX2                !
 ! A120  A(8,13,17)             81.846          estimate D2E/DX2                !
 ! A121  A(8,13,18)             91.7998         estimate D2E/DX2                !
 ! A122  A(10,13,17)            88.3692         estimate D2E/DX2                !
 ! A123  A(10,13,18)           133.8282         estimate D2E/DX2                !
 ! A124  A(10,13,37)            86.5368         estimate D2E/DX2                !
 ! A125  A(16,13,17)            86.7365         estimate D2E/DX2                !
 ! A126  A(16,13,37)            91.1412         estimate D2E/DX2                !
 ! A127  A(17,13,18)           137.4074         estimate D2E/DX2                !
 ! A128  A(17,13,37)            89.6007         estimate D2E/DX2                !
 ! A129  A(18,13,37)            97.3102         estimate D2E/DX2                !
 ! A130  A(13,17,24)            85.8345         estimate D2E/DX2                !
 ! A131  A(13,17,36)            84.7292         estimate D2E/DX2                !
 ! A132  A(6,18,16)             98.546          estimate D2E/DX2                !
 ! A133  A(6,18,19)            149.5198         estimate D2E/DX2                !
 ! A134  A(7,18,16)            106.3204         estimate D2E/DX2                !
 ! A135  A(7,18,19)            111.2309         estimate D2E/DX2                !
 ! A136  A(7,18,20)            102.6232         estimate D2E/DX2                !
 ! A137  A(13,18,19)           135.5496         estimate D2E/DX2                !
 ! A138  A(13,18,20)           107.6763         estimate D2E/DX2                !
 ! A139  A(16,18,19)           111.4769         estimate D2E/DX2                !
 ! A140  A(16,18,20)           107.6077         estimate D2E/DX2                !
 ! A141  A(19,18,20)           116.765          estimate D2E/DX2                !
 ! A142  A(1,21,14)            101.0735         estimate D2E/DX2                !
 ! A143  A(1,21,22)            147.1281         estimate D2E/DX2                !
 ! A144  A(5,21,14)            102.957          estimate D2E/DX2                !
 ! A145  A(5,21,22)            113.8725         estimate D2E/DX2                !
 ! A146  A(5,21,23)            104.8351         estimate D2E/DX2                !
 ! A147  A(12,21,22)           146.5184         estimate D2E/DX2                !
 ! A148  A(12,21,23)           100.8464         estimate D2E/DX2                !
 ! A149  A(14,21,22)           111.7154         estimate D2E/DX2                !
 ! A150  A(14,21,23)           110.2391         estimate D2E/DX2                !
 ! A151  A(22,21,23)           112.6126         estimate D2E/DX2                !
 ! A152  A(10,24,17)            97.0465         estimate D2E/DX2                !
 ! A153  A(10,24,25)            83.887          estimate D2E/DX2                !
 ! A154  A(10,24,26)            84.2161         estimate D2E/DX2                !
 ! A155  A(10,24,28)            81.9588         estimate D2E/DX2                !
 ! A156  A(10,24,33)           135.608          estimate D2E/DX2                !
 ! A157  A(10,24,36)            96.6671         estimate D2E/DX2                !
 ! A158  A(17,24,25)           108.1243         estimate D2E/DX2                !
 ! A159  A(17,24,26)            80.3948         estimate D2E/DX2                !
 ! A160  A(17,24,32)            91.1796         estimate D2E/DX2                !
 ! A161  A(17,24,33)            97.6109         estimate D2E/DX2                !
 ! A162  A(25,24,28)            86.1366         estimate D2E/DX2                !
 ! A163  A(25,24,32)           103.2322         estimate D2E/DX2                !
 ! A164  A(26,24,28)            85.1858         estimate D2E/DX2                !
 ! A165  A(26,24,32)            87.1747         estimate D2E/DX2                !
 ! A166  A(26,24,33)           139.5698         estimate D2E/DX2                !
 ! A167  A(26,24,36)           132.6016         estimate D2E/DX2                !
 ! A168  A(28,24,32)            87.54           estimate D2E/DX2                !
 ! A169  A(28,24,33)            92.987          estimate D2E/DX2                !
 ! A170  A(28,24,36)           142.0566         estimate D2E/DX2                !
 ! A171  A(32,24,36)            96.4028         estimate D2E/DX2                !
 ! A172  A(9,26,24)             93.7618         estimate D2E/DX2                !
 ! A173  A(24,26,27)            91.9056         estimate D2E/DX2                !
 ! A174  A(9,27,15)             99.192          estimate D2E/DX2                !
 ! A175  A(9,27,28)             99.9364         estimate D2E/DX2                !
 ! A176  A(9,27,29)            149.5398         estimate D2E/DX2                !
 ! A177  A(9,27,30)            130.1142         estimate D2E/DX2                !
 ! A178  A(11,27,15)            95.093          estimate D2E/DX2                !
 ! A179  A(11,27,26)           108.5363         estimate D2E/DX2                !
 ! A180  A(11,27,28)            81.8459         estimate D2E/DX2                !
 ! A181  A(11,27,29)           156.7725         estimate D2E/DX2                !
 ! A182  A(11,27,30)           128.3344         estimate D2E/DX2                !
 ! A183  A(12,27,26)            96.6707         estimate D2E/DX2                !
 ! A184  A(12,27,28)           132.5457         estimate D2E/DX2                !
 ! A185  A(12,27,29)           132.843          estimate D2E/DX2                !
 ! A186  A(15,27,26)           107.5536         estimate D2E/DX2                !
 ! A187  A(15,27,28)           153.5689         estimate D2E/DX2                !
 ! A188  A(15,27,29)            82.0205         estimate D2E/DX2                !
 ! A189  A(15,27,30)           126.5281         estimate D2E/DX2                !
 ! A190  A(26,27,28)            98.228          estimate D2E/DX2                !
 ! A191  A(26,27,29)            94.2167         estimate D2E/DX2                !
 ! A192  A(26,27,30)            88.4497         estimate D2E/DX2                !
 ! A193  A(28,27,29)            90.5345         estimate D2E/DX2                !
 ! A194  A(24,28,27)            84.537          estimate D2E/DX2                !
 ! A195  A(24,28,30)            82.2021         estimate D2E/DX2                !
 ! A196  A(27,30,31)           139.2673         estimate D2E/DX2                !
 ! A197  A(27,30,32)           104.8345         estimate D2E/DX2                !
 ! A198  A(28,30,29)           105.3835         estimate D2E/DX2                !
 ! A199  A(28,30,31)           112.588          estimate D2E/DX2                !
 ! A200  A(28,30,32)           105.2871         estimate D2E/DX2                !
 ! A201  A(29,30,31)           108.8904         estimate D2E/DX2                !
 ! A202  A(29,30,32)           108.2116         estimate D2E/DX2                !
 ! A203  A(31,30,32)           115.8884         estimate D2E/DX2                !
 ! A204  A(24,32,30)            82.9577         estimate D2E/DX2                !
 ! A205  A(30,32,33)           101.5466         estimate D2E/DX2                !
 ! A206  A(24,33,34)           134.4507         estimate D2E/DX2                !
 ! A207  A(24,33,35)           107.4082         estimate D2E/DX2                !
 ! A208  A(25,33,32)           112.1241         estimate D2E/DX2                !
 ! A209  A(25,33,34)           103.5015         estimate D2E/DX2                !
 ! A210  A(25,33,35)           100.5105         estimate D2E/DX2                !
 ! A211  A(32,33,34)           114.4309         estimate D2E/DX2                !
 ! A212  A(32,33,35)           109.0473         estimate D2E/DX2                !
 ! A213  A(32,33,36)            98.1092         estimate D2E/DX2                !
 ! A214  A(34,33,35)           116.2386         estimate D2E/DX2                !
 ! A215  A(34,33,36)           146.7581         estimate D2E/DX2                !
 ! A216  A(17,36,25)           109.7565         estimate D2E/DX2                !
 ! A217  A(17,36,33)            99.0879         estimate D2E/DX2                !
 ! A218  A(17,36,35)           111.7892         estimate D2E/DX2                !
 ! A219  A(17,36,37)           102.4937         estimate D2E/DX2                !
 ! A220  A(17,36,38)            90.7089         estimate D2E/DX2                !
 ! A221  A(24,36,35)           105.7606         estimate D2E/DX2                !
 ! A222  A(24,36,37)           101.651          estimate D2E/DX2                !
 ! A223  A(24,36,38)           146.438          estimate D2E/DX2                !
 ! A224  A(25,36,35)            93.0195         estimate D2E/DX2                !
 ! A225  A(25,36,37)            84.5371         estimate D2E/DX2                !
 ! A226  A(25,36,38)           158.0516         estimate D2E/DX2                !
 ! A227  A(33,36,37)           134.9754         estimate D2E/DX2                !
 ! A228  A(33,36,38)           135.5678         estimate D2E/DX2                !
 ! A229  A(35,36,37)           144.2342         estimate D2E/DX2                !
 ! A230  A(35,36,38)            86.3261         estimate D2E/DX2                !
 ! A231  A(37,36,38)            83.2934         estimate D2E/DX2                !
 ! A232  A(13,37,36)            82.0943         estimate D2E/DX2                !
 ! A233  L(6,1,21,2,-1)        183.1688         estimate D2E/DX2                !
 ! A234  L(1,6,18,8,-1)        184.7614         estimate D2E/DX2                !
 ! A235  L(6,9,27,2,-1)        181.6123         estimate D2E/DX2                !
 ! A236  L(8,9,11,1,-1)        190.1884         estimate D2E/DX2                !
 ! A237  L(21,12,27,2,-1)      179.615          estimate D2E/DX2                !
 ! A238  L(7,13,17,8,-1)       181.0577         estimate D2E/DX2                !
 ! A239  L(8,13,37,7,-1)       187.891          estimate D2E/DX2                !
 ! A240  L(10,13,16,6,-1)      184.8501         estimate D2E/DX2                !
 ! A241  L(10,24,32,17,-1)     188.226          estimate D2E/DX2                !
 ! A242  L(17,24,28,10,-1)     179.0052         estimate D2E/DX2                !
 ! A243  L(25,24,26,10,-1)     168.1031         estimate D2E/DX2                !
 ! A244  L(12,27,30,26,-1)     185.1204         estimate D2E/DX2                !
 ! A245  L(6,1,21,2,-2)        178.9258         estimate D2E/DX2                !
 ! A246  L(1,6,18,8,-2)        183.2299         estimate D2E/DX2                !
 ! A247  L(6,9,27,2,-2)        191.058          estimate D2E/DX2                !
 ! A248  L(8,9,11,1,-2)        176.3964         estimate D2E/DX2                !
 ! A249  L(21,12,27,2,-2)      177.154          estimate D2E/DX2                !
 ! A250  L(7,13,17,8,-2)       171.8329         estimate D2E/DX2                !
 ! A251  L(8,13,37,7,-2)       185.3095         estimate D2E/DX2                !
 ! A252  L(10,13,16,6,-2)      177.6058         estimate D2E/DX2                !
 ! A253  L(10,24,32,17,-2)     169.8165         estimate D2E/DX2                !
 ! A254  L(17,24,28,10,-2)     194.5222         estimate D2E/DX2                !
 ! A255  L(25,24,26,10,-2)     172.8797         estimate D2E/DX2                !
 ! A256  L(12,27,30,26,-2)     179.1033         estimate D2E/DX2                !
 ! D1    D(2,1,6,7)            118.0793         estimate D2E/DX2                !
 ! D2    D(2,1,6,8)              4.1572         estimate D2E/DX2                !
 ! D3    D(2,1,6,13)            47.1422         estimate D2E/DX2                !
 ! D4    D(2,1,6,20)          -100.2542         estimate D2E/DX2                !
 ! D5    D(5,1,6,7)              2.2651         estimate D2E/DX2                !
 ! D6    D(5,1,6,8)           -111.657          estimate D2E/DX2                !
 ! D7    D(5,1,6,13)           -68.6719         estimate D2E/DX2                !
 ! D8    D(5,1,6,20)           143.9317         estimate D2E/DX2                !
 ! D9    D(12,1,6,7)            70.6872         estimate D2E/DX2                !
 ! D10   D(12,1,6,8)           -43.2349         estimate D2E/DX2                !
 ! D11   D(12,1,6,13)           -0.2499         estimate D2E/DX2                !
 ! D12   D(12,1,6,20)         -147.6463         estimate D2E/DX2                !
 ! D13   D(23,1,6,7)          -146.4432         estimate D2E/DX2                !
 ! D14   D(23,1,6,8)            99.6347         estimate D2E/DX2                !
 ! D15   D(23,1,6,13)          142.6197         estimate D2E/DX2                !
 ! D16   D(23,1,6,20)           -4.7767         estimate D2E/DX2                !
 ! D17   D(3,1,9,8)             11.2744         estimate D2E/DX2                !
 ! D18   D(3,1,9,10)           -73.126          estimate D2E/DX2                !
 ! D19   D(3,1,9,11)          -165.1221         estimate D2E/DX2                !
 ! D20   D(3,1,9,26)            78.138          estimate D2E/DX2                !
 ! D21   D(3,1,9,27)           145.4273         estimate D2E/DX2                !
 ! D22   D(5,1,9,8)            175.3097         estimate D2E/DX2                !
 ! D23   D(5,1,9,10)            90.9093         estimate D2E/DX2                !
 ! D24   D(5,1,9,11)            -1.0867         estimate D2E/DX2                !
 ! D25   D(5,1,9,26)          -117.8267         estimate D2E/DX2                !
 ! D26   D(5,1,9,27)           -50.5374         estimate D2E/DX2                !
 ! D27   D(21,1,9,8)          -144.2657         estimate D2E/DX2                !
 ! D28   D(21,1,9,10)          131.3339         estimate D2E/DX2                !
 ! D29   D(21,1,9,11)           39.3379         estimate D2E/DX2                !
 ! D30   D(21,1,9,26)          -77.4021         estimate D2E/DX2                !
 ! D31   D(21,1,9,27)          -10.1128         estimate D2E/DX2                !
 ! D32   D(23,1,9,8)           -94.1728         estimate D2E/DX2                !
 ! D33   D(23,1,9,10)         -178.5732         estimate D2E/DX2                !
 ! D34   D(23,1,9,11)           89.4308         estimate D2E/DX2                !
 ! D35   D(23,1,9,26)          -27.3092         estimate D2E/DX2                !
 ! D36   D(23,1,9,27)           39.9801         estimate D2E/DX2                !
 ! D37   D(3,1,12,11)         -113.4687         estimate D2E/DX2                !
 ! D38   D(3,1,12,14)           86.9252         estimate D2E/DX2                !
 ! D39   D(3,1,12,15)           -2.4226         estimate D2E/DX2                !
 ! D40   D(3,1,12,27)          -63.4856         estimate D2E/DX2                !
 ! D41   D(4,1,12,11)            1.415          estimate D2E/DX2                !
 ! D42   D(4,1,12,14)         -158.1911         estimate D2E/DX2                !
 ! D43   D(4,1,12,15)          112.4611         estimate D2E/DX2                !
 ! D44   D(4,1,12,27)           51.398          estimate D2E/DX2                !
 ! D45   D(6,1,12,11)          -45.5827         estimate D2E/DX2                !
 ! D46   D(6,1,12,14)          154.8112         estimate D2E/DX2                !
 ! D47   D(6,1,12,15)           65.4634         estimate D2E/DX2                !
 ! D48   D(6,1,12,27)            4.4004         estimate D2E/DX2                !
 ! D49   D(23,1,12,11)         160.305          estimate D2E/DX2                !
 ! D50   D(23,1,12,14)           0.6989         estimate D2E/DX2                !
 ! D51   D(23,1,12,15)         -88.6489         estimate D2E/DX2                !
 ! D52   D(23,1,12,27)        -149.7119         estimate D2E/DX2                !
 ! D53   D(2,1,21,14)          -14.5946         estimate D2E/DX2                !
 ! D54   D(2,1,21,22)          169.4771         estimate D2E/DX2                !
 ! D55   D(3,1,21,14)         -116.4111         estimate D2E/DX2                !
 ! D56   D(3,1,21,22)           67.6606         estimate D2E/DX2                !
 ! D57   D(4,1,21,14)          102.4225         estimate D2E/DX2                !
 ! D58   D(4,1,21,22)          -73.5058         estimate D2E/DX2                !
 ! D59   D(9,1,21,14)           35.0356         estimate D2E/DX2                !
 ! D60   D(9,1,21,22)         -140.8927         estimate D2E/DX2                !
 ! D61   D(1,2,9,12)           -82.9068         estimate D2E/DX2                !
 ! D62   D(1,4,6,9)             71.9167         estimate D2E/DX2                !
 ! D63   D(1,5,12,21)           82.3958         estimate D2E/DX2                !
 ! D64   D(3,6,9,2)            -22.1696         estimate D2E/DX2                !
 ! D65   D(3,6,9,10)           173.4378         estimate D2E/DX2                !
 ! D66   D(3,6,9,11)            96.0322         estimate D2E/DX2                !
 ! D67   D(3,6,9,12)            22.7479         estimate D2E/DX2                !
 ! D68   D(3,6,9,26)          -106.3729         estimate D2E/DX2                !
 ! D69   D(7,6,9,2)            177.3556         estimate D2E/DX2                !
 ! D70   D(7,6,9,10)            12.963          estimate D2E/DX2                !
 ! D71   D(7,6,9,11)           -64.4426         estimate D2E/DX2                !
 ! D72   D(7,6,9,12)          -137.7269         estimate D2E/DX2                !
 ! D73   D(7,6,9,26)            93.1523         estimate D2E/DX2                !
 ! D74   D(13,6,9,2)           132.1332         estimate D2E/DX2                !
 ! D75   D(13,6,9,10)          -32.2594         estimate D2E/DX2                !
 ! D76   D(13,6,9,11)         -109.665          estimate D2E/DX2                !
 ! D77   D(13,6,9,12)          177.0507         estimate D2E/DX2                !
 ! D78   D(13,6,9,26)           47.9299         estimate D2E/DX2                !
 ! D79   D(18,6,9,2)           134.8433         estimate D2E/DX2                !
 ! D80   D(18,6,9,10)          -29.5493         estimate D2E/DX2                !
 ! D81   D(18,6,9,11)         -106.9549         estimate D2E/DX2                !
 ! D82   D(18,6,9,12)          179.7608         estimate D2E/DX2                !
 ! D83   D(18,6,9,26)           50.64           estimate D2E/DX2                !
 ! D84   D(20,6,9,2)            65.5341         estimate D2E/DX2                !
 ! D85   D(20,6,9,10)          -98.8585         estimate D2E/DX2                !
 ! D86   D(20,6,9,11)         -176.2641         estimate D2E/DX2                !
 ! D87   D(20,6,9,12)          110.4516         estimate D2E/DX2                !
 ! D88   D(20,6,9,26)          -18.6692         estimate D2E/DX2                !
 ! D89   D(1,6,13,10)           33.8184         estimate D2E/DX2                !
 ! D90   D(1,6,13,16)         -143.7874         estimate D2E/DX2                !
 ! D91   D(1,6,13,17)          -50.9305         estimate D2E/DX2                !
 ! D92   D(1,6,13,37)          113.483          estimate D2E/DX2                !
 ! D93   D(3,6,13,10)          113.1315         estimate D2E/DX2                !
 ! D94   D(3,6,13,16)          -64.4744         estimate D2E/DX2                !
 ! D95   D(3,6,13,17)           28.3826         estimate D2E/DX2                !
 ! D96   D(3,6,13,37)         -167.2039         estimate D2E/DX2                !
 ! D97   D(4,6,13,10)          -14.0566         estimate D2E/DX2                !
 ! D98   D(4,6,13,16)          168.3375         estimate D2E/DX2                !
 ! D99   D(4,6,13,17)          -98.8055         estimate D2E/DX2                !
 ! D100  D(4,6,13,37)           65.608          estimate D2E/DX2                !
 ! D101  D(9,6,13,10)           32.3877         estimate D2E/DX2                !
 ! D102  D(9,6,13,16)         -145.2182         estimate D2E/DX2                !
 ! D103  D(9,6,13,17)          -52.3612         estimate D2E/DX2                !
 ! D104  D(9,6,13,37)          112.0523         estimate D2E/DX2                !
 ! D105  D(20,6,13,10)        -170.6055         estimate D2E/DX2                !
 ! D106  D(20,6,13,16)          11.7887         estimate D2E/DX2                !
 ! D107  D(20,6,13,17)         104.6456         estimate D2E/DX2                !
 ! D108  D(20,6,13,37)         -90.9409         estimate D2E/DX2                !
 ! D109  D(3,6,18,16)          111.3179         estimate D2E/DX2                !
 ! D110  D(3,6,18,19)          -78.546          estimate D2E/DX2                !
 ! D111  D(4,6,18,16)         -110.0636         estimate D2E/DX2                !
 ! D112  D(4,6,18,19)           60.0726         estimate D2E/DX2                !
 ! D113  D(8,6,18,16)            4.6563         estimate D2E/DX2                !
 ! D114  D(8,6,18,19)          174.7924         estimate D2E/DX2                !
 ! D115  D(9,6,18,16)          -40.7661         estimate D2E/DX2                !
 ! D116  D(9,6,18,19)          129.3701         estimate D2E/DX2                !
 ! D117  D(6,7,13,18)          -82.7714         estimate D2E/DX2                !
 ! D118  D(13,8,9,1)          -126.0756         estimate D2E/DX2                !
 ! D119  D(13,8,9,2)          -178.8792         estimate D2E/DX2                !
 ! D120  D(13,8,9,4)           -71.919          estimate D2E/DX2                !
 ! D121  D(13,8,9,10)            9.33           estimate D2E/DX2                !
 ! D122  D(13,8,9,12)         -179.3182         estimate D2E/DX2                !
 ! D123  D(13,8,9,26)           93.8006         estimate D2E/DX2                !
 ! D124  D(13,8,9,27)           95.8603         estimate D2E/DX2                !
 ! D125  D(9,8,13,7)            74.01           estimate D2E/DX2                !
 ! D126  D(9,8,13,10)           -9.3402         estimate D2E/DX2                !
 ! D127  D(9,8,13,16)          175.8325         estimate D2E/DX2                !
 ! D128  D(9,8,13,17)          -97.8229         estimate D2E/DX2                !
 ! D129  D(9,8,13,18)          124.4825         estimate D2E/DX2                !
 ! D130  D(1,9,10,13)           77.1162         estimate D2E/DX2                !
 ! D131  D(1,9,10,24)          165.1563         estimate D2E/DX2                !
 ! D132  D(2,9,10,13)          -39.7143         estimate D2E/DX2                !
 ! D133  D(2,9,10,24)           48.3259         estimate D2E/DX2                !
 ! D134  D(4,9,10,13)           88.4488         estimate D2E/DX2                !
 ! D135  D(4,9,10,24)          176.4889         estimate D2E/DX2                !
 ! D136  D(6,9,10,13)           37.7376         estimate D2E/DX2                !
 ! D137  D(6,9,10,24)          125.7778         estimate D2E/DX2                !
 ! D138  D(8,9,10,13)           -9.0079         estimate D2E/DX2                !
 ! D139  D(8,9,10,24)           79.0322         estimate D2E/DX2                !
 ! D140  D(11,9,10,13)         175.6102         estimate D2E/DX2                !
 ! D141  D(11,9,10,24)         -96.3497         estimate D2E/DX2                !
 ! D142  D(12,9,10,13)        -179.6783         estimate D2E/DX2                !
 ! D143  D(12,9,10,24)         -91.6382         estimate D2E/DX2                !
 ! D144  D(26,9,10,13)         -83.9097         estimate D2E/DX2                !
 ! D145  D(26,9,10,24)           4.1304         estimate D2E/DX2                !
 ! D146  D(27,9,10,13)        -132.0587         estimate D2E/DX2                !
 ! D147  D(27,9,10,24)         -44.0185         estimate D2E/DX2                !
 ! D148  D(4,9,12,5)            -0.2497         estimate D2E/DX2                !
 ! D149  D(4,9,12,14)          -93.5051         estimate D2E/DX2                !
 ! D150  D(4,9,12,15)          166.8953         estimate D2E/DX2                !
 ! D151  D(4,9,12,21)          -41.3197         estimate D2E/DX2                !
 ! D152  D(6,9,12,5)            46.0411         estimate D2E/DX2                !
 ! D153  D(6,9,12,14)          -47.2143         estimate D2E/DX2                !
 ! D154  D(6,9,12,15)         -146.814          estimate D2E/DX2                !
 ! D155  D(6,9,12,21)            4.9711         estimate D2E/DX2                !
 ! D156  D(8,9,12,5)           106.9141         estimate D2E/DX2                !
 ! D157  D(8,9,12,14)           13.6586         estimate D2E/DX2                !
 ! D158  D(8,9,12,15)          -85.941          estimate D2E/DX2                !
 ! D159  D(8,9,12,21)           65.8441         estimate D2E/DX2                !
 ! D160  D(10,9,12,5)          -86.2222         estimate D2E/DX2                !
 ! D161  D(10,9,12,14)        -179.4776         estimate D2E/DX2                !
 ! D162  D(10,9,12,15)          80.9227         estimate D2E/DX2                !
 ! D163  D(10,9,12,21)        -127.2922         estimate D2E/DX2                !
 ! D164  D(26,9,12,5)         -176.3091         estimate D2E/DX2                !
 ! D165  D(26,9,12,14)          90.4354         estimate D2E/DX2                !
 ! D166  D(26,9,12,15)          -9.1642         estimate D2E/DX2                !
 ! D167  D(26,9,12,21)         142.6209         estimate D2E/DX2                !
 ! D168  D(1,9,26,24)         -163.8634         estimate D2E/DX2                !
 ! D169  D(2,9,26,24)         -172.6442         estimate D2E/DX2                !
 ! D170  D(4,9,26,24)          -31.4579         estimate D2E/DX2                !
 ! D171  D(6,9,26,24)          -85.3779         estimate D2E/DX2                !
 ! D172  D(8,9,26,24)          -91.3179         estimate D2E/DX2                !
 ! D173  D(10,9,26,24)          -3.7669         estimate D2E/DX2                !
 ! D174  D(11,9,26,24)          79.287          estimate D2E/DX2                !
 ! D175  D(12,9,26,24)         134.6188         estimate D2E/DX2                !
 ! D176  D(1,9,27,15)          -18.9229         estimate D2E/DX2                !
 ! D177  D(1,9,27,28)          142.7508         estimate D2E/DX2                !
 ! D178  D(1,9,27,29)         -108.7943         estimate D2E/DX2                !
 ! D179  D(1,9,27,30)         -176.5555         estimate D2E/DX2                !
 ! D180  D(2,9,27,15)           23.0819         estimate D2E/DX2                !
 ! D181  D(2,9,27,28)         -175.2444         estimate D2E/DX2                !
 ! D182  D(2,9,27,29)          -66.7895         estimate D2E/DX2                !
 ! D183  D(2,9,27,30)         -134.5507         estimate D2E/DX2                !
 ! D184  D(4,9,27,15)          -96.1803         estimate D2E/DX2                !
 ! D185  D(4,9,27,28)           65.4934         estimate D2E/DX2                !
 ! D186  D(4,9,27,29)          173.9483         estimate D2E/DX2                !
 ! D187  D(4,9,27,30)          106.1871         estimate D2E/DX2                !
 ! D188  D(8,9,27,15)          102.3741         estimate D2E/DX2                !
 ! D189  D(8,9,27,28)          -95.9522         estimate D2E/DX2                !
 ! D190  D(8,9,27,29)           12.5027         estimate D2E/DX2                !
 ! D191  D(8,9,27,30)          -55.2585         estimate D2E/DX2                !
 ! D192  D(10,9,27,15)        -172.908          estimate D2E/DX2                !
 ! D193  D(10,9,27,28)         -11.2343         estimate D2E/DX2                !
 ! D194  D(10,9,27,29)          97.2205         estimate D2E/DX2                !
 ! D195  D(10,9,27,30)          29.4594         estimate D2E/DX2                !
 ! D196  D(9,10,13,6)          -37.5892         estimate D2E/DX2                !
 ! D197  D(9,10,13,7)          -89.8837         estimate D2E/DX2                !
 ! D198  D(9,10,13,8)            9.4914         estimate D2E/DX2                !
 ! D199  D(9,10,13,17)          91.3592         estimate D2E/DX2                !
 ! D200  D(9,10,13,18)         -82.1306         estimate D2E/DX2                !
 ! D201  D(9,10,13,37)        -178.9423         estimate D2E/DX2                !
 ! D202  D(24,10,13,6)        -135.6984         estimate D2E/DX2                !
 ! D203  D(24,10,13,7)         172.0071         estimate D2E/DX2                !
 ! D204  D(24,10,13,8)         -88.6178         estimate D2E/DX2                !
 ! D205  D(24,10,13,17)         -6.75           estimate D2E/DX2                !
 ! D206  D(24,10,13,18)        179.7602         estimate D2E/DX2                !
 ! D207  D(24,10,13,37)         82.9485         estimate D2E/DX2                !
 ! D208  D(9,10,24,17)         -83.5008         estimate D2E/DX2                !
 ! D209  D(9,10,24,25)         168.9213         estimate D2E/DX2                !
 ! D210  D(9,10,24,26)          -3.9585         estimate D2E/DX2                !
 ! D211  D(9,10,24,28)          81.9769         estimate D2E/DX2                !
 ! D212  D(9,10,24,33)         168.016          estimate D2E/DX2                !
 ! D213  D(9,10,24,36)        -136.2693         estimate D2E/DX2                !
 ! D214  D(13,10,24,17)          7.4452         estimate D2E/DX2                !
 ! D215  D(13,10,24,25)       -100.1327         estimate D2E/DX2                !
 ! D216  D(13,10,24,26)         86.9876         estimate D2E/DX2                !
 ! D217  D(13,10,24,28)        172.923          estimate D2E/DX2                !
 ! D218  D(13,10,24,33)       -101.038          estimate D2E/DX2                !
 ! D219  D(13,10,24,36)        -45.3232         estimate D2E/DX2                !
 ! D220  D(9,11,12,27)         -77.4241         estimate D2E/DX2                !
 ! D221  D(2,12,21,22)        -168.9618         estimate D2E/DX2                !
 ! D222  D(2,12,21,23)          13.1359         estimate D2E/DX2                !
 ! D223  D(9,12,21,22)         141.4376         estimate D2E/DX2                !
 ! D224  D(9,12,21,23)         -36.4646         estimate D2E/DX2                !
 ! D225  D(11,12,21,22)         70.1145         estimate D2E/DX2                !
 ! D226  D(11,12,21,23)       -107.7877         estimate D2E/DX2                !
 ! D227  D(15,12,21,22)        -73.7356         estimate D2E/DX2                !
 ! D228  D(15,12,21,23)        108.3622         estimate D2E/DX2                !
 ! D229  D(1,12,27,26)          33.5704         estimate D2E/DX2                !
 ! D230  D(1,12,27,28)         -74.0625         estimate D2E/DX2                !
 ! D231  D(1,12,27,29)         135.6594         estimate D2E/DX2                !
 ! D232  D(2,12,27,26)         -11.533          estimate D2E/DX2                !
 ! D233  D(2,12,27,28)        -119.1659         estimate D2E/DX2                !
 ! D234  D(2,12,27,29)          90.556          estimate D2E/DX2                !
 ! D235  D(5,12,27,26)         102.9547         estimate D2E/DX2                !
 ! D236  D(5,12,27,28)          -4.6782         estimate D2E/DX2                !
 ! D237  D(5,12,27,29)        -154.9563         estimate D2E/DX2                !
 ! D238  D(14,12,27,26)       -105.0092         estimate D2E/DX2                !
 ! D239  D(14,12,27,28)        147.3579         estimate D2E/DX2                !
 ! D240  D(14,12,27,29)         -2.9203         estimate D2E/DX2                !
 ! D241  D(6,13,17,24)          90.4199         estimate D2E/DX2                !
 ! D242  D(6,13,17,36)         162.5894         estimate D2E/DX2                !
 ! D243  D(8,13,17,24)          96.0845         estimate D2E/DX2                !
 ! D244  D(8,13,17,36)         168.254          estimate D2E/DX2                !
 ! D245  D(10,13,17,24)          6.7697         estimate D2E/DX2                !
 ! D246  D(10,13,17,36)         78.9392         estimate D2E/DX2                !
 ! D247  D(16,13,17,24)       -170.9428         estimate D2E/DX2                !
 ! D248  D(16,13,17,36)        -98.7733         estimate D2E/DX2                !
 ! D249  D(18,13,17,24)        179.828          estimate D2E/DX2                !
 ! D250  D(18,13,17,36)       -108.0025         estimate D2E/DX2                !
 ! D251  D(37,13,17,24)        -79.777          estimate D2E/DX2                !
 ! D252  D(37,13,17,36)         -7.6075         estimate D2E/DX2                !
 ! D253  D(8,13,18,19)         174.0618         estimate D2E/DX2                !
 ! D254  D(8,13,18,20)          -7.1194         estimate D2E/DX2                !
 ! D255  D(10,13,18,19)        -95.4709         estimate D2E/DX2                !
 ! D256  D(10,13,18,20)         83.3478         estimate D2E/DX2                !
 ! D257  D(17,13,18,19)         94.1693         estimate D2E/DX2                !
 ! D258  D(17,13,18,20)        -87.0119         estimate D2E/DX2                !
 ! D259  D(37,13,18,19)         -3.2519         estimate D2E/DX2                !
 ! D260  D(37,13,18,20)        175.5669         estimate D2E/DX2                !
 ! D261  D(6,13,37,36)        -160.6922         estimate D2E/DX2                !
 ! D262  D(7,13,37,36)        -164.8419         estimate D2E/DX2                !
 ! D263  D(10,13,37,36)        -81.1913         estimate D2E/DX2                !
 ! D264  D(16,13,37,36)         93.9269         estimate D2E/DX2                !
 ! D265  D(17,13,37,36)          7.1991         estimate D2E/DX2                !
 ! D266  D(18,13,37,36)        145.0449         estimate D2E/DX2                !
 ! D267  D(13,17,24,10)         -7.1959         estimate D2E/DX2                !
 ! D268  D(13,17,24,25)         78.6498         estimate D2E/DX2                !
 ! D269  D(13,17,24,26)        -90.0783         estimate D2E/DX2                !
 ! D270  D(13,17,24,32)       -177.0123         estimate D2E/DX2                !
 ! D271  D(13,17,24,33)        130.7853         estimate D2E/DX2                !
 ! D272  D(13,17,36,25)        -80.2515         estimate D2E/DX2                !
 ! D273  D(13,17,36,33)       -131.8558         estimate D2E/DX2                !
 ! D274  D(13,17,36,35)        177.9861         estimate D2E/DX2                !
 ! D275  D(13,17,36,37)          8.3719         estimate D2E/DX2                !
 ! D276  D(13,17,36,38)         91.6595         estimate D2E/DX2                !
 ! D277  D(10,24,26,9)           3.9838         estimate D2E/DX2                !
 ! D278  D(10,24,26,27)         79.5423         estimate D2E/DX2                !
 ! D279  D(17,24,26,9)         102.1588         estimate D2E/DX2                !
 ! D280  D(17,24,26,27)        177.7172         estimate D2E/DX2                !
 ! D281  D(28,24,26,9)         -78.3982         estimate D2E/DX2                !
 ! D282  D(28,24,26,27)         -2.8397         estimate D2E/DX2                !
 ! D283  D(32,24,26,9)        -166.1647         estimate D2E/DX2                !
 ! D284  D(32,24,26,27)        -90.6063         estimate D2E/DX2                !
 ! D285  D(33,24,26,9)        -167.3543         estimate D2E/DX2                !
 ! D286  D(33,24,26,27)        -91.7959         estimate D2E/DX2                !
 ! D287  D(36,24,26,9)          97.7329         estimate D2E/DX2                !
 ! D288  D(36,24,26,27)        173.2914         estimate D2E/DX2                !
 ! D289  D(10,24,28,27)        -82.2535         estimate D2E/DX2                !
 ! D290  D(10,24,28,30)       -162.1601         estimate D2E/DX2                !
 ! D291  D(25,24,28,27)       -166.615          estimate D2E/DX2                !
 ! D292  D(25,24,28,30)        113.4784         estimate D2E/DX2                !
 ! D293  D(26,24,28,27)          2.5691         estimate D2E/DX2                !
 ! D294  D(26,24,28,30)        -77.3375         estimate D2E/DX2                !
 ! D295  D(32,24,28,27)         89.9388         estimate D2E/DX2                !
 ! D296  D(32,24,28,30)         10.0322         estimate D2E/DX2                !
 ! D297  D(33,24,28,27)        142.0806         estimate D2E/DX2                !
 ! D298  D(33,24,28,30)         62.174          estimate D2E/DX2                !
 ! D299  D(36,24,28,27)       -172.7979         estimate D2E/DX2                !
 ! D300  D(36,24,28,30)        107.2955         estimate D2E/DX2                !
 ! D301  D(17,24,32,30)        155.9641         estimate D2E/DX2                !
 ! D302  D(25,24,32,30)        -95.1022         estimate D2E/DX2                !
 ! D303  D(26,24,32,30)         75.6421         estimate D2E/DX2                !
 ! D304  D(28,24,32,30)         -9.6552         estimate D2E/DX2                !
 ! D305  D(36,24,32,30)       -151.7921         estimate D2E/DX2                !
 ! D306  D(10,24,33,34)        -71.3251         estimate D2E/DX2                !
 ! D307  D(10,24,33,35)         91.7406         estimate D2E/DX2                !
 ! D308  D(17,24,33,34)       -179.5897         estimate D2E/DX2                !
 ! D309  D(17,24,33,35)        -16.524          estimate D2E/DX2                !
 ! D310  D(26,24,33,34)         96.3072         estimate D2E/DX2                !
 ! D311  D(26,24,33,35)       -100.6272         estimate D2E/DX2                !
 ! D312  D(28,24,33,34)         10.2257         estimate D2E/DX2                !
 ! D313  D(28,24,33,35)        173.2913         estimate D2E/DX2                !
 ! D314  D(10,24,36,35)       -160.2974         estimate D2E/DX2                !
 ! D315  D(10,24,36,37)         -3.511          estimate D2E/DX2                !
 ! D316  D(10,24,36,38)         91.9466         estimate D2E/DX2                !
 ! D317  D(26,24,36,35)        111.4417         estimate D2E/DX2                !
 ! D318  D(26,24,36,37)        -91.7719         estimate D2E/DX2                !
 ! D319  D(26,24,36,38)          3.6857         estimate D2E/DX2                !
 ! D320  D(28,24,36,35)        -74.8359         estimate D2E/DX2                !
 ! D321  D(28,24,36,37)         81.9505         estimate D2E/DX2                !
 ! D322  D(28,24,36,38)        177.408          estimate D2E/DX2                !
 ! D323  D(32,24,36,35)         19.3894         estimate D2E/DX2                !
 ! D324  D(32,24,36,37)        176.1759         estimate D2E/DX2                !
 ! D325  D(32,24,36,38)        -88.3666         estimate D2E/DX2                !
 ! D326  D(24,25,33,36)        -72.6514         estimate D2E/DX2                !
 ! D327  D(24,26,27,11)        -81.0142         estimate D2E/DX2                !
 ! D328  D(24,26,27,12)       -131.7187         estimate D2E/DX2                !
 ! D329  D(24,26,27,15)        177.1992         estimate D2E/DX2                !
 ! D330  D(24,26,27,28)          3.093          estimate D2E/DX2                !
 ! D331  D(24,26,27,29)         94.2455         estimate D2E/DX2                !
 ! D332  D(24,26,27,30)         49.1779         estimate D2E/DX2                !
 ! D333  D(9,27,28,24)          53.9218         estimate D2E/DX2                !
 ! D334  D(11,27,28,24)        104.688          estimate D2E/DX2                !
 ! D335  D(12,27,28,24)        103.983          estimate D2E/DX2                !
 ! D336  D(15,27,28,24)       -170.2904         estimate D2E/DX2                !
 ! D337  D(26,27,28,24)         -2.9964         estimate D2E/DX2                !
 ! D338  D(29,27,28,24)        -97.3347         estimate D2E/DX2                !
 ! D339  D(9,27,30,31)        -144.458          estimate D2E/DX2                !
 ! D340  D(9,27,30,32)          36.8131         estimate D2E/DX2                !
 ! D341  D(11,27,30,31)        -73.1841         estimate D2E/DX2                !
 ! D342  D(11,27,30,32)        108.0869         estimate D2E/DX2                !
 ! D343  D(15,27,30,31)         63.4134         estimate D2E/DX2                !
 ! D344  D(15,27,30,32)       -115.3155         estimate D2E/DX2                !
 ! D345  D(26,27,30,31)        174.2323         estimate D2E/DX2                !
 ! D346  D(26,27,30,32)         -4.4966         estimate D2E/DX2                !
 ! D347  D(24,28,30,29)        102.7672         estimate D2E/DX2                !
 ! D348  D(24,28,30,31)       -138.6683         estimate D2E/DX2                !
 ! D349  D(24,28,30,32)        -11.5151         estimate D2E/DX2                !
 ! D350  D(27,30,32,24)        -43.8436         estimate D2E/DX2                !
 ! D351  D(27,30,32,33)       -110.4019         estimate D2E/DX2                !
 ! D352  D(28,30,32,24)         11.9604         estimate D2E/DX2                !
 ! D353  D(28,30,32,33)        -54.5978         estimate D2E/DX2                !
 ! D354  D(29,30,32,24)       -100.3384         estimate D2E/DX2                !
 ! D355  D(29,30,32,33)       -166.8966         estimate D2E/DX2                !
 ! D356  D(31,30,32,24)        137.0783         estimate D2E/DX2                !
 ! D357  D(31,30,32,33)         70.5201         estimate D2E/DX2                !
 ! D358  D(30,32,33,25)         66.5262         estimate D2E/DX2                !
 ! D359  D(30,32,33,34)        -50.9574         estimate D2E/DX2                !
 ! D360  D(30,32,33,35)        176.9328         estimate D2E/DX2                !
 ! D361  D(30,32,33,36)        122.0776         estimate D2E/DX2                !
 ! D362  D(32,33,36,17)         -3.2453         estimate D2E/DX2                !
 ! D363  D(32,33,36,37)       -121.2482         estimate D2E/DX2                !
 ! D364  D(32,33,36,38)         97.186          estimate D2E/DX2                !
 ! D365  D(34,33,36,17)        165.1356         estimate D2E/DX2                !
 ! D366  D(34,33,36,37)         47.1327         estimate D2E/DX2                !
 ! D367  D(34,33,36,38)        -94.4331         estimate D2E/DX2                !
 ! D368  D(17,36,37,13)         -8.4318         estimate D2E/DX2                !
 ! D369  D(24,36,37,13)         48.6796         estimate D2E/DX2                !
 ! D370  D(25,36,37,13)        100.6314         estimate D2E/DX2                !
 ! D371  D(33,36,37,13)        108.3172         estimate D2E/DX2                !
 ! D372  D(35,36,37,13)       -171.7891         estimate D2E/DX2                !
 ! D373  D(38,36,37,13)        -97.67           estimate D2E/DX2                !
 --------------------------------------------------------------------------------
 Trust Radius=3.00D-01 FncErr=1.00D-07 GrdErr=1.00D-06 EigMax=2.50D+02 EigMin=1.00D-04
 Number of steps in this run=    228 maximum allowed number of steps=    228.
 GradGradGradGradGradGradGradGradGradGradGradGradGradGradGradGradGradGrad

                          Input orientation:                          
 ---------------------------------------------------------------------
 Center     Atomic      Atomic             Coordinates (Angstroms)
 Number     Number       Type             X           Y           Z
 ---------------------------------------------------------------------
      1         42           0        0.187700    1.494801   12.124477
      2         16           0        1.063640    3.661842   12.427494
      3         16           0       -2.024032    1.849884   12.728483
      4         16           0       -0.145566    0.971965    9.806955
      5         16           0        2.222464   -0.006988   11.738238
      6         42           0       -1.996178    2.368530   10.401083
      7         16           0       -2.598060    1.876103    8.060584
      8         16           0       -1.298991    4.514381   10.373865
      9         42           0        0.894599    3.173407   10.046203
     10         16           0        0.377800    3.285267    7.552055
     11         16           0        2.978554    2.096215    9.315799
     12         42           0        2.928277    2.422214   11.672470
     13         42           0       -1.930044    4.240855    8.017103
     14         16           0        3.816874    2.144415   14.060868
     15         16           0        4.415276    4.271205   11.660824
     16         16           0       -3.980121    5.298221    8.338564
     17         16           0       -0.883784    6.651553    7.846268
     18         42           0       -4.461063    3.076270    8.735842
     19         16           0       -6.195945    2.457282    7.684551
     20         16           0       -4.463064    2.771531   10.941131
     21         42           0        2.432032    0.405738   13.997920
     22         16           0        3.186123   -1.238143   15.104030
     23         16           0        0.404469    1.016168   14.653818
     24         42           0        1.130834    5.536802    7.148103
     25         16           0        0.886353    4.929622    4.834529
     26         16           0        1.532137    5.584550    9.735963
     27         42           0        3.478777    4.452071    9.531101
     28         16           0        3.544892    4.301566    7.027111
     29         16           0        4.892645    6.525363    9.467285
     30         42           0        4.299913    6.424578    7.343013
     31         16           0        5.976207    6.875280    6.144050
     32         16           0        2.413224    7.807636    7.037562
     33         42           0        1.659125    7.120293    4.846449
     34         16           0        3.176780    7.120287    3.352532
     35         16           0       -0.244843    8.232390    4.338272
     36         42           0       -1.005320    6.311617    5.569485
     37         16           0       -2.284539    4.230132    5.412305
     38         16           0       -3.203667    7.334447    5.503737
 ---------------------------------------------------------------------
                    Distance matrix (angstroms):
                    1          2          3          4          5
     1  Mo   0.000000
     2  S    2.356938   0.000000
     3  S    2.320057   3.592702   0.000000
     4  S    2.399027   3.945230   3.582555   0.000000
     5  S    2.558284   3.908742   4.739334   3.208702   0.000000
     6  Mo   2.915958   3.891206   2.384651   2.393355   5.022749
     7  S    4.941769   5.972170   4.703135   3.143565   6.348907
     8  S    3.793779   3.244417   3.628974   3.768353   5.891090
     9  Mo   2.763448   2.436738   4.179084   2.446534   3.839417
    10  S    4.914158   4.937822   5.884261   3.272591   5.636121
    11  S    4.004902   3.975013   6.060772   3.356382   3.295959
    12  Mo   2.928339   2.362966   5.095889   3.877097   2.530518
    13  Mo   5.375516   5.361805   5.284191   4.132018   7.009589
    14  S    4.164434   3.542710   5.998181   5.930543   3.544755
    15  S    5.078956   3.491786   6.961852   5.926474   4.808051
    16  S    6.794842   6.696014   5.915125   5.964602   8.841668
    17  S    6.785517   5.806760   6.942061   6.053675   8.314588
    18  Mo   5.966145   6.670347   4.835734   4.919237   7.949239
    19  S    7.835192   8.754887   6.573815   6.581630   9.663054
    20  S    4.965879   5.791924   3.161161   4.813064   7.283669
    21  Mo   3.119755   3.865352   4.853198   4.952657   2.306604
    22  S    5.033613   5.973159   6.505755   6.636545   3.711191
    23  S    2.583340   3.520031   3.209301   4.878173   3.585047
    24  Mo   6.480090   5.602853   7.395078   5.434743   7.279739
    25  S    8.088847   7.700118   8.959332   6.438395   8.591653
    26  S    4.923267   3.340754   5.962319   4.908734   5.979210
    27  Mo   5.128570   3.853108   6.875721   5.032206   5.131567
    28  S    6.718021   5.977457   8.338423   5.695020   6.519752
    29  S    7.382664   5.623510   8.963032   7.505943   7.413414
    30  Mo   8.004711   6.630092   9.482795   7.454145   8.062186
    31  S    9.910695   8.598905  11.515780   9.259703   9.630739
    32  S    8.407232   6.932557   9.357918   7.806622   9.121463
    33  Mo   9.315629   8.353905  10.171987   8.103423   9.930370
    34  S   10.841020   9.938870  11.947136   9.513118  11.046666
    35  S   10.305687   9.382833  10.691003   9.090111  11.346121
    36  Mo   8.221492   7.637682   8.496828   6.870750   9.401961
    37  S    7.658150   7.793981   7.698046   5.873994   8.847807
    38  S    9.457116   8.923920   9.147072   8.267457  11.054798
                    6          7          8          9         10
     6  Mo   0.000000
     7  S    2.466309   0.000000
     8  S    2.256432   3.741572   0.000000
     9  Mo   3.021648   4.221889   2.591797   0.000000
    10  S    3.820097   3.331679   3.504991   2.549582   0.000000
    11  S    5.099015   5.720370   5.026373   2.456970   3.359845
    12  Mo   5.086213   6.624527   4.892171   2.710144   4.922155
    13  Mo   3.032051   2.457679   2.455071   3.638035   2.540780
    14  S    6.872833   8.787877   6.736676   5.071100   7.449391
    15  S    6.805429   8.239243   5.862444   4.025833   5.844251
    16  S    4.095498   3.701116   3.456199   5.585137   4.864366
    17  S    5.109676   5.078346   3.335963   4.483287   3.606943
    18  Mo   3.057709   2.316712   3.840571   5.514490   4.985943
    19  S    5.002546   3.663870   5.953505   7.507733   6.627008
    20  S    2.557262   3.546489   3.656593   5.446738   5.931587
    21  Mo   6.033145   7.919328   6.628367   5.063572   7.352600
    22  S    7.872868   9.631481   8.693805   7.091859   9.240143
    23  S    5.067321   7.295574   5.784226   5.111167   7.455505
    24  Mo   5.513441   5.304525   4.165925   3.747056   2.408246
    25  S    6.771610   5.645577   5.969288   5.499628   3.216749
    26  S    4.820184   5.798103   3.093132   2.513228   3.374707
    27  Mo   5.922258   6.762099   4.851928   2.928871   3.859289
    28  S    6.769326   6.684818   5.891456   4.172734   3.367329
    29  S    8.099822   8.927771   6.572845   5.249298   5.877938
    30  Mo   8.089752   8.293706   6.647003   5.428951   5.028115
    31  S   10.099111  10.108557   8.740348   7.399554   6.798002
    32  S    7.767881   7.832153   5.979715   5.730115   4.985928
    33  Mo   8.172787   7.480362   6.789223   6.572659   4.865133
    34  S    9.950918   9.111311   8.724815   8.098854   6.338585
    35  S    8.614506   7.732763   7.166813   7.711816   5.932125
    36  Mo   6.314592   5.330683   5.137934   5.787837   3.873293
    37  S    5.332600   3.557124   5.066476   5.718094   3.543917
    38  S    7.078302   6.057866   5.941272   7.398921   5.780862
                   11         12         13         14         15
    11  S    0.000000
    12  Mo   2.379643   0.000000
    13  Mo   5.511844   6.346058   0.000000
    14  S    4.818795   2.563439   8.599373   0.000000
    15  S    3.506265   2.372777   7.317152   3.262136   0.000000
    16  S    7.722110   8.192210   2.328986  10.172728   9.087071
    17  S    6.150470   6.859952   2.633498   9.001763   6.949599
    18  Mo   7.526271   7.978341   2.877308   9.886784   9.421931
    19  S    9.325383   9.957718   4.635691  11.874841  11.476022
    20  S    7.646923   7.435644   4.138242   8.870367   9.032824
    21  Mo   5.007859   3.117716   8.337026   2.223679   4.933266
    22  S    6.683161   5.023973  10.315964   3.595516   6.612065
    23  S    6.023858   4.151507   7.739156   3.642669   5.969912
    24  Mo   4.466611   5.779391   3.435639   8.155331   5.723106
    25  S    5.699761   7.563993   4.305261  10.073265   7.712659
    26  S    3.799624   3.962277   4.092272   5.979913   3.707082
    27  Mo   2.417982   3.001471   5.620689   5.094936   2.333552
    28  S    3.228375   5.048915   5.564054   7.362134   4.714847
    29  S    4.827426   5.055434   7.339693   6.438245   3.181308
    30  Mo   4.936861   6.053470   6.635918   7.980144   4.826367
    31  S    6.471891   7.725484   8.541506   9.472054   6.297024
    32  S    6.174973   7.123933   5.704858   9.130670   6.155413
    33  Mo   6.852543   8.383153   5.588054  10.692089   7.883488
    34  S    7.800073   9.557982   7.491929  11.825290   8.870110
    35  S    8.533388   9.880147   5.683841  12.169218   9.540831
    36  Mo   6.904762   8.236933   3.336765  10.617095   8.405388
    37  S    6.891373   8.344560   2.628831  10.787729   9.161506
    38  S    8.954929   9.989196   4.184428  12.224930  10.263599
                   16         17         18         19         20
    16  S    0.000000
    17  S    3.414845   0.000000
    18  Mo   2.307856   5.135262   0.000000
    19  S    3.661768   6.770311   2.120890   0.000000
    20  S    3.659338   6.119150   2.226246   3.702289   0.000000
    21  Mo   9.852939   9.372708   9.073917  10.886204   7.904637
    22  S   11.825846  11.466759  10.846540  12.519107   9.587350
    23  S    8.800173   8.930840   7.933465   9.706336   6.368534
    24  Mo   5.253188   2.405990   6.312246   7.965734   7.302430
    25  S    6.008053   3.894740   6.873865   8.024589   8.400250
    26  S    5.693830   3.247479   6.573443   8.585531   6.731117
    27  Mo   7.600873   5.168009   8.097304  10.049337   8.239250
    28  S    7.703184   5.080022   8.277465   9.935669   9.043667
    29  S    9.028060   6.000896   9.996154  11.945051  10.187874
    30  Mo   8.415389   5.213012   9.481869  11.225824  10.152880
    31  S   10.316563   7.071568  11.405545  13.040442  12.199636
    32  S    6.990324   3.586195   8.516208  10.156903   9.374622
    33  Mo   6.878656   3.960431   8.302903   9.565596   9.671509
    34  S    8.910762   6.074665  10.181883  11.329518  11.613171
    35  S    6.209991   3.900427   7.981272   8.942319   9.550503
    36  Mo   4.188581   2.305226   5.695213   6.802352   7.303614
    37  S    3.546661   3.708041   4.136974   4.858518   6.118938
    38  S    3.575660   3.366846   5.491777   6.123432   7.209129
                   21         22         23         24         25
    21  Mo   0.000000
    22  S    2.120018   0.000000
    23  S    2.216718   3.608630   0.000000
    24  Mo   8.656843  10.649923   8.792013   0.000000
    25  S   10.335492  12.198070  10.581388   2.404384   0.000000
    26  S    6.767140   8.837474   6.806398   2.619226   4.986985
    27  Mo   6.117267   7.970051   6.891954   3.516839   5.385769
    28  S    8.062761   9.800700   8.878218   2.714429   3.502813
    29  S    8.001942   9.744595   8.797447   4.528474   6.329233
    30  Mo   9.165326  10.963175   9.893091   3.296847   4.492191
    31  S   10.774944  12.405380  11.738382   5.126137   5.604199
    32  S   10.160464  12.144604  10.400312   2.610255   3.932894
    33  Mo  11.376821  13.319653  11.619767   2.843263   2.323006
    34  S   12.608097  14.420858  13.140207   4.593439   3.498769
    35  S   12.717348  14.743272  12.605791   4.129629   3.526209
    36  Mo  10.850498  12.863694  10.609165   2.766862   2.455300
    37  S   10.515932  12.399988  10.147211   4.047858   3.298131
    38  S   12.325553  14.369563  11.690307   4.972260   4.791585
                   26         27         28         29         30
    26  S    0.000000
    27  Mo   2.261390   0.000000
    28  S    3.610417   2.509380   0.000000
    29  S    3.500047   2.510306   3.565973   0.000000
    30  Mo   3.753990   3.058231   2.275309   2.207718   0.000000
    31  S    5.858121   4.856049   3.648985   3.512896   2.109646
    32  S    3.605523   4.314274   3.684197   3.700717   2.359183
    33  Mo   5.126595   5.690036   4.031951   5.671130   3.700083
    34  S    6.768422   6.736861   4.645775   6.378741   4.203496
    35  S    6.269273   7.424394   6.086323   7.457513   5.740336
    36  Mo   4.932226   6.265735   5.183571   7.072802   5.594967
    37  S    5.924144   7.087281   6.049377   8.557039   7.204043
    38  S    6.587998   8.317620   7.553945   9.050668   7.779107
                   31         32         33         34         35
    31  S    0.000000
    32  S    3.789789   0.000000
    33  Mo   4.514532   2.417040   0.000000
    34  S    3.960984   3.825560   2.129569   0.000000
    35  S    6.618462   3.812073   2.262763   3.730410   0.000000
    36  Mo   7.027771   4.009958   2.876805   4.801957   2.404907
    37  S    8.704722   6.124457   4.921962   6.513192   4.618655
    38  S    9.213627   5.841746   4.911684   6.736739   3.304429
                   36         37         38
    36  Mo   0.000000
    37  S    2.448201   0.000000
    38  S    2.425538   3.238816   0.000000
 Symmetry turned off by external request.
 Stoichiometry    Mo12S26
 Framework group  C1[X(Mo12S26)]
 Deg. of freedom   108
 Full point group                 C1      NOp   1
 Rotational constants (GHZ):           0.0295767           0.0194710           0.0126799
 General basis read from cards:  (5D, 7F)
 ======================================================================================================
                                       Pseudopotential Parameters
 ======================================================================================================
  Center     Atomic      Valence      Angular      Power
  Number     Number     Electrons     Momentum     of R      Exponent        Coefficient   SO-Coeffient
 ======================================================================================================
    1         42           14
                                      F and up 
                                                     0      537.9667807       -0.04694920    0.00000000
                                                     1      147.8982938      -20.20800840    0.00000000
                                                     2       45.7358898     -106.21163020    0.00000000
[...]
 6209,-0.00234654,0.00253195,0.00008640,0.00019938,-0.00008461,-0.00061
 545,0.00077166,-0.00190439,-0.00034334,0.00054235,-0.00059077,0.001071
 00,0.00037312,-0.00126255,-0.00577666,-0.00187460,0.00857454,0.0006292
 7,0.00041102,-0.00473951,0.00406560,-0.00061371,0.00177334,-0.16770370
 ,-0.00145630,0.11896772,0.17611208,-0.00000909,-0.00000762,-0.00000135
 ,-0.00001530,-0.00000154,-0.00003336,0.00000252,0.00000012,-0.00000515
 ,0.00002474,-0.00001994,-0.00000826,-0.00000411,-0.00000813,0.00000065
 ,0.00000017,0.00002043,-0.00000307,-0.00001009,-0.00002819,-0.00001370
 ,-0.00001333,0.00001678,0.00004522,0.00008149,0.00014823,0.00008555,0.
 00015713,-0.00026234,-0.00068423,0.00011351,0.00002570,0.00003075,-0.0
 0001438,-0.00003296,0.00000012,-0.00009487,0.00042438,0.00009269,0.000
 00542,0.00001728,-0.00000992,0.00000283,-0.00000905,-0.00000650,0.0000
 6288,0.00003470,0.00001756,-0.00014164,0.00011227,-0.00019506,0.000012
 54,-0.00002641,-0.00002160,0.00002070,0.00001249,0.00000700,0.00001722
 ,-0.00000326,0.00001266,0.00000226,-0.00001647,-0.00000342,-0.00000574
 ,0.00001605,-0.00000869,-0.00000434,0.00000343,-0.00000037,-0.00130174
 ,0.00223841,-0.00043572,-0.00497289,0.00161684,0.00303081,-0.00005407,
 -0.00015355,0.00006753,-0.00013716,-0.00000419,-0.00002570,-0.00003563
 ,0.00018143,-0.00006646,0.00010000,-0.00013218,0.00009298,-0.00050505,
 0.00048659,-0.00104702,0.00074204,0.00050708,0.00024099,0.00183247,-0.
 00080468,0.00002306,-0.00018444,-0.01953820,0.00862831,0.00454090,0.01
 136884,0.00003297,-0.00002001,-0.00007476,-0.00000752,0.00000528,-0.00
 003738,0.00000967,0.00003784,-0.00006481,0.00001291,-0.00002702,0.0000
 2397,-0.00003644,0.00001352,0.00000550,-0.00008059,-0.00017644,0.00006
 544,0.00011578,0.00000976,-0.00008130,0.00003119,0.00009230,-0.0001225
 8,-0.00007353,0.00007503,0.00015908,-0.00005858,-0.00012461,-0.0006009
 0,0.00005659,-0.00002070,0.00001738,0.00003630,-0.00001013,0.00002476,
 -0.00002249,0.00064342,0.00014433,0.00000733,0.00002388,-0.00004077,-0
 .00007764,0.00006734,-0.00008933,0.00007487,0.00007689,-0.00006015,0.0
 0001657,-0.00016606,0.00087049,-0.00023191,-0.00017709,0.00014023,0.00
 016238,0.00005409,0.00007609,-0.00002115,0.00002751,-0.00008159,0.0001
 0912,-0.00017244,0.00008169,-0.00006888,0.00014635,-0.00008031,-0.0000
 1419,0.00000805,-0.00002168,-0.00175745,0.00167382,-0.00021455,0.00083
 797,0.00350592,0.00040373,0.00017522,-0.00000812,0.00012564,0.00012663
 ,0.00030328,0.00028750,0.00023498,0.00007429,-0.00036621,0.00051877,-0
 .00029544,0.00051562,0.00349454,0.00145438,-0.00105241,-0.00494754,-0.
 00098336,-0.00017159,0.00225507,-0.00186198,-0.00393677,0.11644509,0.0
 0954344,-0.11336804,-0.12530877,-0.00464244,0.11001611,-0.00018524,0.0
 0025109,0.00021569,-0.00005607,-0.00005385,0.00005414,0.00001207,-0.00
 007139,0.00005740,0.00001423,0.00004596,-0.00022786,0.00009981,0.00002
 530,-0.00003015,0.00000064,0.00051126,-0.00001591,-0.00037684,0.000006
 93,0.00027372,-0.00025918,-0.00033343,0.00042254,0.00055859,0.00076641
 ,-0.00031151,-0.00036505,0.00008118,0.00178321,0.00014837,0.00002228,0
 .00011310,-0.00015799,-0.00044432,-0.00000556,0.00046071,-0.00333682,-
 0.00186156,0.00001537,0.00002216,-0.00003117,-0.00005499,0.00005547,0.
 00001707,-0.00007127,-0.00027736,-0.00009996,-0.00179352,0.00047925,-0
 .00085141,-0.00006124,-0.00024024,-0.00027123,0.00007299,0.00004424,0.
 00007143,0.00005421,-0.00000947,0.00012622,-0.00012704,-0.00014947,0.0
 0004894,-0.00001849,0.00006970,-0.00003423,0.00000717,0.00000923,-0.00
 000182,0.00860312,-0.00174183,-0.00322666,0.00520575,0.00090108,0.0023
 6389,-0.00086432,0.00061446,0.00019603,0.00053427,-0.00052643,-0.00102
 530,-0.00005220,-0.00045563,0.00071417,0.00000010,0.00012741,-0.000238
 56,-0.00066170,-0.00150996,0.00108844,0.00048599,0.00007782,-0.0003932
 8,-0.00243639,0.00037272,-0.00336271,-0.13573239,0.09574111,-0.0435378
 6,-0.00878357,-0.00099651,0.00660015,0.14527600,0.00001970,-0.00007426
 ,-0.00003662,-0.00001506,-0.00000457,-0.00002300,0.00000382,-0.0000052
 7,0.00001556,0.00002039,-0.00000782,0.00005253,-0.00000704,-0.00001027
 ,-0.00000542,0.00002326,-0.00008012,0.00002061,0.00012671,0.00000755,0
 .00023213,0.00000515,0.00009842,0.00001663,-0.00025977,-0.00012982,0.0
 0015232,0.00029222,0.00025003,-0.00030322,-0.00000520,-0.00001670,-0.0
 0004900,0.00006371,0.00002196,0.00000220,0.00137243,-0.00018159,-0.000
 58899,0.00000456,-0.00000184,0.00001124,0.00000287,-0.00000471,-0.0000
 2360,-0.00000266,-0.00001078,0.00004947,-0.00016088,0.00091741,0.00055
 363,0.00012319,0.00014235,-0.00008074,-0.00009165,-0.00003441,-0.00003
 159,-0.00001993,-0.00000887,0.00002868,-0.00003618,0.00008484,-0.00004
 756,0.00003188,-0.00006819,0.00003491,0.00000610,0.00000413,0.00001630
 ,-0.00127070,-0.00197784,0.00132260,0.00340026,-0.00889243,0.00078942,
 -0.00003932,-0.00007973,0.00000080,0.00012363,0.00009760,0.00017061,-0
 .00022877,0.00030659,0.00000460,-0.00001140,-0.00010860,0.00043062,0.0
 0048530,0.00103365,-0.00084675,-0.00041201,-0.00032614,0.00041187,-0.0
 0010165,0.00121271,0.00329314,0.09733479,-0.09428859,0.04185172,0.0045
 0563,0.00421622,-0.00773978,-0.09778372,0.10903641,-0.00008493,0.00008
 627,0.00010405,-0.00005569,-0.00001673,0.00003316,0.00001161,-0.000027
 29,-0.00000408,0.00001382,0.00004732,-0.00002385,0.00004865,0.00001883
 ,-0.00000671,0.00006507,0.00016877,0.00002762,-0.00011219,0.00015917,-
 0.00004996,-0.00006984,0.00000039,0.00012737,0.00033698,0.00004719,-0.
 00011539,-0.00013214,-0.00001692,-0.00028273,0.00004198,-0.00001051,0.
 00008221,-0.00006266,-0.00016049,-0.00006735,0.00089125,-0.00183250,0.
 00171778,0.00000697,0.00000538,-0.00001256,-0.00005607,0.00002100,-0.0
 0003743,0.00003529,-0.00004202,-0.00007397,-0.00030564,0.00101183,-0.0
 0036245,-0.00003769,0.00002036,-0.00009095,0.00001247,0.00001964,0.000
 00207,0.00005371,-0.00002202,0.00004727,-0.00006685,-0.00006548,0.0000
 3342,-0.00000923,0.00002694,-0.00001472,0.00000950,0.00000157,0.000001
 72,-0.00096360,0.00170255,-0.00113420,0.00100188,-0.00074702,0.0003718
 6,0.00010329,0.00001570,0.00014560,0.00035340,0.00001250,0.00007626,-0
 .00031761,-0.00012273,0.00038624,0.00004388,-0.00012377,-0.00010564,-0
 .00051260,0.00040213,0.00042288,0.00032478,-0.00013516,0.00016825,-0.0
 0287871,0.00198670,-0.00020536,-0.03800302,0.04319065,-0.03293171,-0.0
 0215250,-0.00611417,0.00714947,0.04186102,-0.04591845,0.03118229,0.000
 17182,-0.00022802,-0.00023948,0.00004017,0.00003091,-0.00022113,-0.000
 04964,-0.00003204,0.00002489,-0.00000194,-0.00013679,0.00028398,-0.000
 04452,-0.00006809,0.00002676,0.00031498,-0.00024277,-0.00087128,-0.000
 16718,-0.00113685,0.00007053,0.00002334,0.00044779,-0.00095603,-0.0011
 2740,-0.00108082,0.00108246,-0.00206305,0.00240624,-0.00342068,-0.0000
 5501,0.00000985,-0.00024999,0.00023362,0.00063776,-0.00013237,-0.00002
 291,0.00163953,0.02534412,-0.00002221,-0.00005469,0.00006608,0.0002632
 9,-0.00007782,0.00076622,-0.00082077,-0.00044160,0.00114602,-0.0107616
 5,-0.00586832,-0.01353853,0.00114587,-0.00045889,0.00084147,-0.0006623
 4,-0.00032127,-0.00036167,-0.00039014,0.00015430,-0.00014460,0.0000677
 8,0.00037527,-0.00017138,0.00009845,-0.00023142,0.00012214,-0.00003737
 ,-0.00001163,0.00002133,-0.00851256,-0.00369372,-0.00879070,-0.0410764
 3,0.02311400,0.01686416,-0.00120401,0.00074298,0.00060245,-0.00080964,
 -0.00011168,-0.00136188,-0.00038565,-0.00012150,0.00007302,0.00012574,
 0.00008588,0.00011524,-0.00070098,0.00007621,0.00020985,0.00006510,0.0
 0005560,-0.00004739,0.00038887,0.00083618,0.00126871,-0.01918450,-0.00
 538438,-0.00138926,-0.00073713,0.00014864,0.00200973,0.00079506,-0.001
 19938,-0.00156937,0.26479697,0.00006630,-0.00021713,-0.00021490,0.0000
 4663,0.00012988,-0.00032218,-0.00003221,0.00027945,-0.00032216,-0.0000
 5038,-0.00010636,0.00025181,-0.00005039,0.00002193,-0.00000594,-0.0003
 4275,-0.00157951,0.00030809,-0.00278092,-0.00091312,0.00054123,0.00029
 213,0.00054507,-0.00313573,-0.00035797,-0.00060670,0.00109013,-0.00105
 571,0.00162316,-0.00271197,0.00000679,-0.00010375,0.00000183,0.0000704
 5,0.00021273,-0.00022864,0.00606949,-0.01230103,0.04464163,0.00000428,
 0.00007725,-0.00006107,-0.00014208,0.00003908,-0.00022029,0.00148081,0
 .00032085,-0.00217287,-0.00117555,-0.01582702,-0.03226475,-0.00062295,
 -0.00261793,-0.00040414,0.00050279,0.00038601,0.00004786,0.00017449,0.
 00017891,-0.00002206,0.00026829,-0.00034644,0.00010699,-0.00015308,0.0
 0032084,-0.00017281,-0.00010957,0.00004486,-0.00004693,-0.01276569,-0.
 00455980,0.00549735,0.02099229,-0.02574374,-0.01330797,0.00145033,-0.0
 0021572,-0.00141264,0.00025541,-0.00103816,0.00189409,0.00136607,0.001
 64534,0.00073188,0.00009537,-0.00028664,0.00027123,0.00173004,0.000882
 18,-0.00272421,-0.00071917,-0.00014029,0.00067444,-0.00053506,0.000221
 66,0.00047048,-0.02202929,0.02004028,-0.00470528,0.00084525,-0.0001517
 9,-0.00164674,0.01739180,-0.01068422,0.00428277,-0.05825462,0.20674268
 ,0.00049270,-0.00035599,-0.00047794,0.00014487,0.00014901,-0.00017593,
 -0.00016390,0.00014250,-0.00013916,0.00004910,-0.00009664,0.00012242,-
 0.00019525,-0.00010525,0.00004122,-0.00061008,-0.00092047,-0.00081012,
 -0.00108854,-0.00066421,0.00161052,0.00076134,0.00082896,-0.00195050,-
 0.00085100,-0.00051933,0.00081844,-0.00242949,0.00313296,-0.00136234,-
 0.00008961,0.00011015,-0.00014130,0.00025787,0.00078411,0.00016591,0.0
 0805189,0.02501287,-0.04544747,-0.00002110,0.00000370,0.00006736,0.000
 36092,-0.00021083,0.00079039,0.00095320,0.00198152,-0.00146179,-0.0142
 1348,-0.02534605,-0.12784945,0.00002662,-0.00121238,0.00009697,-0.0000
 5883,-0.00000190,-0.00016760,-0.00008913,0.00014271,-0.00010423,0.0002
 5212,0.00031283,-0.00017518,0.00005411,-0.00014830,0.00008225,-0.00004
 234,-0.00002683,0.00001373,-0.00629811,0.00351247,-0.00192636,0.030544
 33,-0.01456664,-0.01998567,0.00062030,0.00055142,-0.00186856,-0.000803
 26,-0.00097854,-0.00132304,0.00160577,0.00004352,0.00064418,0.00018948
 ,0.00007064,0.00011371,-0.00039942,-0.00134855,-0.00007872,0.00032564,
 0.00025627,-0.00026052,-0.00194453,-0.00127359,-0.00255546,0.01008528,
 -0.00657689,0.00242518,-0.00031557,0.00118707,0.00063337,-0.00377459,0
 .00635125,-0.00958965,0.04463705,-0.01089688,0.26575625,0.00011432,-0.
 00046272,-0.00019097,0.00011088,0.00007251,-0.00045918,0.00002099,0.00
 045053,-0.00042899,-0.00009860,-0.00000739,0.00029777,-0.00003459,-0.0
 0002757,-0.00006224,-0.00103697,-0.00235688,0.00096039,0.00079089,-0.0
 0030970,0.00279212,0.00012097,0.00229752,-0.00247932,-0.00122252,0.000
 18529,0.00115392,-0.00752649,0.00252592,-0.00726836,0.00002510,-0.0000
 1601,0.00009443,0.00029584,0.00022217,0.00012627,-0.01573387,-0.010248
 81,-0.03070162,0.00000749,0.00002577,-0.00000796,-0.00003743,-0.000111
 81,0.00006678,-0.00272429,0.00009946,0.00545792,0.00276931,-0.00146803
 ,-0.00088089,0.00006230,0.00266877,-0.00071837,-0.00022775,-0.00004056
 ,0.00010878,0.00046625,-0.00059801,0.00044493,0.00007246,-0.00003856,-
 0.00003238,-0.00003600,0.00006121,-0.00004445,-0.00005557,0.00005358,-
 0.00001753,-0.00136135,0.00043175,-0.00079654,-0.00960252,-0.00292177,
 0.00201762,0.00008910,-0.00011180,0.00018032,-0.00022886,-0.00003260,-
 0.00026432,0.00022999,0.00019638,0.00002402,0.00001790,0.00010185,0.00
 001828,0.00015280,-0.00002234,-0.00015093,-0.00003625,-0.00001057,0.00
 005531,0.00027066,-0.00022192,-0.00029596,-0.00017912,-0.00000894,0.00
 022463,-0.00007917,-0.00000997,-0.00013276,0.00055726,-0.00028502,0.00
 065669,-0.02677272,-0.04173909,-0.00629749,0.05876246,0.00033088,-0.00
 001412,0.00013189,-0.00002880,-0.00004390,0.00050388,-0.00007134,0.000
 26738,-0.00020373,-0.00007497,-0.00001958,-0.00017872,-0.00003712,-0.0
 0001809,-0.00000812,-0.00058523,-0.00237059,0.00061546,0.00183448,-0.0
 0104757,0.00670476,0.00023046,0.00154381,-0.00047121,0.00068915,0.0002
 7133,-0.00143116,0.00421609,-0.00105927,0.00756245,-0.00004409,0.00007
 902,-0.00009646,-0.00019288,0.00001142,0.00021067,-0.01325398,-0.01806
 189,-0.03409661,-0.00002105,-0.00005110,0.00002240,0.00005053,-0.00005
 723,0.00004332,0.00168051,-0.00015267,-0.00105010,-0.00422571,-0.00042
 534,-0.00143988,-0.00004698,0.00013963,0.00056157,0.00002833,0.0001596
 7,0.00025844,-0.00003781,0.00004060,-0.00016743,0.00007527,0.00002879,
 0.00003758,-0.00000224,-0.00000963,0.00001250,0.00003360,-0.00004973,0
 .00000056,-0.00005697,-0.00114427,-0.00059411,-0.00450981,0.00105940,0
 .00062302,-0.00005458,0.00011359,0.00001375,-0.00023837,0.00024328,-0.
 00053806,0.00018385,0.00025697,0.00008386,0.00003273,0.00008949,-0.000
 05325,0.00028496,-0.00021499,-0.00001836,0.00005759,0.00001110,0.00002
 162,0.00018703,-0.00050932,0.00000879,0.00109319,-0.00231899,0.0010676
 1,-0.00012693,-0.00018925,0.00019931,-0.00510822,-0.00130703,0.0026451
 0,-0.03188453,-0.08823386,-0.01293141,0.04542236,0.12536442,0.00021766
 ,-0.00037654,-0.00014038,-0.00004901,0.00007732,-0.00041897,-0.0000767
 3,0.00031614,-0.00045523,-0.00009498,-0.00016496,-0.00004049,-0.000026
 48,-0.00000754,-0.00008529,-0.00081856,-0.00264546,-0.00157051,-0.0010
 7713,0.00348194,-0.00371840,0.00112659,0.00445224,-0.00836664,0.000322
 30,-0.00013933,0.00185770,-0.00927805,0.00460084,-0.00372424,-0.000000
 80,-0.00018188,0.00009011,0.00000270,0.00017820,-0.00018866,-0.0253878
 1,-0.02973387,-0.11165666,0.00001767,0.00005223,-0.00001008,-0.0000840
 5,0.00001182,0.00002104,0.00496245,-0.00116234,-0.00545577,-0.00221989
 ,-0.00205027,-0.00066532,0.00012709,-0.00354813,-0.00154349,0.00056923
 ,0.00034666,0.00020605,0.00001029,0.00050856,-0.00022889,0.00007317,-0
 .00013008,0.00002772,-0.00007306,0.00011950,-0.00006710,-0.00005807,0.
 00000862,-0.00000747,-0.00086388,-0.00118006,-0.00191791,0.00450827,0.
 00392331,0.00136063,-0.00000722,0.00001722,0.00005017,-0.00007494,-0.0
 0040257,0.00046705,0.00017833,-0.00020575,0.00021511,0.00006003,-0.000
 07118,0.00011031,-0.00017375,0.00031248,-0.00040909,-0.00013645,-0.000
 02092,0.00011812,0.00010349,0.00045407,-0.00000021,0.00173045,0.001552
 41,-0.00026858,-0.00001462,-0.00000005,-0.00010386,0.00157974,-0.00037
 435,0.00075928,-0.01198090,-0.01231537,-0.00986064,0.03479891,0.027628
 27,0.14609185,-0.00012291,0.00012950,0.00012259,-0.00006688,-0.0000276
 8,0.00007264,0.00000428,0.00007202,-0.00016981,0.00003921,0.00000625,-
 0.00008351,0.00003869,0.00006087,-0.00000560,-0.00016158,-0.00032190,0
 .00063893,0.00036712,0.00027897,0.00006565,-0.00013451,-0.00013096,-0.
 00022580,0.00063362,0.00029486,-0.00023546,0.00037491,-0.00074674,0.00
 010571,0.00002676,-0.00005725,0.00009651,-0.00011162,-0.00025255,-0.00
 005727,0.00192193,0.00113892,-0.00440923,0.00000728,0.00003636,-0.0000
 5553,-0.00019481,0.00007906,-0.00029919,0.00033418,-0.00070072,-0.0005
 0621,-0.00101433,0.00075588,-0.00267123,-0.00082370,0.00019395,-0.0005
 1847,0.00043045,0.00029471,0.00025976,0.00019741,-0.00005649,0.0002007
 4,0.00003410,-0.00034948,0.00016521,-0.00010966,0.00024273,-0.00012794
 ,-0.00000588,0.00001415,-0.00003528,-0.00568157,0.00170465,-0.00409987
 ,-0.00300706,0.00364977,0.00241616,0.00031140,-0.00012929,-0.00017697,
 0.00088236,-0.00029177,0.00077900,-0.00040068,0.00001167,0.00054156,-0
 .00002320,-0.00006345,-0.00005404,0.00053851,0.00061380,-0.00015547,-0
 .00032372,-0.00010752,0.00019009,-0.00006504,-0.00007865,-0.00023853,0
 .00060831,-0.00136814,0.00092147,0.00005659,0.00064287,-0.00052440,-0.
 01084423,-0.00601529,0.00151809,-0.15292131,0.08980748,-0.05972690,0.0
 0205709,0.00417062,0.00210802,0.16714847,0.00016921,-0.00011179,-0.000
 06775,0.00007157,0.00002363,0.00003436,-0.00001582,-0.00005949,0.00017
 054,-0.00000443,-0.00000031,0.00005495,-0.00004724,-0.00004265,0.00002
 429,0.00014488,0.00017804,-0.00049589,0.00013936,0.00004120,0.00014976
 ,0.00019930,-0.00002476,0.00043552,-0.00040340,-0.00010659,-0.00012611
 ,0.00061723,-0.00046973,0.00088688,-0.00004437,0.00005527,-0.00011655,
 0.00000280,0.00018969,0.00005407,-0.00184936,-0.00105903,-0.00387060,-
 0.00001250,-0.00003605,0.00004635,0.00018741,-0.00003726,0.00022097,-0
 .00018367,0.00040883,0.00001387,-0.00038286,0.00126431,0.00308103,0.00
 040987,0.00001533,0.00051969,-0.00032735,-0.00021285,-0.00019224,-0.00
 018366,0.00008600,-0.00022294,-0.00001927,0.00026576,-0.00010693,0.000
 08535,-0.00018835,0.00010173,0.00002431,-0.00002868,0.00002966,0.00839
 647,0.00032850,0.00265577,0.00261563,0.00088616,-0.00124676,-0.0004235
 3,0.00038863,0.00035991,-0.00070462,0.00030194,-0.00089486,0.00037612,
 -0.00024800,-0.00025078,0.00001414,0.00012543,0.00000218,-0.00045463,-
 0.00055466,0.00022172,0.00020608,0.00012851,-0.00015996,0.00006210,-0.
 00012057,0.00003469,0.00252729,-0.00290533,0.00170051,0.00037230,-0.00
 005750,0.00003666,-0.00457818,0.00087391,-0.00051749,0.08027969,-0.068
 03895,0.03360673,0.00623499,-0.01238150,0.00666886,-0.09350120,0.08112
 288,-0.00011726,0.00009915,0.00009742,-0.00001775,-0.00000650,-0.00004
 230,0.00002074,-0.00001012,-0.00003450,-0.00000992,0.00000314,-0.00004
 687,0.00004427,0.00003562,-0.00000788,0.00001881,0.00015584,0.00025746
 ,0.00008328,-0.00016823,-0.00025882,-0.00008061,-0.00017141,0.00024503
 ,0.00025736,0.00024274,0.00007909,-0.00006636,0.00001083,-0.00055320,0
 .00003539,-0.00004642,0.00007297,-0.00005014,-0.00020747,-0.00006843,-
 0.00281728,0.00131792,0.00238288,0.00000598,0.00001913,-0.00002438,-0.
 00010996,0.00006592,-0.00018657,-0.00029990,-0.00030095,0.00037853,-0.
 00253613,0.00263544,0.00125786,-0.00007692,0.00033478,-0.00013995,0.00
 018827,0.00008482,0.00009205,0.00008724,-0.00006514,0.00008928,-0.0000
 2616,-0.00016251,0.00005922,-0.00004467,0.00010349,-0.00005676,-0.0000
 1422,0.00002299,-0.00001754,-0.00165072,0.00100217,-0.00063184,-0.0085
 7238,0.00238987,0.00429553,-0.00007524,-0.00008841,-0.00011168,0.00048
 890,0.00002495,0.00037964,-0.00061895,-0.00017473,-0.00010306,-0.00004
 884,-0.00003893,-0.00010875,0.00013017,0.00045919,0.00015182,-0.000121
 77,-0.00007285,0.00002926,0.00010405,0.00040543,0.00037671,-0.00135743
 ,0.00209711,-0.00071727,-0.00026245,-0.00023673,-0.00017140,0.00171442
 ,0.00025623,0.00226991,-0.05012959,0.02850369,-0.04567025,0.00175118,0
 .00432181,-0.00047125,0.06417458,-0.04284184,0.03690803\\-0.00000076,-
 0.00001097,0.00000752,-0.00000123,0.00000791,-0.00000338,0.00000863,0.
 00001725,0.00000583,0.00001385,0.00000004,0.00000822,0.00001059,0.0000
 1033,-0.00000213,-0.00002015,-0.00000527,-0.00007013,-0.00000623,-0.00
 001322,0.00001480,0.00000140,-0.00000080,0.00001687,-0.00000214,-0.000
 02164,0.00001202,-0.00002702,-0.00003752,-0.00001089,0.00001110,0.0000
 1596,-0.00001534,-0.00002412,-0.00003522,0.00000693,0.00004930,0.00001
 611,-0.00001313,-0.00000094,0.00000489,-0.00000482,-0.00000866,0.00000
 445,-0.00000535,-0.00002272,-0.00000438,0.00000425,-0.00000355,-0.0000
 2851,-0.00000822,-0.00000086,0.00000424,0.00000766,-0.00000605,-0.0000
 0404,0.00001488,-0.00000184,0.00001095,0.00000631,0.00000447,0.0000015
 7,0.00000310,-0.00000287,-0.00000131,-0.00000102,-0.00000586,-0.000003
 45,-0.00000176,0.00004125,0.00007141,0.00002809,0.00001987,-0.00000539
 ,0.00002745,0.00000021,-0.00001634,0.00000610,0.00002050,0.00005491,0.
 00003443,-0.00000805,-0.00002102,-0.00002065,0.00000268,-0.00000843,-0
 .00000194,-0.00001327,-0.00001973,-0.00001133,0.00000140,-0.00000307,-
 0.00000098,-0.00000039,0.00000102,0.00000884,-0.00001468,-0.00002189,0
 .00000128,-0.00000575,0.00001252,0.00000015,0.00000870,-0.00000872,-0.
 00001722,0.00000126,0.00005128,-0.00004185,-0.00000756,0.00001620,-0.0
 0000546,-0.00001052,-0.00003010,0.00002086\\\@
 The archive entry for this job was punched.


 TRUTH, IN SCIENCE, CAN BE DEFINED AS THE WORKING HYPOTHESIS 
 BEST FITTED TO OPEN THE WAY TO THE NEXT BETTER ONE.

                              -- KONRAD LORENZ
 Job cpu time:       0 days 22 hours 47 minutes 22.8 seconds.
 Elapsed time:       0 days  0 hours 28 minutes 36.4 seconds.
 File lengths (MBytes):  RWF=   3242 Int=      0 D2E=      0 Chk=     50 Scr=      2
 Normal termination of Gaussian 16 at Mon Dec 19 17:46:29 2022.
