 Entering Gaussian System, Link 0=/apps/GAU16/avx2/g16/g16
 Initial command:
 /apps/GAU16/avx2//g16/l1.exe "/localscratch/chegho/Gau-83410.inp" -scrdir="/localscratch/chegho/"
 Entering Link 1 = /apps/GAU16/avx2//g16/l1.exe PID=     83411.
  
 Copyright (c) 1988-2019, Gaussian, Inc.  All Rights Reserved.
  
 This is part of the Gaussian(R) 16 program.  It is based on
 the Gaussian(R) 09 system (copyright 2009, Gaussian, Inc.),
 the Gaussian(R) 03 system (copyright 2003, Gaussian, Inc.),
 the Gaussian(R) 98 system (copyright 1998, Gaussian, Inc.),
 the Gaussian(R) 94 system (copyright 1995, Gaussian, Inc.),
 the Gaussian 92(TM) system (copyright 1992, Gaussian, Inc.),
 the Gaussian 90(TM) system (copyright 1990, Gaussian, Inc.),
 the Gaussian 88(TM) system (copyright 1988, Gaussian, Inc.),
 the Gaussian 86(TM) system (copyright 1986, Carnegie Mellon
 University), and the Gaussian 82(TM) system (copyright 1983,
 Carnegie Mellon University). Gaussian is a federally registered
 trademark of Gaussian, Inc.
  
 This software contains proprietary and confidential information,
 including trade secrets, belonging to Gaussian, Inc.
  
 This software is provided under written license and may be
 used, copied, transmitted, or stored only in accord with that
 written license.
  
 The following legend is applicable only to US Government
 contracts under FAR:
  
                    RESTRICTED RIGHTS LEGEND
  
 Use, reproduction and disclosure by the US Government is
 subject to restrictions as set forth in subparagraphs (a)
 and (c) of the Commercial Computer Software - Restricted
 Rights clause in FAR 52.227-19.
  
 Gaussian, Inc.
 340 Quinnipiac St., Bldg. 40, Wallingford CT 06492
  
  
 ---------------------------------------------------------------
 Warning -- This program may not be used in any manner that
 competes with the business of Gaussian, Inc. or will provide
 assistance to any competitor of Gaussian, Inc.  The licensee
 of this program is prohibited from giving any competitor of
 Gaussian, Inc. access to this program.  By using this program,
 the user acknowledges that Gaussian, Inc. is engaged in the
 business of creating and licensing software in the field of
 computational chemistry and represents and warrants to the
 licensee that it is not a competitor of Gaussian, Inc. and that
 it will not use this program in any manner prohibited above.
 ---------------------------------------------------------------
  

 Cite this work as:
 Gaussian 16, Revision C.01,
 M. J. Frisch, G. W. Trucks, H. B. Schlegel, G. E. Scuseria, 
 M. A. Robb, J. R. Cheeseman, G. Scalmani, V. Barone, 
 G. A. Petersson, H. Nakatsuji, X. Li, M. Caricato, A. V. Marenich, 
 J. Bloino, B. G. Janesko, R. Gomperts, B. Mennucci, H. P. Hratchian, 
 J. V. Ortiz, A. F. Izmaylov, J. L. Sonnenberg, D. Williams-Young, 
 F. Ding, F. Lipparini, F. Egidi, J. Goings, B. Peng, A. Petrone, 
 T. Henderson, D. Ranasinghe, V. G. Zakrzewski, J. Gao, N. Rega, 
 G. Zheng, W. Liang, M. Hada, M. Ehara, K. Toyota, R. Fukuda, 
 J. Hasegawa, M. Ishida, T. Nakajima, Y. Honda, O. Kitao, H. Nakai, 
 T. Vreven, K. Throssell, J. A. Montgomery, Jr., J. E. Peralta, 
 F. Ogliaro, M. J. Bearpark, J. J. Heyd, E. N. Brothers, K. N. Kudin, 
 V. N. Staroverov, T. A. Keith, R. Kobayashi, J. Normand, 
 K. Raghavachari, A. P. Rendell, J. C. Burant, S. S. Iyengar, 
 J. Tomasi, M. Cossi, J. M. Millam, M. Klene, C. Adamo, R. Cammi, 
 J. W. Ochterski, R. L. Martin, K. Morokuma, O. Farkas, 
 J. B. Foresman, and D. J. Fox, Gaussian, Inc., Wallingford CT, 2019.
 
 ******************************************
 Gaussian 16:  ES64L-G16RevC.01  3-Jul-2019
                23-Jan-2023 
 ******************************************
 %nprocshared=48
 Will use up to   48 processors via shared memory.
 %mem=50GB
 ----------------------------------------------------------
 # opt freq b3lyp/gen nosymm pseudo=read scf=maxcycles=1000
 ----------------------------------------------------------
 1/18=20,19=15,26=3,38=1/1,3;
 2/9=110,12=2,15=1,17=6,18=5,40=1/2;
 3/5=7,11=2,16=1,17=8,25=1,30=1,71=1,74=-5/1,2,3;
 4//1;
 5/5=2,7=1000,38=5/2;
 6/7=2,8=2,9=2,10=2,28=1/1;
 7/30=1/1,2,3,16;
 1/18=20,19=15,26=3/3(2);
 2/9=110,15=1/2;
 99//99;
 2/9=110,15=1/2;
 3/5=7,6=1,11=2,16=1,17=8,25=1,30=1,71=1,74=-5,82=7/1,2,3;
 4/5=5,16=3,69=1/1;
 5/5=2,7=1000,38=5/2;
 7/30=1/1,2,3,16;
 1/18=20,19=15,26=3/3(-5);
 2/9=110,15=1/2;
 6/7=2,8=2,9=2,10=2,19=2,28=1/1;
 99/9=1/99;
 -------------------
 Title Card Required
 -------------------
 Symbolic Z-matrix:
 Charge =  0 Multiplicity = 1
 42                    0.05762   2.01291   12.59893 
 16                    1.24097   4.06091   12.57946 
 16                   -1.88648   3.1473    13.5429 
 16                   -0.70138   1.42135   10.45878 
 16                    1.74901   0.18918   12.23165 
 42                   -2.65376   2.86763   11.13642 
 16                   -2.91757   2.61473   8.57349 
 16                   -1.24058   4.78637   10.46767 
 42                    0.81189   3.38079   10.26924 
 16                    0.13446   3.27629   7.80334 
 16                    2.59065   1.80145   9.58915 
 42                    2.81149   2.44227   11.88057 
 42                   -1.76405   4.8382    7.92605 
 16                    3.89137   2.29209   14.19253 
 16                    4.54692   4.04705   11.56277 
 16                   -3.68245   6.22049   8.69231 
 16                   -0.56718   6.94592   7.7652 
 42                   -4.65764   3.96615   8.91653 
 16                   -6.52897   2.43858   9.4014 
 16                   -4.32865   4.6728    11.25633 
 42                    2.33772   0.72473   14.39794 
 16                    3.00583  -0.93509   15.53844 
 16                    0.45938   1.63235   15.15452 
 42                    1.18126   5.38412   7.17825 
 16                    0.58309   4.64292   4.88643 
 16                    1.72464   5.58944   9.71875 
 42                    3.42653   4.0473    9.54396 
 16                    3.30648   3.74164   7.03551 
 16                    5.12989   5.94936   9.11239 
 42                    4.38481   5.75801   7.06777 
 16                    5.99997   5.91167   5.71752 
 16                    2.71918   7.4098    6.86831 
 42                    1.75548   6.69241   4.76494 
 16                    3.28184   6.38539   3.31269 
 16                    0.16315   8.0922    4.31086 
 42                   -1.19761   6.08744   5.64789 
 16                   -2.53834   4.13312   5.67607 
 16                   -2.94278   7.18053   4.71936 
 42                   -4.25362   5.82176   6.48085 
 16                   -5.61108   3.9459    6.74127 
 16                   -5.72548   7.32757   6.07742 
 42                   -5.36534   2.59963   11.33735 
 16                   -5.59963   2.74604   13.72199 
 16                   -3.93724   0.72145   11.08922 
 42                   -3.67021   1.65143   13.24469 
 

 GradGradGradGradGradGradGradGradGradGradGradGradGradGradGradGradGradGrad
 Berny optimization.
 Initialization pass.
                           ----------------------------
                           !    Initial Parameters    !
                           ! (Angstroms and Degrees)  !
 --------------------------                            --------------------------
 ! Name  Definition              Value          Derivative Info.                !
 --------------------------------------------------------------------------------
 ! R1    R(1,2)                  2.3654         estimate D2E/DX2                !
 ! R2    R(1,3)                  2.4408         estimate D2E/DX2                !
 ! R3    R(1,4)                  2.3465         estimate D2E/DX2                !
 ! R4    R(1,5)                  2.5143         estimate D2E/DX2                !
 ! R5    R(1,9)                  2.8049         estimate D2E/DX2                !
 ! R6    R(1,12)                 2.8782         estimate D2E/DX2                !
 ! R7    R(1,23)                 2.6148         estimate D2E/DX2                !
 ! R8    R(2,9)                  2.4462         estimate D2E/DX2                !
 ! R9    R(2,12)                 2.3611         estimate D2E/DX2                !
 ! R10   R(3,6)                  2.5413         estimate D2E/DX2                !
 ! R11   R(3,45)                 2.347          estimate D2E/DX2                !
 ! R12   R(4,6)                  2.5224         estimate D2E/DX2                !
 ! R13   R(4,9)                  2.483          estimate D2E/DX2                !
 ! R14   R(5,12)                 2.5157         estimate D2E/DX2                !
 ! R15   R(5,21)                 2.3079         estimate D2E/DX2                !
 ! R16   R(6,7)                  2.5889         estimate D2E/DX2                !
 ! R17   R(6,8)                  2.475          estimate D2E/DX2                !
 ! R18   R(6,20)                 2.4654         estimate D2E/DX2                !
 ! R19   R(6,42)                 2.7322         estimate D2E/DX2                !
 ! R20   R(6,44)                 2.5011         estimate D2E/DX2                !
 ! R21   R(6,45)                 2.6376         estimate D2E/DX2                !
 ! R22   R(7,13)                 2.5872         estimate D2E/DX2                !
 ! R23   R(7,18)                 2.2298         estimate D2E/DX2                !
 ! R24   R(8,9)                  2.4955         estimate D2E/DX2                !
 ! R25   R(8,13)                 2.5955         estimate D2E/DX2                !
 ! R26   R(9,10)                 2.5594         estimate D2E/DX2                !
 ! R27   R(9,11)                 2.474          estimate D2E/DX2                !
 ! R28   R(9,12)                 2.7342         estimate D2E/DX2                !
 ! R29   R(9,26)                 2.4524         estimate D2E/DX2                !
 ! R30   R(9,27)                 2.794          estimate D2E/DX2                !
 ! R31   R(10,13)                2.4615         estimate D2E/DX2                !
 ! R32   R(10,24)                2.435          estimate D2E/DX2                !
 ! R33   R(11,12)                2.3896         estimate D2E/DX2                !
 ! R34   R(11,27)                2.3968         estimate D2E/DX2                !
 ! R35   R(12,14)                2.5561         estimate D2E/DX2                !
 ! R36   R(12,15)                2.385          estimate D2E/DX2                !
 ! R37   R(12,21)                3.0841         estimate D2E/DX2                !
 ! R38   R(12,27)                2.9007         estimate D2E/DX2                !
 ! R39   R(13,16)                2.4856         estimate D2E/DX2                !
 ! R40   R(13,17)                2.4292         estimate D2E/DX2                !
 ! R41   R(13,24)                3.0874         estimate D2E/DX2                !
 ! R42   R(13,36)                2.6592         estimate D2E/DX2                !
 ! R43   R(13,37)                2.4818         estimate D2E/DX2                !
 ! R44   R(13,39)                3.042          estimate D2E/DX2                !
 ! R45   R(14,21)                2.2164         estimate D2E/DX2                !
 ! R46   R(15,27)                2.3089         estimate D2E/DX2                !
 ! R47   R(16,18)                2.4664         estimate D2E/DX2                !
 ! R48   R(16,39)                2.3186         estimate D2E/DX2                !
 ! R49   R(17,24)                2.4168         estimate D2E/DX2                !
 ! R50   R(17,36)                2.3701         estimate D2E/DX2                !
 ! R51   R(18,19)                2.4638         estimate D2E/DX2                !
 ! R52   R(18,20)                2.4662         estimate D2E/DX2                !
 ! R53   R(18,39)                3.0885         estimate D2E/DX2                !
 ! R54   R(18,40)                2.3751         estimate D2E/DX2                !
 ! R55   R(18,42)                2.8685         estimate D2E/DX2                !
 ! R56   R(19,42)                2.2645         estimate D2E/DX2                !
 ! R57   R(20,42)                2.3193         estimate D2E/DX2                !
 ! R58   R(21,22)                2.1218         estimate D2E/DX2                !
 ! R59   R(21,23)                2.2191         estimate D2E/DX2                !
 ! R60   R(24,25)                2.4819         estimate D2E/DX2                !
 ! R61   R(24,26)                2.6061         estimate D2E/DX2                !
 ! R62   R(24,28)                2.6897         estimate D2E/DX2                !
 ! R63   R(24,32)                2.5622         estimate D2E/DX2                !
 ! R64   R(24,33)                2.8045         estimate D2E/DX2                !
 ! R65   R(24,36)                2.9147         estimate D2E/DX2                !
 ! R66   R(25,33)                2.3643         estimate D2E/DX2                !
 ! R67   R(25,36)                2.4161         estimate D2E/DX2                !
 ! R68   R(26,27)                2.3033         estimate D2E/DX2                !
 ! R69   R(27,28)                2.5299         estimate D2E/DX2                !
 ! R70   R(27,29)                2.5895         estimate D2E/DX2                !
 ! R71   R(28,30)                2.2868         estimate D2E/DX2                !
 ! R72   R(29,30)                2.1845         estimate D2E/DX2                !
 ! R73   R(30,31)                2.1108         estimate D2E/DX2                !
 ! R74   R(30,32)                2.3543         estimate D2E/DX2                !
 ! R75   R(32,33)                2.4223         estimate D2E/DX2                !
 ! R76   R(33,34)                2.1291         estimate D2E/DX2                !
 ! R77   R(33,35)                2.1682         estimate D2E/DX2                !
 ! R78   R(36,37)                2.3702         estimate D2E/DX2                !
 ! R79   R(36,38)                2.2589         estimate D2E/DX2                !
 ! R80   R(37,39)                2.538          estimate D2E/DX2                !
 ! R81   R(38,39)                2.5821         estimate D2E/DX2                !
 ! R82   R(39,40)                2.3301         estimate D2E/DX2                !
 ! R83   R(39,41)                2.144          estimate D2E/DX2                !
 ! R84   R(42,43)                2.4006         estimate D2E/DX2                !
 ! R85   R(42,44)                2.3725         estimate D2E/DX2                !
 ! R86   R(42,45)                2.7222         estimate D2E/DX2                !
 ! R87   R(43,45)                2.2691         estimate D2E/DX2                !
 ! R88   R(44,45)                2.3627         estimate D2E/DX2                !
 ! A1    A(2,1,3)               89.9574         estimate D2E/DX2                !
 ! A2    A(2,1,4)              111.8753         estimate D2E/DX2                !
 ! A3    A(2,1,5)              106.8746         estimate D2E/DX2                !
 ! A4    A(2,1,23)              93.2784         estimate D2E/DX2                !
 ! A5    A(3,1,4)              102.2552         estimate D2E/DX2                !
 ! A6    A(3,1,5)              158.345          estimate D2E/DX2                !
 ! A7    A(3,1,9)              107.9846         estimate D2E/DX2                !
 ! A8    A(3,1,12)             142.119          estimate D2E/DX2                !
 ! A9    A(3,1,23)              79.1658         estimate D2E/DX2                !
 ! A10   A(4,1,5)               84.3474         estimate D2E/DX2                !
 ! A11   A(4,1,12)              96.8606         estimate D2E/DX2                !
 ! A12   A(4,1,23)             154.7415         estimate D2E/DX2                !
 ! A13   A(5,1,9)               92.9525         estimate D2E/DX2                !
 ! A14   A(5,1,23)              86.2065         estimate D2E/DX2                !
 ! A15   A(9,1,23)             147.2906         estimate D2E/DX2                !
 ! A16   A(12,1,23)             96.8132         estimate D2E/DX2                !
 ! A17   A(1,3,6)               79.811          estimate D2E/DX2                !
 ! A18   A(1,3,45)             105.0696         estimate D2E/DX2                !
 ! A19   A(1,4,6)               81.9981         estimate D2E/DX2                !
 ! A20   A(6,4,9)               92.2784         estimate D2E/DX2                !
 ! A21   A(1,5,21)              82.3087         estimate D2E/DX2                !
 ! A22   A(3,6,4)               94.8071         estimate D2E/DX2                !
 ! A23   A(3,6,8)               89.8946         estimate D2E/DX2                !
 ! A24   A(3,6,20)              94.5011         estimate D2E/DX2                !
 ! A25   A(3,6,42)             103.9339         estimate D2E/DX2                !
 ! A26   A(3,6,44)             105.4999         estimate D2E/DX2                !
 ! A27   A(4,6,7)               75.9307         estimate D2E/DX2                !
 ! A28   A(4,6,8)               85.9844         estimate D2E/DX2                !
 ! A29   A(4,6,20)             163.4772         estimate D2E/DX2                !
 ! A30   A(4,6,42)             137.0272         estimate D2E/DX2                !
 ! A31   A(4,6,44)              84.2678         estimate D2E/DX2                !
 ! A32   A(4,6,45)             104.396          estimate D2E/DX2                !
 ! A33   A(7,6,8)               82.3238         estimate D2E/DX2                !
 ! A34   A(7,6,20)              92.8921         estimate D2E/DX2                !
 ! A35   A(7,6,42)              87.8274         estimate D2E/DX2                !
 ! A36   A(7,6,44)              81.0947         estimate D2E/DX2                !
 ! A37   A(7,6,45)             134.9902         estimate D2E/DX2                !
 ! A38   A(8,6,20)              80.4105         estimate D2E/DX2                !
 ! A39   A(8,6,42)             131.4969         estimate D2E/DX2                !
 ! A40   A(8,6,44)             162.386          estimate D2E/DX2                !
 ! A41   A(8,6,45)             142.5097         estimate D2E/DX2                !
 ! A42   A(20,6,44)            106.2953         estimate D2E/DX2                !
 ! A43   A(20,6,45)             92.1168         estimate D2E/DX2                !
 ! A44   A(6,7,13)              96.7968         estimate D2E/DX2                !
 ! A45   A(6,7,18)              82.4152         estimate D2E/DX2                !
 ! A46   A(13,7,18)             82.2739         estimate D2E/DX2                !
 ! A47   A(6,8,9)               93.1212         estimate D2E/DX2                !
 ! A48   A(6,8,13)              99.4923         estimate D2E/DX2                !
 ! A49   A(9,8,13)              95.6966         estimate D2E/DX2                !
 ! A50   A(1,9,8)               89.2817         estimate D2E/DX2                !
 ! A51   A(1,9,10)             135.1655         estimate D2E/DX2                !
 ! A52   A(1,9,11)              96.3349         estimate D2E/DX2                !
 ! A53   A(1,9,26)             136.5294         estimate D2E/DX2                !
 ! A54   A(1,9,27)             125.703          estimate D2E/DX2                !
 ! A55   A(2,9,4)              104.7271         estimate D2E/DX2                !
 ! A56   A(2,9,8)               84.9844         estimate D2E/DX2                !
 ! A57   A(2,9,11)             108.1186         estimate D2E/DX2                !
 ! A58   A(2,9,26)              84.0484         estimate D2E/DX2                !
 ! A59   A(2,9,27)              90.8415         estimate D2E/DX2                !
 ! A60   A(4,9,8)               86.3968         estimate D2E/DX2                !
 ! A61   A(4,9,10)              83.1086         estimate D2E/DX2                !
 ! A62   A(4,9,11)              87.4435         estimate D2E/DX2                !
 ! A63   A(4,9,12)              97.4608         estimate D2E/DX2                !
 ! A64   A(4,9,26)             162.6824         estimate D2E/DX2                !
 ! A65   A(4,9,27)             141.1127         estimate D2E/DX2                !
 ! A66   A(8,9,10)              83.2184         estimate D2E/DX2                !
 ! A67   A(8,9,12)             138.4152         estimate D2E/DX2                !
 ! A68   A(8,9,26)              79.4382         estimate D2E/DX2                !
 ! A69   A(8,9,27)             130.9908         estimate D2E/DX2                !
 ! A70   A(10,9,11)             84.2256         estimate D2E/DX2                !
 ! A71   A(10,9,12)            138.3626         estimate D2E/DX2                !
 ! A72   A(10,9,26)             85.3549         estimate D2E/DX2                !
 ! A73   A(10,9,27)             90.4201         estimate D2E/DX2                !
 ! A74   A(11,9,26)            104.2188         estimate D2E/DX2                !
 ! A75   A(12,9,26)             99.7432         estimate D2E/DX2                !
 ! A76   A(9,10,13)             97.4814         estimate D2E/DX2                !
 ! A77   A(9,10,24)             95.6352         estimate D2E/DX2                !
 ! A78   A(1,12,11)             96.3673         estimate D2E/DX2                !
 ! A79   A(1,12,14)             99.7705         estimate D2E/DX2                !
 ! A80   A(1,12,15)            146.0835         estimate D2E/DX2                !
 ! A81   A(1,12,21)             64.2922         estimate D2E/DX2                !
 ! A82   A(1,12,27)            119.1081         estimate D2E/DX2                !
 ! A83   A(2,12,5)             106.9625         estimate D2E/DX2                !
 ! A84   A(2,12,11)            113.9672         estimate D2E/DX2                !
 ! A85   A(2,12,14)             93.07           estimate D2E/DX2                !
 ! A86   A(2,12,15)             93.5643         estimate D2E/DX2                !
 ! A87   A(2,12,21)             92.177          estimate D2E/DX2                !
 ! A88   A(2,12,27)             90.0085         estimate D2E/DX2                !
 ! A89   A(5,12,9)              94.6345         estimate D2E/DX2                !
 ! A90   A(5,12,11)             81.6401         estimate D2E/DX2                !
 ! A91   A(5,12,14)             89.9757         estimate D2E/DX2                !
 ! A92   A(5,12,15)            158.212          estimate D2E/DX2                !
 ! A93   A(5,12,27)            134.23           estimate D2E/DX2                !
 ! A94   A(9,12,14)            149.561          estimate D2E/DX2                !
 ! A95   A(9,12,15)            102.8657         estimate D2E/DX2                !
 ! A96   A(9,12,21)            124.0458         estimate D2E/DX2                !
 ! A97   A(11,12,14)           152.9501         estimate D2E/DX2                !
 ! A98   A(11,12,15)            96.8875         estimate D2E/DX2                !
 ! A99   A(11,12,21)           128.2559         estimate D2E/DX2                !
 ! A100  A(14,12,15)            81.5265         estimate D2E/DX2                !
 ! A101  A(14,12,27)           132.1841         estimate D2E/DX2                !
 ! A102  A(15,12,21)           126.5322         estimate D2E/DX2                !
 ! A103  A(7,13,8)              80.0788         estimate D2E/DX2                !
 ! A104  A(7,13,10)             79.1071         estimate D2E/DX2                !
 ! A105  A(7,13,16)             93.2491         estimate D2E/DX2                !
 ! A106  A(7,13,24)            129.636          estimate D2E/DX2                !
 ! A107  A(7,13,36)            135.4866         estimate D2E/DX2                !
 ! A108  A(7,13,37)             81.0022         estimate D2E/DX2                !
 ! A109  A(7,13,39)             91.8264         estimate D2E/DX2                !
 ! A110  A(8,13,10)             83.142          estimate D2E/DX2                !
 ! A111  A(8,13,16)             82.2347         estimate D2E/DX2                !
 ! A112  A(8,13,17)             89.0146         estimate D2E/DX2                !
 ! A113  A(8,13,24)             92.7692         estimate D2E/DX2                !
 ! A114  A(8,13,36)            143.6436         estimate D2E/DX2                !
 ! A115  A(8,13,37)            160.9169         estimate D2E/DX2                !
 ! A116  A(8,13,39)            129.5486         estimate D2E/DX2                !
 ! A117  A(10,13,16)           164.4791         estimate D2E/DX2                !
 ! A118  A(10,13,17)            99.628          estimate D2E/DX2                !
 ! A119  A(10,13,36)            95.2262         estimate D2E/DX2                !
 ! A120  A(10,13,37)            90.8686         estimate D2E/DX2                !
 ! A121  A(10,13,39)           144.3592         estimate D2E/DX2                !
 ! A122  A(16,13,17)            85.3057         estimate D2E/DX2                !
 ! A123  A(16,13,24)           135.4488         estimate D2E/DX2                !
 ! A124  A(16,13,36)            99.6284         estimate D2E/DX2                !
 ! A125  A(16,13,37)           101.3435         estimate D2E/DX2                !
 ! A126  A(17,13,37)           109.889          estimate D2E/DX2                !
 ! A127  A(17,13,39)            95.2344         estimate D2E/DX2                !
 ! A128  A(24,13,37)            97.3703         estimate D2E/DX2                !
 ! A129  A(24,13,39)           127.4801         estimate D2E/DX2                !
 ! A130  A(36,13,39)            67.3833         estimate D2E/DX2                !
 ! A131  A(13,16,18)            79.9149         estimate D2E/DX2                !
 ! A132  A(7,18,16)            103.3809         estimate D2E/DX2                !
 ! A133  A(7,18,19)            104.3134         estimate D2E/DX2                !
 ! A134  A(7,18,20)            102.446          estimate D2E/DX2                !
 ! A135  A(7,18,39)             98.0899         estimate D2E/DX2                !
 ! A136  A(7,18,40)             99.625          estimate D2E/DX2                !
 ! A137  A(7,18,42)             91.9275         estimate D2E/DX2                !
 ! A138  A(16,18,19)           152.2363         estimate D2E/DX2                !
 ! A139  A(16,18,20)            76.7978         estimate D2E/DX2                !
 ! A140  A(16,18,40)            94.7755         estimate D2E/DX2                !
 ! A141  A(16,18,42)           127.5663         estimate D2E/DX2                !
 ! A142  A(19,18,20)            95.2937         estimate D2E/DX2                !
 ! A143  A(19,18,39)           128.8329         estimate D2E/DX2                !
 ! A144  A(19,18,40)            82.5338         estimate D2E/DX2                !
 ! A145  A(20,18,39)           123.9585         estimate D2E/DX2                !
 ! A146  A(20,18,40)           157.6527         estimate D2E/DX2                !
 ! A147  A(40,18,42)           132.0522         estimate D2E/DX2                !
 ! A148  A(6,20,18)             80.4843         estimate D2E/DX2                !
 ! A149  A(5,21,14)            104.828          estimate D2E/DX2                !
 ! A150  A(5,21,22)            113.7865         estimate D2E/DX2                !
 ! A151  A(5,21,23)            101.4798         estimate D2E/DX2                !
 ! A152  A(12,21,22)           145.6916         estimate D2E/DX2                !
 ! A153  A(12,21,23)           100.4017         estimate D2E/DX2                !
 ! A154  A(14,21,22)           112.4745         estimate D2E/DX2                !
 ! A155  A(14,21,23)           109.615          estimate D2E/DX2                !
 ! A156  A(22,21,23)           113.7794         estimate D2E/DX2                !
 ! A157  A(1,23,21)             81.7415         estimate D2E/DX2                !
 ! A158  A(10,24,17)           100.7219         estimate D2E/DX2                !
 ! A159  A(10,24,25)            82.8147         estimate D2E/DX2                !
 ! A160  A(10,24,26)            84.6978         estimate D2E/DX2                !
 ! A161  A(10,24,28)            79.9041         estimate D2E/DX2                !
 ! A162  A(10,24,33)           135.4564         estimate D2E/DX2                !
 ! A163  A(10,24,36)            89.5872         estimate D2E/DX2                !
 ! A164  A(13,24,25)            86.6136         estimate D2E/DX2                !
 ! A165  A(13,24,26)            88.6663         estimate D2E/DX2                !
 ! A166  A(13,24,28)           131.1961         estimate D2E/DX2                !
 ! A167  A(13,24,32)           137.8776         estimate D2E/DX2                !
 ! A168  A(13,24,33)           119.0931         estimate D2E/DX2                !
 ! A169  A(17,24,25)           104.0573         estimate D2E/DX2                !
 ! A170  A(17,24,26)            82.136          estimate D2E/DX2                !
 ! A171  A(17,24,32)            87.2893         estimate D2E/DX2                !
 ! A172  A(17,24,33)            93.1898         estimate D2E/DX2                !
 ! A173  A(25,24,28)            87.6537         estimate D2E/DX2                !
 ! A174  A(25,24,32)           105.6093         estimate D2E/DX2                !
 ! A175  A(26,24,28)            86.279          estimate D2E/DX2                !
 ! A176  A(26,24,32)            86.0136         estimate D2E/DX2                !
 ! A177  A(26,24,33)           139.412          estimate D2E/DX2                !
 ! A178  A(26,24,36)           131.5288         estimate D2E/DX2                !
 ! A179  A(28,24,32)            90.1204         estimate D2E/DX2                !
 ! A180  A(28,24,33)            94.4403         estimate D2E/DX2                !
 ! A181  A(28,24,36)           139.8486         estimate D2E/DX2                !
 ! A182  A(32,24,36)           103.6271         estimate D2E/DX2                !
 ! A183  A(33,24,36)            66.593          estimate D2E/DX2                !
 ! A184  A(33,25,36)            82.1483         estimate D2E/DX2                !
 ! A185  A(9,26,24)             94.0289         estimate D2E/DX2                !
 ! A186  A(24,26,27)            91.5662         estimate D2E/DX2                !
 ! A187  A(9,27,15)            103.1265         estimate D2E/DX2                !
 ! A188  A(9,27,28)            100.612          estimate D2E/DX2                !
 ! A189  A(9,27,29)            146.5164         estimate D2E/DX2                !
 ! A190  A(11,27,15)            98.78           estimate D2E/DX2                !
 ! A191  A(11,27,26)           111.608          estimate D2E/DX2                !
 ! A192  A(11,27,28)            83.6232         estimate D2E/DX2                !
 ! A193  A(11,27,29)           157.0461         estimate D2E/DX2                !
 ! A194  A(12,27,26)            98.7818         estimate D2E/DX2                !
 ! A195  A(12,27,28)           136.2032         estimate D2E/DX2                !
 ! A196  A(12,27,29)           132.8556         estimate D2E/DX2                !
 ! A197  A(15,27,26)           106.994          estimate D2E/DX2                !
 ! A198  A(15,27,28)           152.8717         estimate D2E/DX2                !
 ! A199  A(15,27,29)            80.0148         estimate D2E/DX2                !
 ! A200  A(26,27,28)            96.9543         estimate D2E/DX2                !
 ! A201  A(26,27,29)            90.3951         estimate D2E/DX2                !
 ! A202  A(28,27,29)            87.4042         estimate D2E/DX2                !
 ! A203  A(24,28,27)            84.8992         estimate D2E/DX2                !
 ! A204  A(24,28,30)            80.4099         estimate D2E/DX2                !
 ! A205  A(27,28,30)            81.7844         estimate D2E/DX2                !
 ! A206  A(27,29,30)            82.3739         estimate D2E/DX2                !
 ! A207  A(28,30,29)           104.5525         estimate D2E/DX2                !
 ! A208  A(28,30,31)           114.5812         estimate D2E/DX2                !
 ! A209  A(28,30,32)           106.4889         estimate D2E/DX2                !
 ! A210  A(29,30,31)           109.3508         estimate D2E/DX2                !
 ! A211  A(29,30,32)           105.0193         estimate D2E/DX2                !
 ! A212  A(31,30,32)           115.8548         estimate D2E/DX2                !
 ! A213  A(24,32,30)            81.9354         estimate D2E/DX2                !
 ! A214  A(30,32,33)            98.4677         estimate D2E/DX2                !
 ! A215  A(24,33,34)           131.7944         estimate D2E/DX2                !
 ! A216  A(24,33,35)           109.3304         estimate D2E/DX2                !
 ! A217  A(25,33,32)           114.167          estimate D2E/DX2                !
 ! A218  A(25,33,34)           105.3994         estimate D2E/DX2                !
 ! A219  A(25,33,35)           101.9014         estimate D2E/DX2                !
 ! A220  A(32,33,34)           110.4738         estimate D2E/DX2                !
 ! A221  A(32,33,35)           106.4295         estimate D2E/DX2                !
 ! A222  A(34,33,35)           118.4726         estimate D2E/DX2                !
 ! A223  A(13,36,25)            98.4026         estimate D2E/DX2                !
 ! A224  A(13,36,38)           114.5136         estimate D2E/DX2                !
 ! A225  A(17,36,25)           107.5816         estimate D2E/DX2                !
 ! A226  A(17,36,37)           116.0083         estimate D2E/DX2                !
 ! A227  A(17,36,38)           113.4176         estimate D2E/DX2                !
 ! A228  A(24,36,37)           104.8605         estimate D2E/DX2                !
 ! A229  A(24,36,38)           164.3918         estimate D2E/DX2                !
 ! A230  A(25,36,37)            85.8527         estimate D2E/DX2                !
 ! A231  A(25,36,38)           136.8175         estimate D2E/DX2                !
 ! A232  A(37,36,38)            88.1014         estimate D2E/DX2                !
 ! A233  A(36,37,39)            80.6458         estimate D2E/DX2                !
 ! A234  A(36,38,39)            81.7872         estimate D2E/DX2                !
 ! A235  A(13,39,18)            62.4932         estimate D2E/DX2                !
 ! A236  A(13,39,38)            94.5177         estimate D2E/DX2                !
 ! A237  A(13,39,40)            99.4033         estimate D2E/DX2                !
 ! A238  A(13,39,41)           151.44           estimate D2E/DX2                !
 ! A239  A(16,39,37)           104.4995         estimate D2E/DX2                !
 ! A240  A(16,39,38)           115.7926         estimate D2E/DX2                !
 ! A241  A(16,39,40)           100.0996         estimate D2E/DX2                !
 ! A242  A(16,39,41)           103.1685         estimate D2E/DX2                !
 ! A243  A(18,39,37)            86.4872         estimate D2E/DX2                !
 ! A244  A(18,39,38)           157.0063         estimate D2E/DX2                !
 ! A245  A(18,39,41)           118.7223         estimate D2E/DX2                !
 ! A246  A(37,39,38)            77.9191         estimate D2E/DX2                !
 ! A247  A(37,39,40)            83.8878         estimate D2E/DX2                !
 ! A248  A(37,39,41)           150.6467         estimate D2E/DX2                !
 ! A249  A(38,39,40)           142.7147         estimate D2E/DX2                !
 ! A250  A(38,39,41)            81.4054         estimate D2E/DX2                !
 ! A251  A(40,39,41)           100.7495         estimate D2E/DX2                !
 ! A252  A(6,42,18)             69.2899         estimate D2E/DX2                !
 ! A253  A(6,42,19)            117.0065         estimate D2E/DX2                !
 ! A254  A(6,42,43)             99.4353         estimate D2E/DX2                !
 ! A255  A(18,42,43)           146.4426         estimate D2E/DX2                !
 ! A256  A(18,42,44)            98.0689         estimate D2E/DX2                !
 ! A257  A(18,42,45)           127.1283         estimate D2E/DX2                !
 ! A258  A(19,42,20)           105.2714         estimate D2E/DX2                !
 ! A259  A(19,42,43)           143.4582         estimate D2E/DX2                !
 ! A260  A(19,42,44)            99.4162         estimate D2E/DX2                !
 ! A261  A(19,42,45)           153.408          estimate D2E/DX2                !
 ! A262  A(20,42,43)            91.364          estimate D2E/DX2                !
 ! A263  A(20,42,44)           115.7806         estimate D2E/DX2                !
 ! A264  A(20,42,45)            93.2957         estimate D2E/DX2                !
 ! A265  A(43,42,44)           102.1766         estimate D2E/DX2                !
 ! A266  A(3,45,42)            109.8943         estimate D2E/DX2                !
 ! A267  A(3,45,43)            108.1833         estimate D2E/DX2                !
 ! A268  A(3,45,44)            116.9168         estimate D2E/DX2                !
 ! A269  A(6,45,43)            105.8654         estimate D2E/DX2                !
 ! A270  A(43,45,44)           106.5994         estimate D2E/DX2                !
 ! A271  L(3,6,7,4,-1)         170.7378         estimate D2E/DX2                !
 ! A272  L(2,9,10,4,-1)        187.8357         estimate D2E/DX2                !
 ! A273  L(8,9,11,1,-1)        185.6165         estimate D2E/DX2                !
 ! A274  L(21,12,27,2,-1)      182.1855         estimate D2E/DX2                !
 ! A275  L(7,13,17,8,-1)       169.0934         estimate D2E/DX2                !
 ! A276  L(39,18,42,7,-1)      190.0174         estimate D2E/DX2                !
 ! A277  L(10,24,32,17,-1)     188.0112         estimate D2E/DX2                !
 ! A278  L(17,24,28,10,-1)     180.6259         estimate D2E/DX2                !
 ! A279  L(25,24,26,10,-1)     167.5126         estimate D2E/DX2                !
 ! A280  L(3,6,7,4,-2)         187.3624         estimate D2E/DX2                !
 ! A281  L(2,9,10,4,-2)        167.4444         estimate D2E/DX2                !
 ! A282  L(8,9,11,1,-2)        167.7951         estimate D2E/DX2                !
 ! A283  L(21,12,27,2,-2)      177.3827         estimate D2E/DX2                !
 ! A284  L(7,13,17,8,-2)       179.9046         estimate D2E/DX2                !
 ! A285  L(39,18,42,7,-2)      177.7832         estimate D2E/DX2                !
 ! A286  L(10,24,32,17,-2)     169.3914         estimate D2E/DX2                !
 ! A287  L(17,24,28,10,-2)     191.9049         estimate D2E/DX2                !
 ! A288  L(25,24,26,10,-2)     176.0372         estimate D2E/DX2                !
 ! D1    D(2,1,3,6)            104.018          estimate D2E/DX2                !
 ! D2    D(2,1,3,45)           164.661          estimate D2E/DX2                !
 ! D3    D(4,1,3,6)             -8.3848         estimate D2E/DX2                !
 ! D4    D(4,1,3,45)            52.2582         estimate D2E/DX2                !
 ! D5    D(5,1,3,6)           -114.2842         estimate D2E/DX2                !
 ! D6    D(5,1,3,45)           -53.6412         estimate D2E/DX2                !
 ! D7    D(9,1,3,6)             50.3741         estimate D2E/DX2                !
 ! D8    D(9,1,3,45)           111.017          estimate D2E/DX2                !
 ! D9    D(12,1,3,6)           110.1894         estimate D2E/DX2                !
 ! D10   D(12,1,3,45)          170.8324         estimate D2E/DX2                !
 ! D11   D(23,1,3,6)          -162.6359         estimate D2E/DX2                !
 ! D12   D(23,1,3,45)         -101.9929         estimate D2E/DX2                !
 ! D13   D(2,1,4,6)            -86.5601         estimate D2E/DX2                !
 ! D14   D(3,1,4,6)              8.396          estimate D2E/DX2                !
 ! D15   D(5,1,4,6)            167.5024         estimate D2E/DX2                !
 ! D16   D(12,1,4,6)          -138.7075         estimate D2E/DX2                !
 ! D17   D(23,1,4,6)            98.9462         estimate D2E/DX2                !
 ! D18   D(2,1,5,21)            72.7029         estimate D2E/DX2                !
 ! D19   D(3,1,5,21)           -66.9289         estimate D2E/DX2                !
 ! D20   D(4,1,5,21)          -176.1213         estimate D2E/DX2                !
 ! D21   D(9,1,5,21)           127.666          estimate D2E/DX2                !
 ! D22   D(23,1,5,21)          -19.5768         estimate D2E/DX2                !
 ! D23   D(3,1,9,8)             -7.1119         estimate D2E/DX2                !
 ! D24   D(3,1,9,10)           -86.736          estimate D2E/DX2                !
 ! D25   D(3,1,9,11)          -174.907          estimate D2E/DX2                !
 ! D26   D(3,1,9,26)            66.6475         estimate D2E/DX2                !
 ! D27   D(3,1,9,27)           135.9042         estimate D2E/DX2                !
 ! D28   D(5,1,9,8)            167.2778         estimate D2E/DX2                !
 ! D29   D(5,1,9,10)            87.6537         estimate D2E/DX2                !
 ! D30   D(5,1,9,11)            -0.5173         estimate D2E/DX2                !
 ! D31   D(5,1,9,26)          -118.9629         estimate D2E/DX2                !
 ! D32   D(5,1,9,27)           -49.7061         estimate D2E/DX2                !
 ! D33   D(23,1,9,8)          -105.1458         estimate D2E/DX2                !
 ! D34   D(23,1,9,10)          175.2301         estimate D2E/DX2                !
 ! D35   D(23,1,9,11)           87.0591         estimate D2E/DX2                !
 ! D36   D(23,1,9,26)          -31.3864         estimate D2E/DX2                !
 ! D37   D(23,1,9,27)           37.8703         estimate D2E/DX2                !
 ! D38   D(3,1,12,11)         -123.224          estimate D2E/DX2                !
 ! D39   D(3,1,12,14)           78.567          estimate D2E/DX2                !
 ! D40   D(3,1,12,15)          -10.7531         estimate D2E/DX2                !
 ! D41   D(3,1,12,21)          107.1528         estimate D2E/DX2                !
 ! D42   D(3,1,12,27)          -72.5697         estimate D2E/DX2                !
 ! D43   D(4,1,12,11)           -3.0355         estimate D2E/DX2                !
 ! D44   D(4,1,12,14)         -161.2445         estimate D2E/DX2                !
 ! D45   D(4,1,12,15)          109.4354         estimate D2E/DX2                !
 ! D46   D(4,1,12,21)         -132.6586         estimate D2E/DX2                !
 ! D47   D(4,1,12,27)           47.6188         estimate D2E/DX2                !
 ! D48   D(23,1,12,11)         155.6766         estimate D2E/DX2                !
 ! D49   D(23,1,12,14)          -2.5325         estimate D2E/DX2                !
 ! D50   D(23,1,12,15)         -91.8526         estimate D2E/DX2                !
 ! D51   D(23,1,12,21)          26.0534         estimate D2E/DX2                !
 ! D52   D(23,1,12,27)        -153.6692         estimate D2E/DX2                !
 ! D53   D(2,1,23,21)          -86.2904         estimate D2E/DX2                !
 ! D54   D(3,1,23,21)         -175.6188         estimate D2E/DX2                !
 ! D55   D(4,1,23,21)           88.5925         estimate D2E/DX2                !
 ! D56   D(5,1,23,21)           20.4236         estimate D2E/DX2                !
 ! D57   D(9,1,23,21)          -69.1343         estimate D2E/DX2                !
 ! D58   D(12,1,23,21)         -33.7628         estimate D2E/DX2                !
 ! D59   D(1,2,9,12)           -80.5818         estimate D2E/DX2                !
 ! D60   D(1,3,6,4)              7.6446         estimate D2E/DX2                !
 ! D61   D(1,3,6,8)            -78.3167         estimate D2E/DX2                !
 ! D62   D(1,3,6,20)          -158.6888         estimate D2E/DX2                !
 ! D63   D(1,3,6,42)           148.6665         estimate D2E/DX2                !
 ! D64   D(1,3,6,44)            93.0162         estimate D2E/DX2                !
 ! D65   D(1,3,45,42)         -109.1875         estimate D2E/DX2                !
 ! D66   D(1,3,45,43)         -169.3896         estimate D2E/DX2                !
 ! D67   D(1,3,45,44)          -49.1255         estimate D2E/DX2                !
 ! D68   D(1,4,6,3)             -7.9048         estimate D2E/DX2                !
 ! D69   D(1,4,6,7)            164.7328         estimate D2E/DX2                !
 ! D70   D(1,4,6,8)             81.6509         estimate D2E/DX2                !
 ! D71   D(1,4,6,20)           116.1792         estimate D2E/DX2                !
 ! D72   D(1,4,6,42)          -124.314          estimate D2E/DX2                !
 ! D73   D(1,4,6,44)          -113.0393         estimate D2E/DX2                !
 ! D74   D(1,4,6,45)           -61.7835         estimate D2E/DX2                !
 ! D75   D(9,4,6,3)            -78.3009         estimate D2E/DX2                !
 ! D76   D(9,4,6,7)             94.3366         estimate D2E/DX2                !
 ! D77   D(9,4,6,8)             11.2547         estimate D2E/DX2                !
 ! D78   D(9,4,6,20)            45.7831         estimate D2E/DX2                !
 ! D79   D(9,4,6,42)           165.2899         estimate D2E/DX2                !
 ! D80   D(9,4,6,44)           176.5645         estimate D2E/DX2                !
 ! D81   D(9,4,6,45)          -132.1796         estimate D2E/DX2                !
 ! D82   D(6,4,9,2)             72.6945         estimate D2E/DX2                !
 ! D83   D(6,4,9,8)            -11.1557         estimate D2E/DX2                !
 ! D84   D(6,4,9,10)           -94.7499         estimate D2E/DX2                !
 ! D85   D(6,4,9,11)          -179.2382         estimate D2E/DX2                !
 ! D86   D(6,4,9,12)           127.2279         estimate D2E/DX2                !
 ! D87   D(6,4,9,26)           -46.1764         estimate D2E/DX2                !
 ! D88   D(6,4,9,27)          -176.8126         estimate D2E/DX2                !
 ! D89   D(1,5,21,14)          -90.3831         estimate D2E/DX2                !
 ! D90   D(1,5,21,22)          146.3296         estimate D2E/DX2                !
 ! D91   D(1,5,21,23)           23.7034         estimate D2E/DX2                !
 ! D92   D(4,6,7,13)           -96.5104         estimate D2E/DX2                !
 ! D93   D(4,6,7,18)          -177.7412         estimate D2E/DX2                !
 ! D94   D(8,6,7,13)            -8.7494         estimate D2E/DX2                !
 ! D95   D(8,6,7,18)           -89.9802         estimate D2E/DX2                !
 ! D96   D(20,6,7,13)           71.1651         estimate D2E/DX2                !
 ! D97   D(20,6,7,18)          -10.0657         estimate D2E/DX2                !
 ! D98   D(42,6,7,13)          123.64           estimate D2E/DX2                !
 ! D99   D(42,6,7,18)           42.4092         estimate D2E/DX2                !
 ! D100  D(44,6,7,13)          177.214          estimate D2E/DX2                !
 ! D101  D(44,6,7,18)           95.9832         estimate D2E/DX2                !
 ! D102  D(45,6,7,13)          167.0653         estimate D2E/DX2                !
 ! D103  D(45,6,7,18)           85.8345         estimate D2E/DX2                !
 ! D104  D(3,6,8,9)             83.6209         estimate D2E/DX2                !
 ! D105  D(3,6,8,13)           179.9308         estimate D2E/DX2                !
 ! D106  D(4,6,8,9)            -11.2054         estimate D2E/DX2                !
 ! D107  D(4,6,8,13)            85.1044         estimate D2E/DX2                !
 ! D108  D(7,6,8,9)            -87.5292         estimate D2E/DX2                !
 ! D109  D(7,6,8,13)             8.7806         estimate D2E/DX2                !
 ! D110  D(20,6,8,9)           178.2038         estimate D2E/DX2                !
 ! D111  D(20,6,8,13)          -85.4863         estimate D2E/DX2                !
 ! D112  D(42,6,8,9)          -167.7237         estimate D2E/DX2                !
 ! D113  D(42,6,8,13)          -71.4138         estimate D2E/DX2                !
 ! D114  D(44,6,8,9)           -67.7017         estimate D2E/DX2                !
 ! D115  D(44,6,8,13)           28.6082         estimate D2E/DX2                !
 ! D116  D(45,6,8,9)            97.3356         estimate D2E/DX2                !
 ! D117  D(45,6,8,13)         -166.3545         estimate D2E/DX2                !
 ! D118  D(3,6,20,18)          179.9798         estimate D2E/DX2                !
 ! D119  D(4,6,20,18)           55.859          estimate D2E/DX2                !
 ! D120  D(7,6,20,18)            9.1386         estimate D2E/DX2                !
 ! D121  D(8,6,20,18)           90.8491         estimate D2E/DX2                !
 ! D122  D(44,6,20,18)         -72.4247         estimate D2E/DX2                !
 ! D123  D(45,6,20,18)        -126.1157         estimate D2E/DX2                !
 ! D124  D(3,6,42,18)          146.54           estimate D2E/DX2                !
 ! D125  D(3,6,42,19)          176.5837         estimate D2E/DX2                !
 ! D126  D(3,6,42,43)           -0.6309         estimate D2E/DX2                !
 ! D127  D(4,6,42,18)         -100.3202         estimate D2E/DX2                !
 ! D128  D(4,6,42,19)          -70.2764         estimate D2E/DX2                !
 ! D129  D(4,6,42,43)          112.509          estimate D2E/DX2                !
 ! D130  D(7,6,42,18)          -33.7487         estimate D2E/DX2                !
 ! D131  D(7,6,42,19)           -3.7049         estimate D2E/DX2                !
 ! D132  D(7,6,42,43)          179.0805         estimate D2E/DX2                !
 ! D133  D(8,6,42,18)           44.0101         estimate D2E/DX2                !
 ! D134  D(8,6,42,19)           74.0539         estimate D2E/DX2                !
 ! D135  D(8,6,42,43)         -103.1607         estimate D2E/DX2                !
 ! D136  D(4,6,45,43)         -172.2916         estimate D2E/DX2                !
 ! D137  D(7,6,45,43)          -87.9316         estimate D2E/DX2                !
 ! D138  D(8,6,45,43)           85.2433         estimate D2E/DX2                !
 ! D139  D(20,6,45,43)           8.288          estimate D2E/DX2                !
 ! D140  D(6,7,13,8)             8.3915         estimate D2E/DX2                !
 ! D141  D(6,7,13,10)           93.2402         estimate D2E/DX2                !
 ! D142  D(6,7,13,16)          -73.137          estimate D2E/DX2                !
 ! D143  D(6,7,13,24)           93.7342         estimate D2E/DX2                !
 ! D144  D(6,7,13,36)          179.6036         estimate D2E/DX2                !
 ! D145  D(6,7,13,37)         -174.1173         estimate D2E/DX2                !
 ! D146  D(6,7,13,39)         -121.4861         estimate D2E/DX2                !
 ! D147  D(18,7,13,8)           89.7463         estimate D2E/DX2                !
 ! D148  D(18,7,13,10)         174.5951         estimate D2E/DX2                !
 ! D149  D(18,7,13,16)           8.2178         estimate D2E/DX2                !
 ! D150  D(18,7,13,24)         175.089          estimate D2E/DX2                !
 ! D151  D(18,7,13,36)         -99.0415         estimate D2E/DX2                !
 ! D152  D(18,7,13,37)         -92.7625         estimate D2E/DX2                !
 ! D153  D(18,7,13,39)         -40.1313         estimate D2E/DX2                !
 ! D154  D(6,7,18,16)           89.463          estimate D2E/DX2                !
 ! D155  D(6,7,18,19)          -88.5546         estimate D2E/DX2                !
 ! D156  D(6,7,18,20)           10.2939         estimate D2E/DX2                !
 ! D157  D(6,7,18,39)          137.8224         estimate D2E/DX2                !
 ! D158  D(6,7,18,40)         -173.2328         estimate D2E/DX2                !
 ! D159  D(6,7,18,42)          -39.9608         estimate D2E/DX2                !
 ! D160  D(13,7,18,16)          -8.5011         estimate D2E/DX2                !
 ! D161  D(13,7,18,19)         173.4814         estimate D2E/DX2                !
 ! D162  D(13,7,18,20)         -87.6702         estimate D2E/DX2                !
 ! D163  D(13,7,18,39)          39.8583         estimate D2E/DX2                !
 ! D164  D(13,7,18,40)          88.8031         estimate D2E/DX2                !
 ! D165  D(13,7,18,42)        -137.9249         estimate D2E/DX2                !
 ! D166  D(6,8,9,1)            -40.8416         estimate D2E/DX2                !
 ! D167  D(6,8,9,2)            -93.7625         estimate D2E/DX2                !
 ! D168  D(6,8,9,4)             11.3802         estimate D2E/DX2                !
 ! D169  D(6,8,9,10)            94.8582         estimate D2E/DX2                !
 ! D170  D(6,8,9,12)           -85.804          estimate D2E/DX2                !
 ! D171  D(6,8,9,26)          -178.6267         estimate D2E/DX2                !
 ! D172  D(6,8,9,27)           179.4899         estimate D2E/DX2                !
 ! D173  D(13,8,9,1)          -140.7119         estimate D2E/DX2                !
 ! D174  D(13,8,9,2)           166.3671         estimate D2E/DX2                !
 ! D175  D(13,8,9,4)           -88.4901         estimate D2E/DX2                !
 ! D176  D(13,8,9,10)           -5.0121         estimate D2E/DX2                !
 ! D177  D(13,8,9,12)          174.3257         estimate D2E/DX2                !
 ! D178  D(13,8,9,26)           81.5029         estimate D2E/DX2                !
 ! D179  D(13,8,9,27)           79.6196         estimate D2E/DX2                !
 ! D180  D(6,8,13,7)            -8.8402         estimate D2E/DX2                !
 ! D181  D(6,8,13,10)          -88.9251         estimate D2E/DX2                !
 ! D182  D(6,8,13,16)           85.8589         estimate D2E/DX2                !
 ! D183  D(6,8,13,17)          171.2552         estimate D2E/DX2                !
 ! D184  D(6,8,13,24)         -138.6237         estimate D2E/DX2                !
 ! D185  D(6,8,13,36)         -178.4308         estimate D2E/DX2                !
 ! D186  D(6,8,13,37)          -16.4393         estimate D2E/DX2                !
 ! D187  D(6,8,13,39)           75.2782         estimate D2E/DX2                !
 ! D188  D(9,8,13,7)            85.2977         estimate D2E/DX2                !
 ! D189  D(9,8,13,10)            5.2129         estimate D2E/DX2                !
 ! D190  D(9,8,13,16)          179.9968         estimate D2E/DX2                !
 ! D191  D(9,8,13,17)          -94.6069         estimate D2E/DX2                !
 ! D192  D(9,8,13,24)          -44.4858         estimate D2E/DX2                !
 ! D193  D(9,8,13,36)          -84.2929         estimate D2E/DX2                !
 ! D194  D(9,8,13,37)           77.6986         estimate D2E/DX2                !
 ! D195  D(9,8,13,39)          169.4161         estimate D2E/DX2                !
 ! D196  D(1,9,10,13)           87.4009         estimate D2E/DX2                !
 ! D197  D(1,9,10,24)          166.1732         estimate D2E/DX2                !
 ! D198  D(4,9,10,13)           92.4746         estimate D2E/DX2                !
 ! D199  D(4,9,10,24)          171.247          estimate D2E/DX2                !
 ! D200  D(8,9,10,13)            5.3048         estimate D2E/DX2                !
 ! D201  D(8,9,10,24)           84.0772         estimate D2E/DX2                !
 ! D202  D(11,9,10,13)        -179.4128         estimate D2E/DX2                !
 ! D203  D(11,9,10,24)        -100.6405         estimate D2E/DX2                !
 ! D204  D(12,9,10,13)        -174.0337         estimate D2E/DX2                !
 ! D205  D(12,9,10,24)         -95.2613         estimate D2E/DX2                !
 ! D206  D(26,9,10,13)         -74.5855         estimate D2E/DX2                !
 ! D207  D(26,9,10,24)           4.1869         estimate D2E/DX2                !
 ! D208  D(27,9,10,13)        -125.9725         estimate D2E/DX2                !
 ! D209  D(27,9,10,24)         -47.2002         estimate D2E/DX2                !
 ! D210  D(4,9,12,5)             4.4446         estimate D2E/DX2                !
 ! D211  D(4,9,12,14)          -93.4365         estimate D2E/DX2                !
 ! D212  D(4,9,12,15)          171.3799         estimate D2E/DX2                !
 ! D213  D(4,9,12,21)          -35.5903         estimate D2E/DX2                !
 ! D214  D(8,9,12,5)            97.4302         estimate D2E/DX2                !
 ! D215  D(8,9,12,14)           -0.4509         estimate D2E/DX2                !
 ! D216  D(8,9,12,15)          -95.6345         estimate D2E/DX2                !
 ! D217  D(8,9,12,21)           57.3953         estimate D2E/DX2                !
 ! D218  D(10,9,12,5)          -83.5595         estimate D2E/DX2                !
 ! D219  D(10,9,12,14)         178.5594         estimate D2E/DX2                !
 ! D220  D(10,9,12,15)          83.3758         estimate D2E/DX2                !
 ! D221  D(10,9,12,21)        -123.5944         estimate D2E/DX2                !
 ! D222  D(26,9,12,5)         -177.5435         estimate D2E/DX2                !
 ! D223  D(26,9,12,14)          84.5755         estimate D2E/DX2                !
 ! D224  D(26,9,12,15)         -10.6082         estimate D2E/DX2                !
 ! D225  D(26,9,12,21)         142.4216         estimate D2E/DX2                !
 ! D226  D(1,9,26,24)         -165.4257         estimate D2E/DX2                !
 ! D227  D(2,9,26,24)         -173.8414         estimate D2E/DX2                !
 ! D228  D(4,9,26,24)          -52.22           estimate D2E/DX2                !
 ! D229  D(8,9,26,24)          -87.8542         estimate D2E/DX2                !
 ! D230  D(10,9,26,24)          -3.9024         estimate D2E/DX2                !
 ! D231  D(11,9,26,24)          78.9329         estimate D2E/DX2                !
 ! D232  D(12,9,26,24)         134.4158         estimate D2E/DX2                !
 ! D233  D(1,9,27,15)          -22.9328         estimate D2E/DX2                !
 ! D234  D(1,9,27,28)          143.8376         estimate D2E/DX2                !
 ! D235  D(1,9,27,29)         -114.6412         estimate D2E/DX2                !
 ! D236  D(2,9,27,15)           20.1446         estimate D2E/DX2                !
 ! D237  D(2,9,27,28)         -173.0851         estimate D2E/DX2                !
 ! D238  D(2,9,27,29)          -71.5639         estimate D2E/DX2                !
 ! D239  D(4,9,27,15)          -94.8917         estimate D2E/DX2                !
 ! D240  D(4,9,27,28)           71.8786         estimate D2E/DX2                !
 ! D241  D(4,9,27,29)          173.3999         estimate D2E/DX2                !
 ! D242  D(8,9,27,15)          104.2283         estimate D2E/DX2                !
 ! D243  D(8,9,27,28)          -89.0014         estimate D2E/DX2                !
 ! D244  D(8,9,27,29)           12.5199         estimate D2E/DX2                !
 ! D245  D(10,9,27,15)        -174.403          estimate D2E/DX2                !
 ! D246  D(10,9,27,28)          -7.6326         estimate D2E/DX2                !
 ! D247  D(10,9,27,29)          93.8886         estimate D2E/DX2                !
 ! D248  D(9,10,13,7)          -86.2667         estimate D2E/DX2                !
 ! D249  D(9,10,13,8)           -5.1008         estimate D2E/DX2                !
 ! D250  D(9,10,13,16)         -24.7724         estimate D2E/DX2                !
 ! D251  D(9,10,13,17)          82.7231         estimate D2E/DX2                !
 ! D252  D(9,10,13,36)         138.3681         estimate D2E/DX2                !
 ! D253  D(9,10,13,37)        -166.932          estimate D2E/DX2                !
 ! D254  D(9,10,13,39)        -163.9863         estimate D2E/DX2                !
 ! D255  D(9,10,24,17)         -84.8862         estimate D2E/DX2                !
 ! D256  D(9,10,24,25)         172.0936         estimate D2E/DX2                !
 ! D257  D(9,10,24,26)          -3.9436         estimate D2E/DX2                !
 ! D258  D(9,10,24,28)          83.209          estimate D2E/DX2                !
 ! D259  D(9,10,24,33)         169.2635         estimate D2E/DX2                !
 ! D260  D(9,10,24,36)        -135.7435         estimate D2E/DX2                !
 ! D261  D(9,11,12,27)         -74.1723         estimate D2E/DX2                !
 ! D262  D(1,12,21,22)         143.593          estimate D2E/DX2                !
 ! D263  D(1,12,21,23)         -31.4978         estimate D2E/DX2                !
 ! D264  D(2,12,21,22)        -170.3236         estimate D2E/DX2                !
 ! D265  D(2,12,21,23)          14.5856         estimate D2E/DX2                !
 ! D266  D(9,12,21,22)         139.1218         estimate D2E/DX2                !
 ! D267  D(9,12,21,23)         -35.9689         estimate D2E/DX2                !
 ! D268  D(11,12,21,22)         66.4704         estimate D2E/DX2                !
 ! D269  D(11,12,21,23)       -108.6203         estimate D2E/DX2                !
 ! D270  D(15,12,21,22)        -74.2626         estimate D2E/DX2                !
 ! D271  D(15,12,21,23)        110.6467         estimate D2E/DX2                !
 ! D272  D(1,12,27,26)          35.8027         estimate D2E/DX2                !
 ! D273  D(1,12,27,28)         -73.9602         estimate D2E/DX2                !
 ! D274  D(1,12,27,29)         134.5948         estimate D2E/DX2                !
 ! D275  D(2,12,27,26)         -10.1034         estimate D2E/DX2                !
 ! D276  D(2,12,27,28)        -119.8663         estimate D2E/DX2                !
 ! D277  D(2,12,27,29)          88.6887         estimate D2E/DX2                !
 ! D278  D(5,12,27,26)         103.932          estimate D2E/DX2                !
 ! D279  D(5,12,27,28)          -5.831          estimate D2E/DX2                !
 ! D280  D(5,12,27,29)        -157.2759         estimate D2E/DX2                !
 ! D281  D(14,12,27,26)       -104.2559         estimate D2E/DX2                !
 ! D282  D(14,12,27,28)        145.9812         estimate D2E/DX2                !
 ! D283  D(14,12,27,29)         -5.4637         estimate D2E/DX2                !
 ! D284  D(7,13,16,18)          -7.4729         estimate D2E/DX2                !
 ! D285  D(8,13,16,18)         -86.9919         estimate D2E/DX2                !
 ! D286  D(10,13,16,18)        -67.2787         estimate D2E/DX2                !
 ! D287  D(17,13,16,18)       -176.6357         estimate D2E/DX2                !
 ! D288  D(24,13,16,18)       -173.0344         estimate D2E/DX2                !
 ! D289  D(36,13,16,18)        129.7558         estimate D2E/DX2                !
 ! D290  D(37,13,16,18)         73.994          estimate D2E/DX2                !
 ! D291  D(7,13,24,25)          82.875          estimate D2E/DX2                !
 ! D292  D(7,13,24,26)         -84.901          estimate D2E/DX2                !
 ! D293  D(7,13,24,28)          -1.0232         estimate D2E/DX2                !
 ! D294  D(7,13,24,32)        -167.4647         estimate D2E/DX2                !
 ! D295  D(7,13,24,33)         126.1912         estimate D2E/DX2                !
 ! D296  D(8,13,24,25)         162.2767         estimate D2E/DX2                !
 ! D297  D(8,13,24,26)          -5.4992         estimate D2E/DX2                !
 ! D298  D(8,13,24,28)          78.3786         estimate D2E/DX2                !
 ! D299  D(8,13,24,32)         -88.063          estimate D2E/DX2                !
 ! D300  D(8,13,24,33)        -154.407          estimate D2E/DX2                !
 ! D301  D(16,13,24,25)       -115.9847         estimate D2E/DX2                !
 ! D302  D(16,13,24,26)         76.2393         estimate D2E/DX2                !
 ! D303  D(16,13,24,28)        160.1172         estimate D2E/DX2                !
 ! D304  D(16,13,24,32)         -6.3244         estimate D2E/DX2                !
 ! D305  D(16,13,24,33)        -72.6684         estimate D2E/DX2                !
 ! D306  D(37,13,24,25)         -1.5224         estimate D2E/DX2                !
 ! D307  D(37,13,24,26)       -169.2984         estimate D2E/DX2                !
 ! D308  D(37,13,24,28)        -85.4205         estimate D2E/DX2                !
 ! D309  D(37,13,24,32)        108.1379         estimate D2E/DX2                !
 ! D310  D(37,13,24,33)         41.7939         estimate D2E/DX2                !
 ! D311  D(39,13,24,25)        -50.5413         estimate D2E/DX2                !
 ! D312  D(39,13,24,26)        141.6827         estimate D2E/DX2                !
 ! D313  D(39,13,24,28)       -134.4394         estimate D2E/DX2                !
 ! D314  D(39,13,24,32)         59.119          estimate D2E/DX2                !
 ! D315  D(39,13,24,33)         -7.225          estimate D2E/DX2                !
 ! D316  D(7,13,36,25)         -72.3268         estimate D2E/DX2                !
 ! D317  D(7,13,36,38)          79.0118         estimate D2E/DX2                !
 ! D318  D(8,13,36,25)          92.9669         estimate D2E/DX2                !
 ! D319  D(8,13,36,38)        -115.6945         estimate D2E/DX2                !
 ! D320  D(10,13,36,25)          7.441          estimate D2E/DX2                !
 ! D321  D(10,13,36,38)        158.7796         estimate D2E/DX2                !
 ! D322  D(16,13,36,25)       -177.0738         estimate D2E/DX2                !
 ! D323  D(16,13,36,38)        -25.7352         estimate D2E/DX2                !
 ! D324  D(39,13,36,25)       -140.3339         estimate D2E/DX2                !
 ! D325  D(39,13,36,38)         11.0047         estimate D2E/DX2                !
 ! D326  D(7,13,39,18)          31.3236         estimate D2E/DX2                !
 ! D327  D(7,13,39,38)        -148.196          estimate D2E/DX2                !
 ! D328  D(7,13,39,40)          -2.904          estimate D2E/DX2                !
 ! D329  D(7,13,39,41)         131.4989         estimate D2E/DX2                !
 ! D330  D(8,13,39,18)         -47.3017         estimate D2E/DX2                !
 ! D331  D(8,13,39,38)         133.1787         estimate D2E/DX2                !
 ! D332  D(8,13,39,40)         -81.5293         estimate D2E/DX2                !
 ! D333  D(8,13,39,41)          52.8736         estimate D2E/DX2                !
 ! D334  D(10,13,39,18)        105.0635         estimate D2E/DX2                !
 ! D335  D(10,13,39,38)        -74.4561         estimate D2E/DX2                !
 ! D336  D(10,13,39,40)         70.8359         estimate D2E/DX2                !
 ! D337  D(10,13,39,41)       -154.7612         estimate D2E/DX2                !
 ! D338  D(17,13,39,18)       -140.3543         estimate D2E/DX2                !
 ! D339  D(17,13,39,38)         40.1261         estimate D2E/DX2                !
 ! D340  D(17,13,39,40)       -174.5819         estimate D2E/DX2                !
 ! D341  D(17,13,39,41)        -40.179          estimate D2E/DX2                !
 ! D342  D(24,13,39,18)        177.29           estimate D2E/DX2                !
 ! D343  D(24,13,39,38)         -2.2296         estimate D2E/DX2                !
 ! D344  D(24,13,39,40)        143.0624         estimate D2E/DX2                !
 ! D345  D(24,13,39,41)        -82.5347         estimate D2E/DX2                !
 ! D346  D(36,13,39,18)        170.7526         estimate D2E/DX2                !
 ! D347  D(36,13,39,38)         -8.767          estimate D2E/DX2                !
 ! D348  D(36,13,39,40)        136.525          estimate D2E/DX2                !
 ! D349  D(36,13,39,41)        -89.0721         estimate D2E/DX2                !
 ! D350  D(13,16,18,7)           8.9091         estimate D2E/DX2                !
 ! D351  D(13,16,18,19)       -175.2172         estimate D2E/DX2                !
 ! D352  D(13,16,18,20)        108.7983         estimate D2E/DX2                !
 ! D353  D(13,16,18,40)        -92.18           estimate D2E/DX2                !
 ! D354  D(13,16,18,42)        112.0053         estimate D2E/DX2                !
 ! D355  D(13,17,24,36)         69.16           estimate D2E/DX2                !
 ! D356  D(7,18,20,6)          -10.8709         estimate D2E/DX2                !
 ! D357  D(16,18,20,6)        -111.9201         estimate D2E/DX2                !
 ! D358  D(19,18,20,6)          95.0737         estimate D2E/DX2                !
 ! D359  D(39,18,20,6)        -119.6781         estimate D2E/DX2                !
 ! D360  D(40,18,20,6)         178.3072         estimate D2E/DX2                !
 ! D361  D(7,18,39,13)         -37.5143         estimate D2E/DX2                !
 ! D362  D(7,18,39,37)          10.7543         estimate D2E/DX2                !
 ! D363  D(7,18,39,38)         -36.2882         estimate D2E/DX2                !
 ! D364  D(7,18,39,41)         174.9369         estimate D2E/DX2                !
 ! D365  D(19,18,39,13)       -153.2984         estimate D2E/DX2                !
 ! D366  D(19,18,39,37)       -105.0298         estimate D2E/DX2                !
 ! D367  D(19,18,39,38)       -152.0722         estimate D2E/DX2                !
 ! D368  D(19,18,39,41)         59.1529         estimate D2E/DX2                !
 ! D369  D(20,18,39,13)         73.4738         estimate D2E/DX2                !
 ! D370  D(20,18,39,37)        121.7424         estimate D2E/DX2                !
 ! D371  D(20,18,39,38)         74.6999         estimate D2E/DX2                !
 ! D372  D(20,18,39,41)        -74.075          estimate D2E/DX2                !
 ! D373  D(7,18,42,6)           40.1595         estimate D2E/DX2                !
 ! D374  D(7,18,42,43)         115.5099         estimate D2E/DX2                !
 ! D375  D(7,18,42,44)         -11.2966         estimate D2E/DX2                !
 ! D376  D(7,18,42,45)          40.095          estimate D2E/DX2                !
 ! D377  D(16,18,42,6)         -68.3832         estimate D2E/DX2                !
 ! D378  D(16,18,42,43)          6.9671         estimate D2E/DX2                !
 ! D379  D(16,18,42,44)       -119.8393         estimate D2E/DX2                !
 ! D380  D(16,18,42,45)        -68.4478         estimate D2E/DX2                !
 ! D381  D(40,18,42,6)         144.9721         estimate D2E/DX2                !
 ! D382  D(40,18,42,43)       -139.6776         estimate D2E/DX2                !
 ! D383  D(40,18,42,44)         93.516          estimate D2E/DX2                !
 ! D384  D(40,18,42,45)        144.9075         estimate D2E/DX2                !
 ! D385  D(5,21,23,1)          -22.7732         estimate D2E/DX2                !
 ! D386  D(12,21,23,1)          31.5742         estimate D2E/DX2                !
 ! D387  D(14,21,23,1)          87.6901         estimate D2E/DX2                !
 ! D388  D(22,21,23,1)        -145.4043         estimate D2E/DX2                !
 ! D389  D(10,24,26,9)           4.1062         estimate D2E/DX2                !
 ! D390  D(10,24,26,27)         76.0524         estimate D2E/DX2                !
 ! D391  D(13,24,26,9)          55.3478         estimate D2E/DX2                !
 ! D392  D(13,24,26,27)        127.294          estimate D2E/DX2                !
 ! D393  D(17,24,26,9)         105.7269         estimate D2E/DX2                !
 ! D394  D(17,24,26,27)        177.6732         estimate D2E/DX2                !
 ! D395  D(28,24,26,9)         -76.0835         estimate D2E/DX2                !
 ! D396  D(28,24,26,27)         -4.1373         estimate D2E/DX2                !
 ! D397  D(32,24,26,9)        -166.4642         estimate D2E/DX2                !
 ! D398  D(32,24,26,27)        -94.5179         estimate D2E/DX2                !
 ! D399  D(33,24,26,9)        -168.5673         estimate D2E/DX2                !
 ! D400  D(33,24,26,27)        -96.6211         estimate D2E/DX2                !
 ! D401  D(36,24,26,9)          88.8358         estimate D2E/DX2                !
 ! D402  D(36,24,26,27)        160.782          estimate D2E/DX2                !
 ! D403  D(10,24,28,27)        -81.489          estimate D2E/DX2                !
 ! D404  D(10,24,28,30)       -163.9953         estimate D2E/DX2                !
 ! D405  D(13,24,28,27)        -81.1761         estimate D2E/DX2                !
 ! D406  D(13,24,28,30)       -163.6823         estimate D2E/DX2                !
 ! D407  D(25,24,28,27)       -164.6052         estimate D2E/DX2                !
 ! D408  D(25,24,28,30)        112.8885         estimate D2E/DX2                !
 ! D409  D(26,24,28,27)          3.7798         estimate D2E/DX2                !
 ! D410  D(26,24,28,30)        -78.7264         estimate D2E/DX2                !
 ! D411  D(32,24,28,27)         89.7771         estimate D2E/DX2                !
 ! D412  D(32,24,28,30)          7.2709         estimate D2E/DX2                !
 ! D413  D(33,24,28,27)        143.0903         estimate D2E/DX2                !
 ! D414  D(33,24,28,30)         60.584          estimate D2E/DX2                !
 ! D415  D(36,24,28,27)       -158.6383         estimate D2E/DX2                !
 ! D416  D(36,24,28,30)        118.8554         estimate D2E/DX2                !
 ! D417  D(13,24,32,30)        162.8073         estimate D2E/DX2                !
 ! D418  D(17,24,32,30)        161.528          estimate D2E/DX2                !
 ! D419  D(25,24,32,30)        -94.6297         estimate D2E/DX2                !
 ! D420  D(26,24,32,30)         79.2293         estimate D2E/DX2                !
 ! D421  D(28,24,32,30)         -7.0323         estimate D2E/DX2                !
 ! D422  D(36,24,32,30)       -148.9378         estimate D2E/DX2                !
 ! D423  D(10,24,33,34)        -77.1243         estimate D2E/DX2                !
 ! D424  D(10,24,33,35)         95.285          estimate D2E/DX2                !
 ! D425  D(13,24,33,34)       -140.0695         estimate D2E/DX2                !
 ! D426  D(13,24,33,35)         32.3398         estimate D2E/DX2                !
 ! D427  D(17,24,33,34)        174.076          estimate D2E/DX2                !
 ! D428  D(17,24,33,35)        -13.5148         estimate D2E/DX2                !
 ! D429  D(26,24,33,34)         92.4465         estimate D2E/DX2                !
 ! D430  D(26,24,33,35)        -95.1443         estimate D2E/DX2                !
 ! D431  D(28,24,33,34)          2.9857         estimate D2E/DX2                !
 ! D432  D(28,24,33,35)        175.3949         estimate D2E/DX2                !
 ! D433  D(36,24,33,34)       -140.3145         estimate D2E/DX2                !
 ! D434  D(36,24,33,35)         32.0947         estimate D2E/DX2                !
 ! D435  D(10,24,36,37)         -7.5607         estimate D2E/DX2                !
 ! D436  D(10,24,36,38)        137.7677         estimate D2E/DX2                !
 ! D437  D(26,24,36,37)        -90.1014         estimate D2E/DX2                !
 ! D438  D(26,24,36,38)         55.227          estimate D2E/DX2                !
 ! D439  D(28,24,36,37)         66.1548         estimate D2E/DX2                !
 ! D440  D(28,24,36,38)       -148.5168         estimate D2E/DX2                !
 ! D441  D(32,24,36,37)        173.0558         estimate D2E/DX2                !
 ! D442  D(32,24,36,38)        -41.6157         estimate D2E/DX2                !
 ! D443  D(33,24,36,37)        133.6786         estimate D2E/DX2                !
 ! D444  D(33,24,36,38)        -80.9929         estimate D2E/DX2                !
 ! D445  D(36,25,33,32)         83.5463         estimate D2E/DX2                !
 ! D446  D(36,25,33,34)       -155.0374         estimate D2E/DX2                !
 ! D447  D(36,25,33,35)        -30.7458         estimate D2E/DX2                !
 ! D448  D(33,25,36,13)       -126.0592         estimate D2E/DX2                !
 ! D449  D(33,25,36,17)        -67.6748         estimate D2E/DX2                !
 ! D450  D(33,25,36,37)        176.3348         estimate D2E/DX2                !
 ! D451  D(33,25,36,38)         93.562          estimate D2E/DX2                !
 ! D452  D(24,26,27,11)        -81.4466         estimate D2E/DX2                !
 ! D453  D(24,26,27,12)       -134.5693         estimate D2E/DX2                !
 ! D454  D(24,26,27,15)        171.5321         estimate D2E/DX2                !
 ! D455  D(24,26,27,28)          4.4226         estimate D2E/DX2                !
 ! D456  D(24,26,27,29)         91.8558         estimate D2E/DX2                !
 ! D457  D(9,27,28,24)          52.8571         estimate D2E/DX2                !
 ! D458  D(9,27,28,30)         133.876          estimate D2E/DX2                !
 ! D459  D(11,27,28,24)        106.7792         estimate D2E/DX2                !
 ! D460  D(11,27,28,30)       -172.2019         estimate D2E/DX2                !
 ! D461  D(12,27,28,24)        106.1526         estimate D2E/DX2                !
 ! D462  D(12,27,28,30)       -172.8285         estimate D2E/DX2                !
 ! D463  D(15,27,28,24)       -156.4033         estimate D2E/DX2                !
 ! D464  D(15,27,28,30)        -75.3843         estimate D2E/DX2                !
 ! D465  D(26,27,28,24)         -4.3002         estimate D2E/DX2                !
 ! D466  D(26,27,28,30)         76.7187         estimate D2E/DX2                !
 ! D467  D(29,27,28,24)        -94.3818         estimate D2E/DX2                !
 ! D468  D(29,27,28,30)        -13.3629         estimate D2E/DX2                !
 ! D469  D(9,27,29,30)         -91.4225         estimate D2E/DX2                !
 ! D470  D(11,27,29,30)         80.8937         estimate D2E/DX2                !
 ! D471  D(12,27,29,30)        174.6409         estimate D2E/DX2                !
 ! D472  D(15,27,29,30)        169.8459         estimate D2E/DX2                !
 ! D473  D(26,27,29,30)        -82.9631         estimate D2E/DX2                !
 ! D474  D(28,27,29,30)         13.9806         estimate D2E/DX2                !
 ! D475  D(24,28,30,29)        102.5996         estimate D2E/DX2                !
 ! D476  D(24,28,30,31)       -137.7175         estimate D2E/DX2                !
 ! D477  D(24,28,30,32)         -8.2588         estimate D2E/DX2                !
 ! D478  D(27,28,30,29)         16.4245         estimate D2E/DX2                !
 ! D479  D(27,28,30,31)        136.1074         estimate D2E/DX2                !
 ! D480  D(27,28,30,32)        -94.4338         estimate D2E/DX2                !
 ! D481  D(27,29,30,28)        -16.0123         estimate D2E/DX2                !
 ! D482  D(27,29,30,31)       -139.1512         estimate D2E/DX2                !
 ! D483  D(27,29,30,32)         95.9046         estimate D2E/DX2                !
 ! D484  D(28,30,32,24)          8.637          estimate D2E/DX2                !
 ! D485  D(28,30,32,33)        -57.9863         estimate D2E/DX2                !
 ! D486  D(29,30,32,24)       -101.8952         estimate D2E/DX2                !
 ! D487  D(29,30,32,33)       -168.5185         estimate D2E/DX2                !
 ! D488  D(31,30,32,24)        137.3574         estimate D2E/DX2                !
 ! D489  D(31,30,32,33)         70.7341         estimate D2E/DX2                !
 ! D490  D(30,32,33,25)         69.094          estimate D2E/DX2                !
 ! D491  D(30,32,33,34)        -49.4751         estimate D2E/DX2                !
 ! D492  D(30,32,33,35)       -179.3149         estimate D2E/DX2                !
 ! D493  D(17,36,37,39)         72.0546         estimate D2E/DX2                !
 ! D494  D(24,36,37,39)        128.0137         estimate D2E/DX2                !
 ! D495  D(25,36,37,39)        179.6087         estimate D2E/DX2                !
 ! D496  D(38,36,37,39)        -43.1772         estimate D2E/DX2                !
 ! D497  D(13,36,38,39)        -12.1075         estimate D2E/DX2                !
 ! D498  D(17,36,38,39)        -75.5254         estimate D2E/DX2                !
 ! D499  D(24,36,38,39)       -104.5179         estimate D2E/DX2                !
 ! D500  D(25,36,38,39)        123.9958         estimate D2E/DX2                !
 ! D501  D(37,36,38,39)         42.105          estimate D2E/DX2                !
 ! D502  D(36,37,39,16)        -76.1231         estimate D2E/DX2                !
 ! D503  D(36,37,39,18)       -125.2791         estimate D2E/DX2                !
 ! D504  D(36,37,39,38)         37.7215         estimate D2E/DX2                !
 ! D505  D(36,37,39,40)       -175.0093         estimate D2E/DX2                !
 ! D506  D(36,37,39,41)         83.906          estimate D2E/DX2                !
 ! D507  D(36,38,39,13)          9.6335         estimate D2E/DX2                !
 ! D508  D(36,38,39,16)         60.6334         estimate D2E/DX2                !
[...]
 011627,0.00216028,-0.00001724,0.00000234,0.00002971,-0.00000583,0.0000
 2900,-0.00009957,0.00064555,-0.00352404,0.00100903,0.00064847,-0.00069
 003,-0.00011896,0.00851539,0.00979843,0.00612710,-0.05701075,-0.012260
 01,-0.05710951,-0.03174426,-0.05178793,0.00264226,-0.00039508,0.000074
 20,-0.00006467,0.00000364,-0.00004017,0.00005558,-0.00000967,0.0001575
 1,-0.00022328,-0.00028365,0.00003730,0.00037803,0.00006616,0.00001442,
 0.00002808,-0.00012789,0.00009561,-0.00017694,0.00021373,0.00012435,-0
 .00030437,0.00003866,0.00001149,-0.00015060,-0.00001811,-0.00002180,-0
 .00003519,0.00013711,-0.00009616,0.00022033,0.00004880,-0.00000192,0.0
 0000319,0.00002571,-0.00019057,-0.00004164,-0.00013323,0.00015056,-0.0
 0013487,-0.00001185,-0.00001248,0.00000786,0.00007774,-0.00002027,-0.0
 0003556,-0.00047799,0.00099129,-0.00064188,-0.00041063,0.00012399,-0.0
 0034528,0.00086725,-0.00017832,0.00007729,-0.00067925,-0.00271025,-0.0
 0051552,-0.00232288,0.00042609,-0.00087713,-0.00016651,0.00003432,0.00
 008916,0.24889434,0.00038000,-0.00284257,-0.00287853,0.00012489,0.0002
 8718,0.00000569,-0.00444870,0.00373984,-0.00426820,0.00459514,0.000511
 28,-0.00039850,-0.00017154,0.00003226,0.00019721,-0.00898512,-0.007313
 61,0.00709980,-0.00018602,0.00010185,-0.00029643,-0.00304279,0.0001839
 5,0.00154095,0.00005248,-0.00096391,0.00082424,0.00066653,0.00001943,-
 0.00028039,0.00015253,-0.00007148,0.00024236,-0.00013088,-0.00024093,0
 .00016433,-0.00433500,-0.00057456,-0.00228600,0.00005687,-0.00007276,0
 .00008510,-0.00011298,-0.00007199,-0.00016470,0.00020064,-0.00163776,0
 .00356190,0.00063206,-0.00042434,0.00025860,0.01198114,-0.00710243,0.0
 3081720,-0.01611137,-0.02105859,-0.01153196,-0.05025902,-0.09999697,-0
 .00099863,0.00039856,0.00003085,-0.00010045,-0.00004986,0.00002872,0.0
 0000586,-0.00029938,-0.00002779,0.00003122,-0.00010464,0.00054028,-0.0
 0012807,-0.00005686,-0.00020140,0.00004106,-0.00029662,0.00066756,-0.0
 0044645,-0.00018490,0.00047544,0.00040343,0.00004512,-0.00016052,-0.00
 014190,-0.00004018,-0.00008817,-0.00001691,0.00008974,0.00018917,0.000
 01256,-0.00004296,-0.00003383,0.00004482,0.00024819,-0.00005963,0.0000
 2254,-0.00001437,0.00006475,-0.00007063,-0.00003700,0.00000737,0.00000
 528,0.00005826,-0.00003705,-0.00001407,0.00048189,0.00026896,0.0000240
 6,0.00015944,0.00040208,-0.00024262,0.00001273,-0.00032915,0.00041702,
 -0.00007408,-0.00097341,-0.00187276,-0.00492189,0.00011019,-0.00230185
 ,-0.00013527,-0.00014049,-0.00016699,0.00072666,0.22566766,0.00526024,
 -0.00111780,0.00191062,-0.00061329,-0.00037824,-0.00107554,0.00014319,
 -0.00193665,-0.00342759,0.00237828,0.00239918,0.00258549,0.00033634,-0
 .00000764,0.00032239,0.00156674,0.00574999,-0.00644526,0.00307619,-0.0
 0073101,-0.00289588,0.00308297,0.00176643,-0.00178976,-0.00008937,0.00
 162972,0.00265712,0.00159150,0.00070126,-0.00081966,0.00075307,-0.0002
 7692,0.00027067,-0.00118432,-0.00156991,-0.00062614,-0.00794326,0.0005
 9593,0.00405214,0.00022434,0.00021532,-0.00006629,-0.00017494,0.000294
 32,-0.00017565,0.00022316,-0.00206113,-0.00008193,0.00231108,-0.000970
 82,0.00060688,0.02892538,0.01132618,-0.00969614,-0.05968231,-0.0106076
 2,-0.09820912,0.00055012,0.00369326,-0.00523201,-0.00183133,0.00003519
 ,-0.00062871,0.00004189,-0.00030142,0.00027813,-0.00000897,0.00053483,
 0.00031569,-0.00353681,0.00128873,0.00110403,-0.00000272,0.00009403,-0
 .00020484,-0.00054290,0.00036990,-0.00072304,0.00260751,0.00013645,-0.
 00048343,0.00000125,-0.00000842,-0.00045251,-0.00020094,-0.00017226,-0
 .00036184,0.00069802,-0.00015519,0.00115303,0.00020855,-0.00007980,0.0
 0001989,0.00009209,-0.00049819,-0.00028479,0.00066104,-0.00019978,-0.0
 0017652,-0.00033955,0.00005909,0.00022613,-0.00067699,0.00000638,-0.00
 018256,0.00110298,-0.00159710,-0.00036333,-0.00099732,0.00126917,-0.00
 130801,-0.00134309,0.00015449,0.00061349,0.00085053,0.00250125,-0.0089
 5501,-0.00023263,0.00407212,-0.00471596,0.00111477,-0.00027740,0.00003
 800,0.02641096,-0.01888007,0.24772441,-0.00003362,0.00138030,0.0008607
 8,0.00029733,-0.00028271,0.00073850,-0.00237026,-0.00189768,0.00073974
 ,-0.00052993,-0.00000030,-0.00079019,-0.00005973,-0.00008166,-0.000177
 10,-0.00251409,-0.00666516,0.00446991,-0.00020131,0.00024430,0.0003356
 0,0.00040555,-0.00026256,0.00112908,-0.00046992,-0.00029478,-0.0012131
 2,0.00002022,-0.00002680,0.00021737,-0.00024840,-0.00016299,-0.0000789
 7,0.00095382,0.00149922,-0.00010468,0.00032396,0.00024767,-0.00055878,
 0.00007009,0.00008454,-0.00002641,-0.00013096,-0.00022508,0.00020568,0
 .00011672,-0.00016539,0.00070111,-0.00023231,0.00010931,-0.00003984,0.
 00137410,0.00401032,-0.00635597,0.00172897,-0.00056013,0.00148482,-0.0
 0095818,-0.00120059,0.00101378,0.00037229,-0.00052681,0.00000046,-0.00
 014969,0.00030751,-0.00013286,-0.00038983,0.00005994,-0.00023546,0.000
 45484,-0.00034314,-0.00016832,0.00003349,0.00000665,0.00008669,0.00026
 912,-0.00012958,0.00019289,-0.00066753,-0.00040481,0.00044704,-0.00000
 094,0.00001258,0.00007476,0.00001800,0.00006983,-0.00000799,0.00009554
 ,0.00006312,-0.00028784,-0.00016684,0.00001462,0.00009604,0.00001747,0
 .00002789,0.00001272,-0.00005880,0.00009552,-0.00007147,-0.00002762,0.
 00001052,0.00005020,0.00010989,-0.00007627,0.00001966,-0.00029251,0.00
 023936,0.00006152,0.00013545,-0.00029855,0.00015787,0.00027310,-0.0000
 5966,-0.00006021,-0.00064260,-0.00072241,0.00088445,-0.00056385,-0.000
 19256,0.00029111,0.00013215,-0.00011471,0.00006889,-0.00848106,0.00133
 924,0.02959351,0.10334830,0.00020259,0.00035523,0.00154461,-0.00022743
 ,-0.00015275,-0.00013456,0.00036448,0.00077310,0.00243031,-0.00063259,
 -0.00000063,0.00007170,0.00017724,0.00021555,-0.00027516,0.00018232,0.
 00159500,-0.00088456,0.00000760,-0.00029555,-0.00041568,-0.00012703,-0
 .00009512,-0.00015435,0.00037958,0.00033552,-0.00012403,0.00010069,0.0
 0003555,0.00004416,0.00008933,0.00009940,0.00003578,-0.00001099,-0.000
 40769,-0.00052078,-0.00014308,0.00025553,0.00057875,-0.00003615,-0.000
 02527,0.00000839,0.00000289,0.00007759,0.00007288,0.00017437,-0.000187
 10,-0.00020475,-0.00001517,-0.00005736,-0.00003774,-0.00029684,0.00187
 265,-0.00117574,0.00180482,-0.00135308,0.00080881,-0.00479077,-0.00080
 244,0.00559389,-0.00030008,0.00012095,0.00006807,0.00005043,-0.0000585
 2,0.00002398,0.00002195,-0.00005458,-0.00004468,-0.00011873,0.00006629
 ,-0.00007553,0.00000411,0.00002457,-0.00001763,-0.00011785,-0.00008864
 ,-0.00007745,0.00013721,-0.00015958,-0.00017910,0.00002033,0.00001338,
 -0.00002582,-0.00001154,-0.00000241,-0.00001947,-0.00002120,-0.0000321
 8,0.00007841,0.00004371,0.00000314,-0.00002863,-0.00001322,-0.00000577
 ,-0.00000283,0.00001473,-0.00005526,0.00001344,0.00001462,-0.00000021,
 -0.00001547,-0.00002628,0.00002173,0.00000430,0.00003406,-0.00000083,-
 0.00004455,0.00002612,0.00001140,0.00001052,0.00003322,0.00007767,-0.0
 0005798,0.00000106,-0.00030620,0.00006096,0.00028904,0.00021577,0.0004
 9435,-0.00001815,0.00001943,-0.00000105,-0.00188448,-0.00858260,-0.014
 85720,-0.05457051,0.05100049,-0.00014776,0.00059371,0.00003096,0.00007
 895,0.00002998,0.00024387,-0.00081902,0.00067832,0.00237332,-0.0009670
 6,-0.00032219,-0.00021377,-0.00016029,-0.00016344,-0.00031596,0.005624
 31,-0.00391613,0.00059378,-0.00015994,0.00008997,0.00025783,-0.0013958
 3,0.00028281,0.00069833,-0.00007934,-0.00003847,-0.00067949,-0.0003992
 0,-0.00006040,0.00017513,-0.00009737,0.00009718,-0.00001152,0.00007922
 ,0.00031509,0.00013395,0.00166366,0.00013938,-0.00086601,-0.00008653,-
 0.00010130,0.00006889,0.00005180,-0.00007944,0.00005586,0.00002678,0.0
 0037532,0.00055597,-0.00046138,0.00014930,-0.00015137,-0.00050050,0.00
 467165,-0.00886105,-0.00703828,0.00063696,-0.00191461,0.00377191,0.004
 13941,-0.00333140,0.00043457,0.00028699,-0.00003015,0.00002772,-0.0000
 6039,0.00000199,-0.00035019,-0.00014923,0.00004049,0.00084280,-0.00031
 589,-0.00018434,0.00000714,-0.00002104,0.00004987,-0.00003396,-0.00013
 484,0.00014328,-0.00053706,-0.00016381,-0.00003837,0.00004051,0.000016
 47,0.00011516,0.00004616,0.00003635,0.00009494,-0.00026211,0.00003393,
 -0.00023709,0.00001180,0.00001815,-0.00004993,-0.00004854,0.00012017,0
 .00006930,-0.00020985,0.00006455,0.00006961,0.00012542,-0.00002966,-0.
 00009579,0.00016667,0.00000420,0.00004789,-0.00037276,0.00058707,0.000
 05198,-0.00001602,-0.00022233,0.00024903,0.00043340,-0.00008667,-0.000
 15383,-0.00019925,-0.00120173,0.00207095,-0.00069145,-0.00136774,0.000
 96921,-0.00030016,0.00009286,-0.00005407,0.02161676,-0.01612590,-0.084
 63458,-0.05181822,0.02826575,0.11219091,0.00085467,-0.00025733,-0.0008
 0446,0.00026383,0.00007315,-0.00000583,-0.00051586,-0.00307592,-0.0026
 3637,-0.00787071,-0.00359622,0.00273077,0.00007823,-0.00013875,0.00025
 127,-0.01553697,-0.02311286,-0.00764779,-0.00097992,-0.00231045,0.0011
 3330,-0.00049258,-0.00109891,0.00530672,-0.00113392,0.00055742,0.00024
 862,-0.00000999,0.00023531,-0.00005850,0.00001468,-0.00001625,0.000163
 72,-0.00023445,-0.00013780,-0.00007059,-0.00036136,-0.00045814,-0.0005
 2678,0.00005739,0.00003292,-0.00002415,-0.00001152,-0.00002967,-0.0001
 2006,0.00000211,-0.00005957,0.00020212,-0.00030244,0.00006917,0.000121
 24,-0.00003091,-0.00037433,0.00331392,-0.00173766,0.00099748,-0.002018
 88,0.00311918,0.00332164,0.00159651,-0.00023118,-0.00015662,-0.0000797
 4,-0.00001818,0.00000395,0.00001999,-0.00004863,0.00013615,0.00013783,
 -0.00001335,-0.00017276,-0.00016395,-0.00001638,-0.00004097,-0.0000387
 6,-0.00034405,0.00000104,0.00011748,-0.00001255,0.00012512,0.00006752,
 0.00010352,-0.00000987,-0.00000707,-0.00001090,-0.00004499,0.00007595,
 -0.00007608,-0.00002159,-0.00006121,-0.00002494,-0.00000497,0.00001189
 ,-0.00006496,0.00011614,0.00001894,0.00007792,-0.00009581,0.00000010,-
 0.00003178,0.00002325,0.00000859,0.00001970,0.00002095,0.00001299,0.00
 007179,0.00041273,-0.00011786,0.00025683,-0.00004493,0.00021738,0.0002
 7579,-0.00003245,0.00003052,-0.00046941,-0.00039083,0.00006081,-0.0002
 0000,0.00049052,-0.00055190,0.00014809,0.00001121,-0.00004790,-0.05001
 658,0.04602580,0.00131769,0.00323737,0.00486223,0.00360382,0.07582746,
 -0.00012826,-0.00083225,0.00114932,0.00020825,-0.00013350,-0.00011872,
 0.00016487,0.00043054,-0.00070539,0.00092330,0.00264665,0.00058380,-0.
 00029164,0.00021590,-0.00043820,-0.02642836,-0.05284086,-0.01146106,-0
 .00212105,-0.00075789,0.00359680,-0.00195309,-0.00111801,0.00620340,0.
 00034840,-0.00073598,0.00073578,-0.00045274,-0.00004360,-0.00000592,-0
 .00021396,0.00001967,-0.00000673,0.00019245,0.00036126,0.00006724,-0.0
 0039741,-0.00036346,-0.00082107,0.00002596,0.00004788,-0.00006077,-0.0
 0003785,-0.00003725,0.00001272,-0.00024614,0.00026163,-0.00047881,-0.0
 0018729,0.00018178,0.00010564,0.00000642,-0.00245200,0.00025932,0.0016
 2328,0.00105170,0.00068079,-0.00450036,-0.00227507,-0.00027722,0.00010
 963,-0.00007879,0.00037047,-0.00004567,0.00023596,-0.00015635,0.000402
 09,-0.00043428,0.00001908,0.00007881,-0.00004076,-0.00016081,-0.000012
 65,-0.00002095,-0.00000348,0.00000494,0.00004850,0.00008789,-0.0002830
 3,-0.00006527,0.00016153,0.00004859,-0.00000787,0.00006501,0.00000703,
 0.00002113,-0.00000477,0.00001902,0.00005277,-0.00015140,-0.00007902,-
 0.00000176,0.00003973,-0.00000367,0.00008445,0.00000860,0.00011755,-0.
 00007521,-0.00002247,-0.00005123,0.00002710,0.00004390,0.00000808,-0.0
 0002070,0.00001771,0.00004683,0.00015232,-0.00002738,0.00018508,-0.000
 09056,0.00031363,0.00011032,0.00000003,0.00003794,-0.00010471,0.000262
 22,0.00010985,0.00002383,0.00004109,0.00017089,0.00008729,-0.00009001,
 -0.00003008,0.05563944,-0.06145320,-0.01012658,0.00111063,-0.00010166,
 0.00127130,-0.01851978,0.13452157,0.00041261,0.00008986,-0.00097451,0.
 00013092,-0.00006594,0.00041094,-0.00385510,-0.00196603,0.00008343,0.0
 0226879,0.00143153,0.00025856,-0.00027777,-0.00013234,0.00007587,-0.01
 194148,-0.01256042,0.00074432,0.00193909,0.00587003,-0.00474653,0.0014
 6719,-0.00028676,-0.00087976,0.00028446,-0.00045193,-0.00068183,-0.000
 19122,-0.00014601,0.00022486,0.00002786,-0.00012964,-0.00010216,0.0001
 9161,0.00060702,0.00046099,0.00033531,0.00079389,-0.00042365,0.0000195
 0,-0.00002727,-0.00002261,0.00001642,-0.00008793,0.00003404,0.00017836
 ,-0.00004484,-0.00054744,-0.00005432,-0.00001995,-0.00014985,-0.001950
 24,0.00155071,-0.00234746,-0.00244535,0.00339243,-0.00088786,0.0006076
 9,0.00245797,0.00143384,0.00045917,0.00002185,0.00006899,-0.00002764,0
 .00010946,-0.00005888,-0.00003824,-0.00024293,0.00017888,0.00036921,0.
 00004848,-0.00004061,0.00000502,0.00001321,0.00003447,0.00020408,-0.00
 000628,0.00000235,-0.00031155,-0.00024811,0.00024567,-0.00001537,-0.00
 000404,0.00009065,0.00001703,0.00002778,-0.00002481,-0.00005899,0.0000
 7246,-0.00014514,-0.00002524,0.00000651,0.00000695,0.00003574,0.000006
 64,0.00001755,-0.00007269,0.00005680,0.00000528,0.00003717,-0.00001800
 ,-0.00000873,0.00004728,-0.00003398,0.00001098,-0.00018864,0.00013190,
 -0.00003451,0.00009248,-0.00021396,0.00010703,0.00010248,0.00001644,-0
 .00001668,-0.00005093,0.00004205,0.00051032,-0.00014142,-0.00017255,0.
 00070646,-0.00000537,-0.00004032,0.00000467,0.01185929,-0.01420925,-0.
 00774669,0.00177638,-0.00293440,-0.00376025,0.00338362,0.05388627,0.10
 788882,-0.01168019,-0.00061092,-0.00073237,-0.00010146,-0.00044625,-0.
 00025837,-0.05769809,-0.04290766,-0.01455887,0.00169610,0.00044909,0.0
 0109989,-0.00042127,-0.00058976,0.00003092,-0.01447705,-0.00622801,0.0
 2493306,0.00004300,0.00102402,-0.00149432,-0.00188650,-0.00141652,-0.0
 0089853,0.00016103,-0.00132805,0.00107136,-0.00042920,-0.00005667,-0.0
 0024896,0.00004013,-0.00001536,0.00002018,0.00000881,-0.00026813,0.001
 56538,0.00097852,-0.00023041,-0.00068306,0.00037600,0.00029987,-0.0002
 5966,0.00014085,0.00020831,-0.00044408,-0.00035509,-0.00005032,-0.0008
 9904,-0.00009324,0.00022192,-0.00004734,0.00241274,-0.00338805,0.00613
 352,0.00085829,-0.00091591,-0.00329509,-0.00157639,0.00187085,-0.00299
 475,-0.00129869,0.00121102,0.00093517,0.00018590,-0.00027965,0.0003302
 7,0.00368320,-0.00172627,0.00078287,-0.00022055,0.00010881,0.00015177,
 -0.00000755,-0.00005957,-0.00003760,-0.00016641,0.00028252,-0.00007390
 ,0.00058207,0.00058807,-0.00016692,-0.00000114,-0.00004353,-0.00006242
 ,0.00001297,-0.00008435,0.00007482,-0.00020501,-0.00008101,0.00025109,
 0.00017481,-0.00001351,-0.00011740,-0.00004879,0.00002942,-0.00000704,
 -0.00001930,-0.00009660,0.00010455,0.00005507,-0.00000534,-0.00007986,
 -0.00008413,0.00010620,-0.00001731,0.00023202,-0.00009465,0.00020975,-
 0.00033377,0.00051408,-0.00017383,-0.00012810,0.00003962,-0.00000702,0
 .00065017,0.00029281,-0.00068638,-0.00037434,-0.00001831,-0.00085185,-
 0.00019343,0.00025508,-0.00018040,-0.02531255,0.02561356,-0.03572265,-
 0.09459778,0.05432336,0.02849870,-0.00361132,-0.00543418,-0.00461717,0
 .20302967,-0.00690708,0.00470532,-0.00249529,-0.00038437,0.00003317,-0
 .00041325,-0.04609926,-0.04992928,-0.01216088,0.00122913,0.00027211,0.
 00039989,0.00138742,-0.00049068,0.00194110,-0.00371377,-0.02240640,0.0
 2082387,0.00099848,0.00098732,0.00064062,-0.00126985,0.00079376,0.0011
 9106,-0.00018161,-0.00107330,0.00073116,-0.00043825,0.00001945,-0.0001
 7840,0.00006613,0.00031178,-0.00007043,-0.00068864,-0.00171904,0.00042
 752,0.00034577,-0.00089370,-0.00124852,-0.00000733,0.00023846,-0.00001
 758,0.00020324,0.00036582,-0.00037191,-0.00043294,0.00027833,0.0007953
 3,-0.00000929,0.00013923,0.00007856,0.00111042,-0.00066366,-0.00166043
 ,0.00139644,0.00413638,0.00305663,0.00455790,-0.00587796,0.01065413,-0
 .00013807,-0.00049965,-0.00017685,0.00013357,-0.00039225,0.00024050,0.
 00126088,0.00023386,-0.00014631,-0.00027054,-0.00002324,0.00023427,0.0
 0006435,-0.00000314,-0.00006282,-0.00018032,0.00014832,-0.00002538,0.0
 0064666,0.00075740,-0.00051328,0.00001379,-0.00002543,-0.00007862,0.00
 002488,-0.00003837,0.00009368,-0.00007743,-0.00011766,0.00019397,0.000
 09010,-0.00000437,-0.00004985,-0.00007699,0.00003082,-0.00002377,0.000
 05763,-0.00006732,0.00000369,-0.00001739,0.00001187,-0.00000806,-0.000
 04979,0.00007303,-0.00002191,-0.00013596,-0.00008076,0.00029421,-0.000
 09738,0.00017729,-0.00003905,0.00004498,0.00006555,-0.00005443,0.00009
 626,-0.00021425,0.00020598,0.00057925,-0.00045515,-0.00108582,-0.00018
 497,0.00007964,0.00004705,0.01308620,-0.01886968,0.02791796,0.05833175
 ,-0.04436449,-0.01843630,-0.00331442,-0.01659326,-0.03659039,-0.021049
 60,0.15094409,-0.00032962,0.00364343,0.00256092,0.00017038,-0.00033640
 ,-0.00011732,0.00136147,-0.00818772,-0.01140194,-0.00007783,-0.0032352
 6,-0.00082121,-0.00057316,-0.00085130,0.00019901,0.01531344,0.02901481
 ,-0.05692010,-0.00362331,0.00307424,-0.00145401,0.00274212,0.00371037,
 0.00563349,-0.00148972,0.00062226,0.00067345,-0.00013194,-0.00020180,-
 0.00033633,-0.00012829,-0.00037760,-0.00026770,0.00041558,0.00035076,0
 .00166446,0.00014592,-0.00107765,0.00096945,0.00018012,0.00025938,-0.0
 0020332,-0.00008861,-0.00017335,-0.00014385,-0.00015282,-0.00017652,0.
 00034845,-0.00030661,0.00011665,0.00005168,0.00277006,0.00050098,-0.00
 495512,-0.00223712,-0.00339534,-0.00372195,-0.00357041,0.00275910,-0.0
 0340790,0.00020681,-0.00006430,0.00040411,-0.00014341,0.00032675,-0.00
 006725,0.00170008,-0.00062475,0.00000214,0.00050305,-0.00053761,0.0003
 4046,0.00003259,-0.00006147,0.00005266,0.00015124,-0.00058378,0.000900
 78,-0.00037571,0.00000020,0.00010322,0.00004874,0.00003349,0.00007321,
 0.00004150,0.00001092,0.00009855,-0.00003505,0.00003507,-0.00029748,-0
 .00013399,-0.00000003,0.00006611,-0.00006469,0.00008830,0.00003147,-0.
 00009950,0.00019256,-0.00008458,-0.00000394,0.00000611,-0.00001175,0.0
 0024257,-0.00010505,0.00004422,-0.00055192,0.00085065,-0.00066025,-0.0
 0020386,0.00004356,-0.00012327,0.00064069,-0.00006468,0.00005899,-0.00
 000487,-0.00079040,0.00035184,-0.00160400,0.00005654,0.00045942,0.0000
 9597,0.00001587,-0.00020459,-0.02150021,0.03201604,-0.02211533,0.01641
 687,-0.01789993,-0.01576893,-0.00917149,-0.04494140,-0.09000595,0.0034
 2288,0.00595831,0.19800204\\0.00000910,-0.00002066,-0.00000298,-0.0000
 1298,-0.00001055,-0.00000114,-0.00001206,0.00001130,-0.00000827,0.0000
 0252,-0.00000031,-0.00000356,-0.00000558,0.00000379,0.00001558,0.00000
 597,-0.00000345,0.00000570,0.00000016,-0.00000282,-0.00000195,0.000002
 39,0.00000221,-0.00000464,0.00001701,0.00001975,0.00001618,-0.00000168
 ,0.00000064,0.00000118,-0.00000047,-0.00000289,0.00000678,-0.00001213,
 0.00001458,-0.00005456,-0.00000137,-0.00000227,0.00000059,-0.00000420,
 -0.00002117,0.00001067,-0.00000134,-0.00000472,0.00001347,0.00000114,-
 0.00000082,-0.00000057,-0.00000113,-0.00000130,-0.00000019,-0.00000224
 ,-0.00000359,0.00000210,0.00000134,-0.00000122,0.00000009,0.00000137,0
 .00000113,0.00000298,0.00000552,0.00004080,0.00000616,-0.00000568,-0.0
 0000848,0.00000004,0.00001946,-0.00001161,0.00000853,-0.00000510,0.000
 00783,-0.00000279,0.00000199,0.00000293,0.00000121,-0.00000195,-0.0000
 0272,0.00000023,0.00000130,0.00000759,-0.00001365,-0.00000505,-0.00000
 044,-0.00000196,0.00000141,-0.00000171,0.00000326,0.00000029,-0.000001
 04,-0.00000021,0.00000054,0.00000030,0.00000078,-0.00000061,0.00000006
 ,0.00000189,-0.00000519,0.00000078,-0.00000058,-0.00000267,0.00000204,
 -0.00000072,-0.00000178,-0.00000870,0.00000450,0.00000458,-0.00000149,
 -0.00000413,0.00000075,0.00000158,-0.00000142,0.00000432,-0.00000036,0
 .00000287,-0.00000065,0.00000770,-0.00000330,-0.00000026,-0.00000094,0
 .00000089,-0.00000164,-0.00000221,0.00000154,0.00000182,-0.00000485,-0
 .00000409,0.00000214,0.00000208,0.00000099,0.00000130,-0.00000005,-0.0
 0000071,-0.00000065,-0.00000672,0.00000321\\\@
 The archive entry for this job was punched.


 NEVER TEACH A PIG TO SING.
 IT WASTES YOUR TIME AND ANNOYS THE PIG.
     -- SEEN ON A GREETING CARD
 Job cpu time:       1 days 22 hours 31 minutes 45.0 seconds.
 Elapsed time:       0 days  0 hours 58 minutes 20.8 seconds.
 File lengths (MBytes):  RWF=   5271 Int=      0 D2E=      0 Chk=     71 Scr=      2
 Normal termination of Gaussian 16 at Mon Jan 23 20:02:36 2023.
