 Entering Gaussian System, Link 0=/apps/GAU16/avx2/g16/g16
 Initial command:
 /apps/GAU16/avx2/g16/l1.exe "/localscratch/chesha/scratch/Gau-98128.inp" -scrdir="/localscratch/chesha/scratch/"
 Entering Link 1 = /apps/GAU16/avx2/g16/l1.exe PID=     98129.
  
 Copyright (c) 1988-2019, Gaussian, Inc.  All Rights Reserved.
  
 This is part of the Gaussian(R) 16 program.  It is based on
 the Gaussian(R) 09 system (copyright 2009, Gaussian, Inc.),
 the Gaussian(R) 03 system (copyright 2003, Gaussian, Inc.),
 the Gaussian(R) 98 system (copyright 1998, Gaussian, Inc.),
 the Gaussian(R) 94 system (copyright 1995, Gaussian, Inc.),
 the Gaussian 92(TM) system (copyright 1992, Gaussian, Inc.),
 the Gaussian 90(TM) system (copyright 1990, Gaussian, Inc.),
 the Gaussian 88(TM) system (copyright 1988, Gaussian, Inc.),
 the Gaussian 86(TM) system (copyright 1986, Carnegie Mellon
 University), and the Gaussian 82(TM) system (copyright 1983,
 Carnegie Mellon University). Gaussian is a federally registered
 trademark of Gaussian, Inc.
  
 This software contains proprietary and confidential information,
 including trade secrets, belonging to Gaussian, Inc.
  
 This software is provided under written license and may be
 used, copied, transmitted, or stored only in accord with that
 written license.
  
 The following legend is applicable only to US Government
 contracts under FAR:
  
                    RESTRICTED RIGHTS LEGEND
  
 Use, reproduction and disclosure by the US Government is
 subject to restrictions as set forth in subparagraphs (a)
 and (c) of the Commercial Computer Software - Restricted
 Rights clause in FAR 52.227-19.
  
 Gaussian, Inc.
 340 Quinnipiac St., Bldg. 40, Wallingford CT 06492
  
  
 ---------------------------------------------------------------
 Warning -- This program may not be used in any manner that
 competes with the business of Gaussian, Inc. or will provide
 assistance to any competitor of Gaussian, Inc.  The licensee
 of this program is prohibited from giving any competitor of
 Gaussian, Inc. access to this program.  By using this program,
 the user acknowledges that Gaussian, Inc. is engaged in the
 business of creating and licensing software in the field of
 computational chemistry and represents and warrants to the
 licensee that it is not a competitor of Gaussian, Inc. and that
 it will not use this program in any manner prohibited above.
 ---------------------------------------------------------------
  

 Cite this work as:
 Gaussian 16, Revision C.01,
 M. J. Frisch, G. W. Trucks, H. B. Schlegel, G. E. Scuseria, 
 M. A. Robb, J. R. Cheeseman, G. Scalmani, V. Barone, 
 G. A. Petersson, H. Nakatsuji, X. Li, M. Caricato, A. V. Marenich, 
 J. Bloino, B. G. Janesko, R. Gomperts, B. Mennucci, H. P. Hratchian, 
 J. V. Ortiz, A. F. Izmaylov, J. L. Sonnenberg, D. Williams-Young, 
 F. Ding, F. Lipparini, F. Egidi, J. Goings, B. Peng, A. Petrone, 
 T. Henderson, D. Ranasinghe, V. G. Zakrzewski, J. Gao, N. Rega, 
 G. Zheng, W. Liang, M. Hada, M. Ehara, K. Toyota, R. Fukuda, 
 J. Hasegawa, M. Ishida, T. Nakajima, Y. Honda, O. Kitao, H. Nakai, 
 T. Vreven, K. Throssell, J. A. Montgomery, Jr., J. E. Peralta, 
 F. Ogliaro, M. J. Bearpark, J. J. Heyd, E. N. Brothers, K. N. Kudin, 
 V. N. Staroverov, T. A. Keith, R. Kobayashi, J. Normand, 
 K. Raghavachari, A. P. Rendell, J. C. Burant, S. S. Iyengar, 
 J. Tomasi, M. Cossi, J. M. Millam, M. Klene, C. Adamo, R. Cammi, 
 J. W. Ochterski, R. L. Martin, K. Morokuma, O. Farkas, 
 J. B. Foresman, and D. J. Fox, Gaussian, Inc., Wallingford CT, 2019.
 
 ******************************************
 Gaussian 16:  ES64L-G16RevC.01  3-Jul-2019
                23-Dec-2022 
 ******************************************
 %nprocshared=48
 Will use up to   48 processors via shared memory.
 %mem=100GB
 ---------------------------------------
 # opt freq b3lyp/gen nosymm pseudo=read
 ---------------------------------------
 1/18=20,19=15,26=3,38=1/1,3;
 2/9=110,12=2,15=1,17=6,18=5,40=1/2;
 3/5=7,11=2,16=1,17=8,25=1,30=1,71=1,74=-5/1,2,3;
 4//1;
 5/5=2,38=5/2;
 6/7=2,8=2,9=2,10=2,28=1/1;
 7/30=1/1,2,3,16;
 1/18=20,19=15,26=3/3(2);
 2/9=110,15=1/2;
 99//99;
 2/9=110,15=1/2;
 3/5=7,6=1,11=2,16=1,17=8,25=1,30=1,71=1,74=-5,82=7/1,2,3;
 4/5=5,16=3,69=1/1;
 5/5=2,38=5/2;
 7/30=1/1,2,3,16;
 1/18=20,19=15,26=3/3(-5);
 2/9=110,15=1/2;
 6/7=2,8=2,9=2,10=2,19=2,28=1/1;
 99/9=1/99;
 -------------------
 Title Card Required
 -------------------
 Symbolic Z-matrix:
 Charge =  0 Multiplicity = 1
 42                   -0.27227   1.66128   12.79743 
 16                    1.15137   3.82428   12.60893 
 16                   -2.05004   3.16587   13.44172 
 16                   -0.58185   1.41871   10.39804 
 16                    1.96125   0.23507   12.44256 
 42                   -2.55787   2.69741   11.12709 
 16                   -2.88098   2.58344   8.55976 
 16                   -1.14945   4.70207   10.52192 
 42                    0.91648   3.33224   10.30068 
 16                    0.17364   3.22526   7.84785 
 16                    2.62665   1.70775   9.64125 
 42                    2.90865   2.46769   11.90029 
 42                   -1.66449   4.83062   8.00919 
 16                    3.73531   2.53632   14.36928 
 16                    4.67859   3.89788   11.54252 
 16                   -3.52765   6.16955   8.91204 
 16                   -0.42343   6.89017   7.8847 
 42                   -4.53705   3.98693   8.96448 
 16                   -6.46013   2.35036   9.66819 
 16                   -4.32062   4.41929   11.41027 
 42                    2.32929   0.84925   14.66808 
 16                    3.09627  -0.52964   16.07483 
 16                    0.38659   1.93176   15.35023 
 42                    1.36474   5.28672   7.24877 
 16                    0.6113    4.72221   4.94855 
 16                    1.85592   5.53127   9.78697 
 42                    3.47506   3.936     9.49667 
 16                    3.31127   3.58811   7.01868 
 16                    5.3043    5.71933   9.0316 
 42                    4.47118   5.58028   7.01405 
 16                    6.02139   5.68853   5.58537 
 16                    2.88371   7.31776   6.96625 
 42                    1.83806   6.73681   4.87026 
 16                    3.28258   6.4968    3.32872 
 16                    0.28917   8.22538   4.57462 
 42                   -1.15184   6.18405   5.75587 
 16                   -2.47136   4.18694   5.74876 
 16                   -2.86124   7.30635   4.92693 
 42                   -4.1967    5.76519   6.70437 
 16                   -5.64286   3.94557   6.92107 
 16                   -5.62657   7.3349    6.37361 
 42                   -5.22764   2.26504   11.52307 
 16                   -5.57871   1.76948   13.63694 
 16                   -3.72421   0.5115    11.09036 
 42                   -2.98417   1.00516   13.3766 
 16                   -1.28044  -0.54752   12.75452 
 16                   -3.07558   0.55271   15.73202 
 42                   -0.96632   0.03461   15.02684 
 6                     0.0637   -1.73474   15.088 
 8                     0.43595  -2.82322   15.16334 
 

 GradGradGradGradGradGradGradGradGradGradGradGradGradGradGradGradGradGrad
 Berny optimization.
 Initialization pass.
                           ----------------------------
                           !    Initial Parameters    !
                           ! (Angstroms and Degrees)  !
 --------------------------                            --------------------------
 ! Name  Definition              Value          Derivative Info.                !
 --------------------------------------------------------------------------------
 ! R1    R(1,2)                  2.5963         estimate D2E/DX2                !
 ! R2    R(1,3)                  2.4165         estimate D2E/DX2                !
 ! R3    R(1,4)                  2.4314         estimate D2E/DX2                !
 ! R4    R(1,5)                  2.6737         estimate D2E/DX2                !
 ! R5    R(1,6)                  3.0146         estimate D2E/DX2                !
 ! R6    R(1,23)                 2.6503         estimate D2E/DX2                !
 ! R7    R(1,45)                 2.8496         estimate D2E/DX2                !
 ! R8    R(1,46)                 2.4284         estimate D2E/DX2                !
 ! R9    R(1,48)                 2.8457         estimate D2E/DX2                !
 ! R10   R(2,9)                  2.3718         estimate D2E/DX2                !
 ! R11   R(2,12)                 2.3304         estimate D2E/DX2                !
 ! R12   R(3,6)                  2.4155         estimate D2E/DX2                !
 ! R13   R(3,45)                 2.3549         estimate D2E/DX2                !
 ! R14   R(4,6)                  2.464          estimate D2E/DX2                !
 ! R15   R(4,9)                  2.4323         estimate D2E/DX2                !
 ! R16   R(5,12)                 2.4852         estimate D2E/DX2                !
 ! R17   R(5,21)                 2.3379         estimate D2E/DX2                !
 ! R18   R(6,7)                  2.5901         estimate D2E/DX2                !
 ! R19   R(6,8)                  2.5236         estimate D2E/DX2                !
 ! R20   R(6,20)                 2.4804         estimate D2E/DX2                !
 ! R21   R(6,42)                 2.7334         estimate D2E/DX2                !
 ! R22   R(6,44)                 2.4779         estimate D2E/DX2                !
 ! R23   R(6,45)                 2.8471         estimate D2E/DX2                !
 ! R24   R(7,13)                 2.614          estimate D2E/DX2                !
 ! R25   R(7,18)                 2.2082         estimate D2E/DX2                !
 ! R26   R(8,9)                  2.4887         estimate D2E/DX2                !
 ! R27   R(8,13)                 2.5682         estimate D2E/DX2                !
 ! R28   R(9,10)                 2.5651         estimate D2E/DX2                !
 ! R29   R(9,11)                 2.4492         estimate D2E/DX2                !
 ! R30   R(9,12)                 2.6972         estimate D2E/DX2                !
 ! R31   R(9,26)                 2.4458         estimate D2E/DX2                !
 ! R32   R(9,27)                 2.749          estimate D2E/DX2                !
 ! R33   R(10,13)                2.4458         estimate D2E/DX2                !
 ! R34   R(10,24)                2.455          estimate D2E/DX2                !
 ! R35   R(11,12)                2.4001         estimate D2E/DX2                !
 ! R36   R(11,27)                2.3887         estimate D2E/DX2                !
 ! R37   R(12,14)                2.6046         estimate D2E/DX2                !
 ! R38   R(12,15)                2.3035         estimate D2E/DX2                !
 ! R39   R(12,27)                2.873          estimate D2E/DX2                !
 ! R40   R(13,16)                2.4656         estimate D2E/DX2                !
 ! R41   R(13,17)                2.4078         estimate D2E/DX2                !
 ! R42   R(13,36)                2.6781         estimate D2E/DX2                !
 ! R43   R(13,37)                2.4849         estimate D2E/DX2                !
 ! R44   R(13,39)                2.998          estimate D2E/DX2                !
 ! R45   R(14,21)                2.2164         estimate D2E/DX2                !
 ! R46   R(15,27)                2.3739         estimate D2E/DX2                !
 ! R47   R(16,18)                2.4053         estimate D2E/DX2                !
 ! R48   R(16,39)                2.342          estimate D2E/DX2                !
 ! R49   R(17,24)                2.4846         estimate D2E/DX2                !
 ! R50   R(17,36)                2.3582         estimate D2E/DX2                !
 ! R51   R(18,19)                2.6214         estimate D2E/DX2                !
 ! R52   R(18,20)                2.4931         estimate D2E/DX2                !
 ! R53   R(18,39)                2.8959         estimate D2E/DX2                !
 ! R54   R(18,40)                2.3238         estimate D2E/DX2                !
 ! R55   R(19,42)                2.2287         estimate D2E/DX2                !
 ! R56   R(20,42)                2.3401         estimate D2E/DX2                !
 ! R57   R(21,22)                2.1139         estimate D2E/DX2                !
 ! R58   R(21,23)                2.3262         estimate D2E/DX2                !
 ! R59   R(23,48)                2.3525         estimate D2E/DX2                !
 ! R60   R(24,25)                2.4854         estimate D2E/DX2                !
 ! R61   R(24,26)                2.5968         estimate D2E/DX2                !
 ! R62   R(24,28)                2.5937         estimate D2E/DX2                !
 ! R63   R(24,32)                2.5519         estimate D2E/DX2                !
 ! R64   R(24,33)                2.8256         estimate D2E/DX2                !
 ! R65   R(24,36)                3.0606         estimate D2E/DX2                !
 ! R66   R(25,33)                2.36           estimate D2E/DX2                !
 ! R67   R(25,36)                2.4285         estimate D2E/DX2                !
 ! R68   R(26,27)                2.2915         estimate D2E/DX2                !
 ! R69   R(27,28)                2.5076         estimate D2E/DX2                !
 ! R70   R(27,29)                2.5967         estimate D2E/DX2                !
 ! R71   R(28,30)                2.3052         estimate D2E/DX2                !
 ! R72   R(29,30)                2.1872         estimate D2E/DX2                !
 ! R73   R(30,31)                2.1109         estimate D2E/DX2                !
 ! R74   R(30,32)                2.354          estimate D2E/DX2                !
 ! R75   R(32,33)                2.4133         estimate D2E/DX2                !
 ! R76   R(33,34)                2.1262         estimate D2E/DX2                !
 ! R77   R(33,35)                2.1685         estimate D2E/DX2                !
 ! R78   R(36,37)                2.3937         estimate D2E/DX2                !
 ! R79   R(36,38)                2.2065         estimate D2E/DX2                !
 ! R80   R(37,39)                2.526          estimate D2E/DX2                !
 ! R81   R(38,39)                2.7052         estimate D2E/DX2                !
 ! R82   R(39,40)                2.3344         estimate D2E/DX2                !
 ! R83   R(39,41)                2.1489         estimate D2E/DX2                !
 ! R84   R(42,43)                2.1994         estimate D2E/DX2                !
 ! R85   R(42,44)                2.35           estimate D2E/DX2                !
 ! R86   R(43,45)                2.7173         estimate D2E/DX2                !
 ! R87   R(44,45)                2.4532         estimate D2E/DX2                !
 ! R88   R(45,46)                2.3876         estimate D2E/DX2                !
 ! R89   R(45,47)                2.4002         estimate D2E/DX2                !
 ! R90   R(45,48)                2.7815         estimate D2E/DX2                !
 ! R91   R(46,48)                2.3666         estimate D2E/DX2                !
 ! R92   R(47,48)                2.2836         estimate D2E/DX2                !
 ! R93   R(48,49)                2.0482         estimate D2E/DX2                !
 ! R94   R(49,50)                1.1528         estimate D2E/DX2                !
 ! A1    A(2,1,3)               84.4932         estimate D2E/DX2                !
 ! A2    A(2,1,4)               94.6624         estimate D2E/DX2                !
 ! A3    A(2,1,5)               88.6652         estimate D2E/DX2                !
 ! A4    A(2,1,6)               95.1154         estimate D2E/DX2                !
 ! A5    A(2,1,23)              81.2918         estimate D2E/DX2                !
 ! A6    A(2,1,45)             136.753          estimate D2E/DX2                !
 ! A7    A(2,1,48)             131.8234         estimate D2E/DX2                !
 ! A8    A(3,1,4)              103.3887         estimate D2E/DX2                !
 ! A9    A(3,1,23)              82.0986         estimate D2E/DX2                !
 ! A10   A(3,1,46)             105.4037         estimate D2E/DX2                !
 ! A11   A(3,1,48)              88.1436         estimate D2E/DX2                !
 ! A12   A(4,1,5)               85.5361         estimate D2E/DX2                !
 ! A13   A(4,1,45)              93.2345         estimate D2E/DX2                !
 ! A14   A(4,1,46)              80.7325         estimate D2E/DX2                !
 ! A15   A(4,1,48)             133.2379         estimate D2E/DX2                !
 ! A16   A(5,1,6)              138.0018         estimate D2E/DX2                !
 ! A17   A(5,1,23)              88.5453         estimate D2E/DX2                !
 ! A18   A(5,1,45)             134.359          estimate D2E/DX2                !
 ! A19   A(5,1,46)              81.9102         estimate D2E/DX2                !
 ! A20   A(5,1,48)              90.1606         estimate D2E/DX2                !
 ! A21   A(6,1,23)             133.4021         estimate D2E/DX2                !
 ! A22   A(6,1,46)              89.3163         estimate D2E/DX2                !
 ! A23   A(6,1,48)             116.4647         estimate D2E/DX2                !
 ! A24   A(23,1,45)             93.6874         estimate D2E/DX2                !
 ! A25   A(23,1,46)            102.3015         estimate D2E/DX2                !
 ! A26   A(1,2,9)               80.9975         estimate D2E/DX2                !
 ! A27   A(1,2,12)              87.1673         estimate D2E/DX2                !
 ! A28   A(1,4,9)               83.2566         estimate D2E/DX2                !
 ! A29   A(6,4,9)               95.6005         estimate D2E/DX2                !
 ! A30   A(1,5,12)              82.4267         estimate D2E/DX2                !
 ! A31   A(1,5,21)              82.2428         estimate D2E/DX2                !
 ! A32   A(12,5,21)             84.9337         estimate D2E/DX2                !
 ! A33   A(1,6,7)              128.9526         estimate D2E/DX2                !
 ! A34   A(1,6,8)               89.0121         estimate D2E/DX2                !
 ! A35   A(1,6,20)             135.5749         estimate D2E/DX2                !
 ! A36   A(1,6,42)             127.2937         estimate D2E/DX2                !
 ! A37   A(1,6,44)              93.5479         estimate D2E/DX2                !
 ! A38   A(3,6,4)              102.4485         estimate D2E/DX2                !
 ! A39   A(3,6,8)               87.6157         estimate D2E/DX2                !
 ! A40   A(3,6,20)              84.5708         estimate D2E/DX2                !
 ! A41   A(3,6,42)              95.5782         estimate D2E/DX2                !
 ! A42   A(3,6,44)             106.5138         estimate D2E/DX2                !
 ! A43   A(4,6,7)               77.5213         estimate D2E/DX2                !
 ! A44   A(4,6,8)               83.8986         estimate D2E/DX2                !
 ! A45   A(4,6,20)             164.5727         estimate D2E/DX2                !
 ! A46   A(4,6,42)             138.0791         estimate D2E/DX2                !
 ! A47   A(4,6,44)              85.1406         estimate D2E/DX2                !
 ! A48   A(4,6,45)              92.6021         estimate D2E/DX2                !
 ! A49   A(7,6,8)               82.35           estimate D2E/DX2                !
 ! A50   A(7,6,20)              93.1562         estimate D2E/DX2                !
 ! A51   A(7,6,42)              90.8476         estimate D2E/DX2                !
 ! A52   A(7,6,44)              83.5561         estimate D2E/DX2                !
 ! A53   A(7,6,45)             137.5903         estimate D2E/DX2                !
 ! A54   A(8,6,20)              82.6783         estimate D2E/DX2                !
 ! A55   A(8,6,42)             134.8705         estimate D2E/DX2                !
 ! A56   A(8,6,44)             163.7209         estimate D2E/DX2                !
 ! A57   A(8,6,45)             138.1762         estimate D2E/DX2                !
 ! A58   A(20,6,44)            106.235          estimate D2E/DX2                !
 ! A59   A(20,6,45)            102.4745         estimate D2E/DX2                !
 ! A60   A(42,6,45)             69.223          estimate D2E/DX2                !
 ! A61   A(6,7,13)              96.4821         estimate D2E/DX2                !
 ! A62   A(6,7,18)              83.334          estimate D2E/DX2                !
 ! A63   A(13,7,18)             80.8642         estimate D2E/DX2                !
 ! A64   A(6,8,9)               92.7157         estimate D2E/DX2                !
 ! A65   A(6,8,13)              99.3501         estimate D2E/DX2                !
 ! A66   A(9,8,13)              96.1456         estimate D2E/DX2                !
 ! A67   A(2,9,4)              100.6764         estimate D2E/DX2                !
 ! A68   A(2,9,8)               83.1947         estimate D2E/DX2                !
 ! A69   A(2,9,11)             109.2984         estimate D2E/DX2                !
 ! A70   A(2,9,26)              88.8453         estimate D2E/DX2                !
 ! A71   A(2,9,27)              98.4474         estimate D2E/DX2                !
 ! A72   A(4,9,8)               85.3017         estimate D2E/DX2                !
 ! A73   A(4,9,10)              80.0417         estimate D2E/DX2                !
 ! A74   A(4,9,11)              85.3599         estimate D2E/DX2                !
 ! A75   A(4,9,12)             100.3163         estimate D2E/DX2                !
 ! A76   A(4,9,26)             162.2397         estimate D2E/DX2                !
 ! A77   A(4,9,27)             139.2728         estimate D2E/DX2                !
 ! A78   A(8,9,10)              82.3892         estimate D2E/DX2                !
 ! A79   A(8,9,12)             137.4641         estimate D2E/DX2                !
 ! A80   A(8,9,26)              80.9464         estimate D2E/DX2                !
 ! A81   A(8,9,27)             132.6666         estimate D2E/DX2                !
 ! A82   A(10,9,11)             85.244          estimate D2E/DX2                !
 ! A83   A(10,9,12)            140.1422         estimate D2E/DX2                !
 ! A84   A(10,9,26)             87.0128         estimate D2E/DX2                !
 ! A85   A(10,9,27)             89.9439         estimate D2E/DX2                !
 ! A86   A(11,9,26)            105.7594         estimate D2E/DX2                !
 ! A87   A(12,9,26)             97.4153         estimate D2E/DX2                !
 ! A88   A(9,10,13)             97.3075         estimate D2E/DX2                !
 ! A89   A(9,10,24)             93.3148         estimate D2E/DX2                !
 ! A90   A(13,10,24)            80.1873         estimate D2E/DX2                !
 ! A91   A(2,12,5)              99.7386         estimate D2E/DX2                !
 ! A92   A(2,12,11)            112.4544         estimate D2E/DX2                !
 ! A93   A(2,12,14)             86.3154         estimate D2E/DX2                !
 ! A94   A(2,12,15)            105.3792         estimate D2E/DX2                !
 ! A95   A(2,12,27)             96.0595         estimate D2E/DX2                !
 ! A96   A(5,12,9)              97.8048         estimate D2E/DX2                !
 ! A97   A(5,12,11)             82.8849         estimate D2E/DX2                !
 ! A98   A(5,12,14)             86.4353         estimate D2E/DX2                !
 ! A99   A(5,12,15)            152.1997         estimate D2E/DX2                !
 ! A100  A(5,12,27)            135.7943         estimate D2E/DX2                !
 ! A101  A(9,12,14)            142.0135         estimate D2E/DX2                !
 ! A102  A(9,12,15)            106.0453         estimate D2E/DX2                !
 ! A103  A(11,12,14)           159.6964         estimate D2E/DX2                !
 ! A104  A(11,12,15)            98.0875         estimate D2E/DX2                !
 ! A105  A(14,12,15)            83.5114         estimate D2E/DX2                !
 ! A106  A(14,12,27)           135.8089         estimate D2E/DX2                !
 ! A107  A(7,13,8)              81.0378         estimate D2E/DX2                !
 ! A108  A(7,13,10)             78.4264         estimate D2E/DX2                !
 ! A109  A(7,13,16)             92.1806         estimate D2E/DX2                !
 ! A110  A(7,13,36)            134.4887         estimate D2E/DX2                !
 ! A111  A(7,13,37)             79.502          estimate D2E/DX2                !
 ! A112  A(7,13,39)             88.085          estimate D2E/DX2                !
 ! A113  A(8,13,10)             83.1636         estimate D2E/DX2                !
 ! A114  A(8,13,16)             79.6567         estimate D2E/DX2                !
 ! A115  A(8,13,17)             89.4291         estimate D2E/DX2                !
 ! A116  A(8,13,36)            144.1095         estimate D2E/DX2                !
 ! A117  A(8,13,37)            160.4174         estimate D2E/DX2                !
 ! A118  A(8,13,39)            127.6488         estimate D2E/DX2                !
 ! A119  A(10,13,16)           161.5328         estimate D2E/DX2                !
 ! A120  A(10,13,17)            99.8261         estimate D2E/DX2                !
 ! A121  A(10,13,36)            97.6053         estimate D2E/DX2                !
 ! A122  A(10,13,37)            90.8023         estimate D2E/DX2                !
 ! A123  A(10,13,39)           144.1624         estimate D2E/DX2                !
 ! A124  A(16,13,17)            86.7854         estimate D2E/DX2                !
 ! A125  A(16,13,36)           100.2716         estimate D2E/DX2                !
 ! A126  A(16,13,37)           103.2027         estimate D2E/DX2                !
 ! A127  A(17,13,37)           109.9928         estimate D2E/DX2                !
 ! A128  A(17,13,39)            98.4073         estimate D2E/DX2                !
 ! A129  A(36,13,39)            68.7734         estimate D2E/DX2                !
 ! A130  A(12,14,21)            84.6289         estimate D2E/DX2                !
 ! A131  A(13,16,18)            80.3477         estimate D2E/DX2                !
 ! A132  A(13,17,24)            80.3384         estimate D2E/DX2                !
 ! A133  A(7,18,16)            104.9524         estimate D2E/DX2                !
 ! A134  A(7,18,19)            101.688          estimate D2E/DX2                !
 ! A135  A(7,18,20)            102.9979         estimate D2E/DX2                !
 ! A136  A(7,18,39)             99.1548         estimate D2E/DX2                !
 ! A137  A(7,18,40)            100.6265         estimate D2E/DX2                !
 ! A138  A(16,18,19)           151.6693         estimate D2E/DX2                !
 ! A139  A(16,18,20)            80.0719         estimate D2E/DX2                !
 ! A140  A(16,18,40)           101.3427         estimate D2E/DX2                !
 ! A141  A(19,18,20)            84.7561         estimate D2E/DX2                !
 ! A142  A(19,18,39)           132.7731         estimate D2E/DX2                !
 ! A143  A(19,18,40)            82.8684         estimate D2E/DX2                !
 ! A144  A(20,18,39)           130.4619         estimate D2E/DX2                !
 ! A145  A(20,18,40)           155.0996         estimate D2E/DX2                !
 ! A146  A(18,19,42)            80.8877         estimate D2E/DX2                !
 ! A147  A(6,20,18)             80.1719         estimate D2E/DX2                !
 ! A148  A(18,20,42)            81.6045         estimate D2E/DX2                !
 ! A149  A(5,21,14)             99.8754         estimate D2E/DX2                !
 ! A150  A(5,21,22)            121.2822         estimate D2E/DX2                !
 ! A151  A(5,21,23)            105.6603         estimate D2E/DX2                !
 ! A152  A(14,21,22)           110.8585         estimate D2E/DX2                !
 ! A153  A(14,21,23)           102.4218         estimate D2E/DX2                !
 ! A154  A(22,21,23)           114.2934         estimate D2E/DX2                !
 ! A155  A(1,23,21)             82.9728         estimate D2E/DX2                !
 ! A156  A(21,23,48)            93.709          estimate D2E/DX2                !
 ! A157  A(10,24,17)            97.4851         estimate D2E/DX2                !
 ! A158  A(10,24,25)            83.5723         estimate D2E/DX2                !
 ! A159  A(10,24,26)            86.1198         estimate D2E/DX2                !
 ! A160  A(10,24,28)            80.5521         estimate D2E/DX2                !
 ! A161  A(10,24,33)           135.8567         estimate D2E/DX2                !
 ! A162  A(10,24,36)            88.068          estimate D2E/DX2                !
 ! A163  A(17,24,25)            99.5137         estimate D2E/DX2                !
 ! A164  A(17,24,26)            79.9318         estimate D2E/DX2                !
 ! A165  A(17,24,32)            86.7374         estimate D2E/DX2                !
 ! A166  A(17,24,33)            90.2758         estimate D2E/DX2                !
 ! A167  A(25,24,28)            89.8087         estimate D2E/DX2                !
 ! A168  A(25,24,32)           104.9959         estimate D2E/DX2                !
 ! A169  A(26,24,28)            90.3684         estimate D2E/DX2                !
 ! A170  A(26,24,32)            85.45           estimate D2E/DX2                !
 ! A171  A(26,24,33)           137.9662         estimate D2E/DX2                !
 ! A172  A(26,24,36)           127.2063         estimate D2E/DX2                !
 ! A173  A(28,24,32)            93.7094         estimate D2E/DX2                !
 ! A174  A(28,24,33)            97.7992         estimate D2E/DX2                !
 ! A175  A(28,24,36)           139.9812         estimate D2E/DX2                !
 ! A176  A(32,24,36)           101.6588         estimate D2E/DX2                !
 ! A177  A(33,24,36)            64.9552         estimate D2E/DX2                !
 ! A178  A(33,25,36)            82.7947         estimate D2E/DX2                !
 ! A179  A(9,26,24)             92.7497         estimate D2E/DX2                !
 ! A180  A(24,26,27)            86.8046         estimate D2E/DX2                !
 ! A181  A(9,27,15)            102.4905         estimate D2E/DX2                !
 ! A182  A(9,27,28)            101.4056         estimate D2E/DX2                !
 ! A183  A(9,27,29)            149.1894         estimate D2E/DX2                !
 ! A184  A(11,27,15)            96.4841         estimate D2E/DX2                !
 ! A185  A(11,27,26)           113.0035         estimate D2E/DX2                !
 ! A186  A(11,27,28)            84.6753         estimate D2E/DX2                !
 ! A187  A(11,27,29)           154.3822         estimate D2E/DX2                !
 ! A188  A(12,27,26)            96.3443         estimate D2E/DX2                !
 ! A189  A(12,27,28)           137.9832         estimate D2E/DX2                !
 ! A190  A(12,27,29)           129.7709         estimate D2E/DX2                !
 ! A191  A(15,27,26)           105.0838         estimate D2E/DX2                !
 ! A192  A(15,27,28)           151.9454         estimate D2E/DX2                !
 ! A193  A(15,27,29)            78.944          estimate D2E/DX2                !
 ! A194  A(26,27,28)           100.1148         estimate D2E/DX2                !
 ! A195  A(26,27,29)            92.4266         estimate D2E/DX2                !
 ! A196  A(28,27,29)            87.9543         estimate D2E/DX2                !
 ! A197  A(24,28,27)            82.5594         estimate D2E/DX2                !
 ! A198  A(24,28,30)            79.1544         estimate D2E/DX2                !
 ! A199  A(27,28,30)            81.3286         estimate D2E/DX2                !
 ! A200  A(27,29,30)            81.5594         estimate D2E/DX2                !
 ! A201  A(28,30,29)           104.1667         estimate D2E/DX2                !
 ! A202  A(28,30,31)           114.531          estimate D2E/DX2                !
 ! A203  A(28,30,32)           107.3727         estimate D2E/DX2                !
 ! A204  A(29,30,31)           109.9569         estimate D2E/DX2                !
 ! A205  A(29,30,32)           103.2193         estimate D2E/DX2                !
 ! A206  A(31,30,32)           116.3372         estimate D2E/DX2                !
 ! A207  A(24,32,30)            79.1468         estimate D2E/DX2                !
 ! A208  A(30,32,33)            97.5937         estimate D2E/DX2                !
 ! A209  A(24,33,34)           131.7734         estimate D2E/DX2                !
 ! A210  A(24,33,35)           110.3284         estimate D2E/DX2                !
 ! A211  A(25,33,32)           113.6975         estimate D2E/DX2                !
 ! A212  A(25,33,34)           106.3112         estimate D2E/DX2                !
 ! A213  A(25,33,35)           102.6634         estimate D2E/DX2                !
 ! A214  A(32,33,34)           111.2538         estimate D2E/DX2                !
 ! A215  A(32,33,35)           105.2269         estimate D2E/DX2                !
 ! A216  A(34,33,35)           117.6402         estimate D2E/DX2                !
 ! A217  A(13,36,24)            66.3473         estimate D2E/DX2                !
 ! A218  A(13,36,25)            96.5738         estimate D2E/DX2                !
 ! A219  A(13,36,38)           115.141          estimate D2E/DX2                !
 ! A220  A(17,36,25)           104.8383         estimate D2E/DX2                !
 ! A221  A(17,36,37)           115.0105         estimate D2E/DX2                !
 ! A222  A(17,36,38)           115.2222         estimate D2E/DX2                !
 ! A223  A(24,36,37)           102.1285         estimate D2E/DX2                !
 ! A224  A(25,36,37)            84.0885         estimate D2E/DX2                !
 ! A225  A(25,36,38)           138.0513         estimate D2E/DX2                !
 ! A226  A(37,36,38)            89.7819         estimate D2E/DX2                !
 ! A227  A(36,37,39)            81.6113         estimate D2E/DX2                !
 ! A228  A(36,38,39)            81.1316         estimate D2E/DX2                !
 ! A229  A(13,39,18)            64.4164         estimate D2E/DX2                !
 ! A230  A(13,39,38)            92.6706         estimate D2E/DX2                !
 ! A231  A(13,39,40)           103.8786         estimate D2E/DX2                !
 ! A232  A(13,39,41)           148.948          estimate D2E/DX2                !
 ! A233  A(16,39,37)           105.6263         estimate D2E/DX2                !
 ! A234  A(16,39,38)           112.3321         estimate D2E/DX2                !
 ! A235  A(16,39,40)           102.9475         estimate D2E/DX2                !
 ! A236  A(16,39,41)           102.0669         estimate D2E/DX2                !
 ! A237  A(18,39,37)            89.5338         estimate D2E/DX2                !
 ! A238  A(18,39,38)           157.023          estimate D2E/DX2                !
 ! A239  A(18,39,41)           119.3718         estimate D2E/DX2                !
 ! A240  A(37,39,38)            76.7144         estimate D2E/DX2                !
 ! A241  A(37,39,40)            88.3519         estimate D2E/DX2                !
 ! A242  A(37,39,41)           148.4989         estimate D2E/DX2                !
 ! A243  A(38,39,40)           144.1844         estimate D2E/DX2                !
 ! A244  A(38,39,41)            79.117          estimate D2E/DX2                !
 ! A245  A(40,39,41)            99.8728         estimate D2E/DX2                !
 ! A246  A(6,42,19)            114.426          estimate D2E/DX2                !
 ! A247  A(6,42,43)            109.3164         estimate D2E/DX2                !
 ! A248  A(19,42,20)            97.9891         estimate D2E/DX2                !
 ! A249  A(19,42,43)           136.0777         estimate D2E/DX2                !
 ! A250  A(19,42,44)           103.2449         estimate D2E/DX2                !
 ! A251  A(20,42,43)           108.3983         estimate D2E/DX2                !
 ! A252  A(20,42,44)           115.472          estimate D2E/DX2                !
 ! A253  A(43,42,44)            96.371          estimate D2E/DX2                !
 ! A254  A(42,43,45)            79.5651         estimate D2E/DX2                !
 ! A255  A(42,44,45)            82.6017         estimate D2E/DX2                !
 ! A256  A(1,45,43)            149.6998         estimate D2E/DX2                !
 ! A257  A(1,45,44)             98.2796         estimate D2E/DX2                !
 ! A258  A(1,45,47)            106.2062         estimate D2E/DX2                !
 ! A259  A(3,45,43)             96.7782         estimate D2E/DX2                !
 ! A260  A(3,45,44)            109.273          estimate D2E/DX2                !
 ! A261  A(3,45,46)            108.7136         estimate D2E/DX2                !
 ! A262  A(3,45,47)             99.261          estimate D2E/DX2                !
 ! A263  A(3,45,48)             90.9157         estimate D2E/DX2                !
 ! A264  A(6,45,43)             92.9509         estimate D2E/DX2                !
 ! A265  A(6,45,46)             94.234          estimate D2E/DX2                !
 ! A266  A(6,45,47)            153.2675         estimate D2E/DX2                !
 ! A267  A(6,45,48)            124.5786         estimate D2E/DX2                !
 ! A268  A(43,45,44)            81.8278         estimate D2E/DX2                !
 ! A269  A(43,45,46)           152.7771         estimate D2E/DX2                !
 ! A270  A(43,45,47)            85.5632         estimate D2E/DX2                !
 ! A271  A(43,45,48)           137.2212         estimate D2E/DX2                !
 ! A272  A(44,45,46)            80.8849         estimate D2E/DX2                !
 ! A273  A(44,45,47)           149.8964         estimate D2E/DX2                !
 ! A274  A(44,45,48)           134.5495         estimate D2E/DX2                !
 ! A275  A(46,45,47)            99.2227         estimate D2E/DX2                !
 ! A276  A(1,48,47)            109.7256         estimate D2E/DX2                !
 ! A277  A(1,48,49)            113.2371         estimate D2E/DX2                !
 ! A278  A(23,48,45)           102.5546         estimate D2E/DX2                !
 ! A279  A(23,48,46)           113.9972         estimate D2E/DX2                !
 ! A280  A(23,48,47)           107.8051         estimate D2E/DX2                !
 ! A281  A(23,48,49)           113.7868         estimate D2E/DX2                !
 ! A282  A(45,48,49)           133.1525         estimate D2E/DX2                !
 ! A283  A(46,48,47)           103.2799         estimate D2E/DX2                !
 ! A284  A(46,48,49)            83.2773         estimate D2E/DX2                !
 ! A285  A(47,48,49)           130.6368         estimate D2E/DX2                !
 ! A286  L(2,1,46,3,-1)        189.8969         estimate D2E/DX2                !
 ! A287  L(3,1,5,2,-1)         173.1584         estimate D2E/DX2                !
 ! A288  L(4,1,23,2,-1)        175.9542         estimate D2E/DX2                !
 ! A289  L(3,6,7,4,-1)         179.9698         estimate D2E/DX2                !
 ! A290  L(2,9,10,4,-1)        180.7181         estimate D2E/DX2                !
 ! A291  L(8,9,11,2,-1)        192.4931         estimate D2E/DX2                !
 ! A292  L(7,13,17,8,-1)       170.4669         estimate D2E/DX2                !
 ! A293  L(10,24,32,17,-1)     184.2224         estimate D2E/DX2                !
 ! A294  L(17,24,28,10,-1)     178.0372         estimate D2E/DX2                !
 ! A295  L(25,24,26,10,-1)     169.6921         estimate D2E/DX2                !
 ! A296  L(24,36,38,37,-1)     191.9104         estimate D2E/DX2                !
 ! A297  L(48,49,50,5,-1)      189.3691         estimate D2E/DX2                !
 ! A298  L(2,1,46,3,-2)        177.4045         estimate D2E/DX2                !
 ! A299  L(3,1,5,2,-2)         171.5546         estimate D2E/DX2                !
 ! A300  L(4,1,23,2,-2)        185.8567         estimate D2E/DX2                !
 ! A301  L(3,6,7,4,-2)         190.3246         estimate D2E/DX2                !
 ! A302  L(2,9,10,4,-2)        165.2351         estimate D2E/DX2                !
 ! A303  L(8,9,11,2,-2)        172.6746         estimate D2E/DX2                !
 ! A304  L(7,13,17,8,-2)       179.2679         estimate D2E/DX2                !
 ! A305  L(10,24,32,17,-2)     170.6368         estimate D2E/DX2                !
 ! A306  L(17,24,28,10,-2)     189.6773         estimate D2E/DX2                !
 ! A307  L(25,24,26,10,-2)     181.9001         estimate D2E/DX2                !
 ! A308  L(24,36,38,37,-2)     172.1793         estimate D2E/DX2                !
 ! A309  L(48,49,50,5,-2)      186.9807         estimate D2E/DX2                !
 ! D1    D(3,1,2,9)           -107.8149         estimate D2E/DX2                !
 ! D2    D(3,1,2,12)          -178.0056         estimate D2E/DX2                !
 ! D3    D(4,1,2,9)             -4.7803         estimate D2E/DX2                !
 ! D4    D(4,1,2,12)           -74.971          estimate D2E/DX2                !
 ! D5    D(5,1,2,9)             80.6305         estimate D2E/DX2                !
 ! D6    D(5,1,2,12)            10.4397         estimate D2E/DX2                !
 ! D7    D(6,1,2,9)            -57.4646         estimate D2E/DX2                !
 ! D8    D(6,1,2,12)          -127.6554         estimate D2E/DX2                !
 ! D9    D(23,1,2,9)           169.363          estimate D2E/DX2                !
 ! D10   D(23,1,2,12)           99.1722         estimate D2E/DX2                !
 ! D11   D(45,1,2,9)          -104.5291         estimate D2E/DX2                !
 ! D12   D(45,1,2,12)         -174.7198         estimate D2E/DX2                !
 ! D13   D(48,1,2,9)           169.6514         estimate D2E/DX2                !
 ! D14   D(48,1,2,12)           99.4607         estimate D2E/DX2                !
 ! D15   D(2,1,4,9)              4.6356         estimate D2E/DX2                !
 ! D16   D(3,1,4,9)             90.0723         estimate D2E/DX2                !
 ! D17   D(5,1,4,9)            -83.6562         estimate D2E/DX2                !
 ! D18   D(45,1,4,9)           142.0782         estimate D2E/DX2                !
 ! D19   D(46,1,4,9)          -166.1703         estimate D2E/DX2                !
 ! D20   D(48,1,4,9)          -169.6681         estimate D2E/DX2                !
 ! D21   D(2,1,5,12)            -9.8574         estimate D2E/DX2                !
 ! D22   D(2,1,5,21)            76.0253         estimate D2E/DX2                !
 ! D23   D(4,1,5,12)            84.925          estimate D2E/DX2                !
 ! D24   D(4,1,5,21)           170.8078         estimate D2E/DX2                !
 ! D25   D(6,1,5,12)            86.3088         estimate D2E/DX2                !
 ! D26   D(6,1,5,21)           172.1915         estimate D2E/DX2                !
 ! D27   D(23,1,5,12)          -91.1783         estimate D2E/DX2                !
 ! D28   D(23,1,5,21)           -5.2955         estimate D2E/DX2                !
 ! D29   D(45,1,5,12)          175.0864         estimate D2E/DX2                !
 ! D30   D(45,1,5,21)          -99.0309         estimate D2E/DX2                !
 ! D31   D(46,1,5,12)          166.1786         estimate D2E/DX2                !
 ! D32   D(46,1,5,21)         -107.9386         estimate D2E/DX2                !
 ! D33   D(48,1,5,12)         -141.6899         estimate D2E/DX2                !
 ! D34   D(48,1,5,21)          -55.8072         estimate D2E/DX2                !
 ! D35   D(2,1,6,7)             88.3014         estimate D2E/DX2                !
 ! D36   D(2,1,6,8)              8.9711         estimate D2E/DX2                !
 ! D37   D(2,1,6,20)           -69.5104         estimate D2E/DX2                !
 ! D38   D(2,1,6,42)          -141.9351         estimate D2E/DX2                !
 ! D39   D(2,1,6,44)           172.8805         estimate D2E/DX2                !
 ! D40   D(5,1,6,7)             -5.3952         estimate D2E/DX2                !
 ! D41   D(5,1,6,8)            -84.7256         estimate D2E/DX2                !
 ! D42   D(5,1,6,20)          -163.207          estimate D2E/DX2                !
 ! D43   D(5,1,6,42)           124.3682         estimate D2E/DX2                !
 ! D44   D(5,1,6,44)            79.1839         estimate D2E/DX2                !
 ! D45   D(23,1,6,7)           171.1461         estimate D2E/DX2                !
 ! D46   D(23,1,6,8)            91.8158         estimate D2E/DX2                !
 ! D47   D(23,1,6,20)           13.3343         estimate D2E/DX2                !
 ! D48   D(23,1,6,42)          -59.0904         estimate D2E/DX2                !
 ! D49   D(23,1,6,44)         -104.2747         estimate D2E/DX2                !
 ! D50   D(46,1,6,7)           -82.4754         estimate D2E/DX2                !
 ! D51   D(46,1,6,8)          -161.8058         estimate D2E/DX2                !
 ! D52   D(46,1,6,20)          119.7128         estimate D2E/DX2                !
 ! D53   D(46,1,6,42)           47.288          estimate D2E/DX2                !
 ! D54   D(46,1,6,44)            2.1037         estimate D2E/DX2                !
 ! D55   D(48,1,6,7)          -129.2847         estimate D2E/DX2                !
 ! D56   D(48,1,6,8)           151.385          estimate D2E/DX2                !
 ! D57   D(48,1,6,20)           72.9035         estimate D2E/DX2                !
 ! D58   D(48,1,6,42)            0.4788         estimate D2E/DX2                !
 ! D59   D(48,1,6,44)          -44.7056         estimate D2E/DX2                !
 ! D60   D(2,1,23,21)          -83.5588         estimate D2E/DX2                !
 ! D61   D(3,1,23,21)         -169.1567         estimate D2E/DX2                !
 ! D62   D(5,1,23,21)            5.3133         estimate D2E/DX2                !
 ! D63   D(6,1,23,21)         -172.3725         estimate D2E/DX2                !
 ! D64   D(45,1,23,21)         139.6755         estimate D2E/DX2                !
 ! D65   D(46,1,23,21)          86.7086         estimate D2E/DX2                !
 ! D66   D(2,1,45,43)           15.738          estimate D2E/DX2                !
 ! D67   D(2,1,45,44)          103.6932         estimate D2E/DX2                !
 ! D68   D(2,1,45,47)          -93.9989         estimate D2E/DX2                !
 ! D69   D(4,1,45,43)          -84.5681         estimate D2E/DX2                !
 ! D70   D(4,1,45,44)            3.387          estimate D2E/DX2                !
 ! D71   D(4,1,45,47)          165.695          estimate D2E/DX2                !
 ! D72   D(5,1,45,43)         -171.4858         estimate D2E/DX2                !
 ! D73   D(5,1,45,44)          -83.5307         estimate D2E/DX2                !
 ! D74   D(5,1,45,47)           78.7773         estimate D2E/DX2                !
 ! D75   D(23,1,45,43)          96.9418         estimate D2E/DX2                !
 ! D76   D(23,1,45,44)        -175.1031         estimate D2E/DX2                !
 ! D77   D(23,1,45,47)         -12.7951         estimate D2E/DX2                !
 ! D78   D(2,1,48,47)           99.4202         estimate D2E/DX2                !
 ! D79   D(2,1,48,49)         -105.5008         estimate D2E/DX2                !
 ! D80   D(3,1,48,47)           18.5021         estimate D2E/DX2                !
 ! D81   D(3,1,48,49)          173.5811         estimate D2E/DX2                !
 ! D82   D(4,1,48,47)          -88.2084         estimate D2E/DX2                !
 ! D83   D(4,1,48,49)           66.8706         estimate D2E/DX2                !
 ! D84   D(5,1,48,47)         -172.2273         estimate D2E/DX2                !
 ! D85   D(5,1,48,49)          -17.1483         estimate D2E/DX2                !
 ! D86   D(6,1,48,47)          -25.9682         estimate D2E/DX2                !
 ! D87   D(6,1,48,49)          129.1108         estimate D2E/DX2                !
 ! D88   D(1,2,9,4)              4.8468         estimate D2E/DX2                !
 ! D89   D(1,2,9,8)             88.7366         estimate D2E/DX2                !
 ! D90   D(1,2,9,11)           -83.938          estimate D2E/DX2                !
 ! D91   D(1,2,9,26)           169.7559         estimate D2E/DX2                !
 ! D92   D(1,2,9,27)          -139.0183         estimate D2E/DX2                !
 ! D93   D(1,2,12,5)           -11.4049         estimate D2E/DX2                !
 ! D94   D(1,2,12,11)           74.8651         estimate D2E/DX2                !
 ! D95   D(1,2,12,14)          -97.1457         estimate D2E/DX2                !
 ! D96   D(1,2,12,15)         -179.378          estimate D2E/DX2                !
 ! D97   D(1,2,12,27)          127.1533         estimate D2E/DX2                !
 ! D98   D(1,3,6,45)            76.1809         estimate D2E/DX2                !
 ! D99   D(9,4,6,3)            -74.1906         estimate D2E/DX2                !
 ! D100  D(9,4,6,7)             95.4847         estimate D2E/DX2                !
 ! D101  D(9,4,6,8)             11.9997         estimate D2E/DX2                !
 ! D102  D(9,4,6,20)            41.6394         estimate D2E/DX2                !
 ! D103  D(9,4,6,42)           172.553          estimate D2E/DX2                !
 ! D104  D(9,4,6,44)           179.9444         estimate D2E/DX2                !
 ! D105  D(9,4,6,45)          -126.1903         estimate D2E/DX2                !
 ! D106  D(1,4,9,2)             -5.1481         estimate D2E/DX2                !
 ! D107  D(1,4,9,8)            -87.3037         estimate D2E/DX2                !
 ! D108  D(1,4,9,10)          -170.3832         estimate D2E/DX2                !
 ! D109  D(1,4,9,11)           103.6427         estimate D2E/DX2                !
 ! D110  D(1,4,9,12)            50.1327         estimate D2E/DX2                !
 ! D111  D(1,4,9,26)          -126.5717         estimate D2E/DX2                !
 ! D112  D(1,4,9,27)           111.473          estimate D2E/DX2                !
 ! D113  D(6,4,9,2)             70.0135         estimate D2E/DX2                !
 ! D114  D(6,4,9,8)            -12.1421         estimate D2E/DX2                !
 ! D115  D(6,4,9,10)           -95.2215         estimate D2E/DX2                !
 ! D116  D(6,4,9,11)           178.8043         estimate D2E/DX2                !
 ! D117  D(6,4,9,12)           125.2943         estimate D2E/DX2                !
 ! D118  D(6,4,9,26)           -51.41           estimate D2E/DX2                !
 ! D119  D(6,4,9,27)          -173.3654         estimate D2E/DX2                !
 ! D120  D(1,5,12,2)            11.1554         estimate D2E/DX2                !
 ! D121  D(1,5,12,9)           -45.2526         estimate D2E/DX2                !
 ! D122  D(1,5,12,11)         -100.5058         estimate D2E/DX2                !
 ! D123  D(1,5,12,14)           96.7955         estimate D2E/DX2                !
 ! D124  D(1,5,12,15)          165.6388         estimate D2E/DX2                !
 ! D125  D(1,5,12,27)          -98.1172         estimate D2E/DX2                !
 ! D126  D(21,5,12,2)          -71.6691         estimate D2E/DX2                !
 ! D127  D(21,5,12,9)         -128.0771         estimate D2E/DX2                !
 ! D128  D(21,5,12,11)         176.6698         estimate D2E/DX2                !
 ! D129  D(21,5,12,14)          13.9711         estimate D2E/DX2                !
 ! D130  D(21,5,12,15)          82.8143         estimate D2E/DX2                !
 ! D131  D(21,5,12,27)         179.0583         estimate D2E/DX2                !
 ! D132  D(1,5,21,14)          -99.7281         estimate D2E/DX2                !
 ! D133  D(1,5,21,22)          138.3564         estimate D2E/DX2                !
 ! D134  D(1,5,21,23)            6.2674         estimate D2E/DX2                !
 ! D135  D(12,5,21,14)         -16.7043         estimate D2E/DX2                !
 ! D136  D(12,5,21,22)        -138.6198         estimate D2E/DX2                !
 ! D137  D(12,5,21,23)          89.2913         estimate D2E/DX2                !
 ! D138  D(1,6,7,13)           -89.1375         estimate D2E/DX2                !
 ! D139  D(1,6,7,18)          -169.1076         estimate D2E/DX2                !
 ! D140  D(4,6,7,13)           -92.0673         estimate D2E/DX2                !
 ! D141  D(4,6,7,18)          -172.0373         estimate D2E/DX2                !
 ! D142  D(8,6,7,13)            -6.6623         estimate D2E/DX2                !
 ! D143  D(8,6,7,18)           -86.6323         estimate D2E/DX2                !
 ! D144  D(20,6,7,13)           75.5105         estimate D2E/DX2                !
 ! D145  D(20,6,7,18)           -4.4596         estimate D2E/DX2                !
 ! D146  D(42,6,7,13)          128.5672         estimate D2E/DX2                !
 ! D147  D(42,6,7,18)           48.5971         estimate D2E/DX2                !
 ! D148  D(44,6,7,13)         -178.4944         estimate D2E/DX2                !
 ! D149  D(44,6,7,18)          101.5355         estimate D2E/DX2                !
 ! D150  D(45,6,7,13)         -172.0857         estimate D2E/DX2                !
 ! D151  D(45,6,7,18)          107.9442         estimate D2E/DX2                !
 ! D152  D(1,6,8,9)             39.6919         estimate D2E/DX2                !
 ! D153  D(1,6,8,13)           136.3779         estimate D2E/DX2                !
 ! D154  D(3,6,8,9)             91.1124         estimate D2E/DX2                !
 ! D155  D(3,6,8,13)          -172.2016         estimate D2E/DX2                !
 ! D156  D(4,6,8,9)            -11.6805         estimate D2E/DX2                !
 ! D157  D(4,6,8,13)            85.0055         estimate D2E/DX2                !
 ! D158  D(7,6,8,9)            -89.8568         estimate D2E/DX2                !
 ! D159  D(7,6,8,13)             6.8292         estimate D2E/DX2                !
 ! D160  D(20,6,8,9)           175.9415         estimate D2E/DX2                !
 ! D161  D(20,6,8,13)          -87.3725         estimate D2E/DX2                !
 ! D162  D(42,6,8,9)          -173.3887         estimate D2E/DX2                !
 ! D163  D(42,6,8,13)          -76.7027         estimate D2E/DX2                !
 ! D164  D(44,6,8,9)           -59.6163         estimate D2E/DX2                !
 ! D165  D(44,6,8,13)           37.0697         estimate D2E/DX2                !
 ! D166  D(45,6,8,9)            75.397          estimate D2E/DX2                !
 ! D167  D(45,6,8,13)          172.083          estimate D2E/DX2                !
 ! D168  D(1,6,20,18)          166.8753         estimate D2E/DX2                !
 ! D169  D(3,6,20,18)          174.1313         estimate D2E/DX2                !
 ! D170  D(4,6,20,18)           56.1244         estimate D2E/DX2                !
 ! D171  D(7,6,20,18)            3.9808         estimate D2E/DX2                !
 ! D172  D(8,6,20,18)           85.8459         estimate D2E/DX2                !
 ! D173  D(44,6,20,18)         -80.2216         estimate D2E/DX2                !
 ! D174  D(45,6,20,18)        -136.3318         estimate D2E/DX2                !
 ! D175  D(1,6,42,19)         -152.5976         estimate D2E/DX2                !
 ! D176  D(1,6,42,43)           23.3266         estimate D2E/DX2                !
 ! D177  D(3,6,42,19)          162.9082         estimate D2E/DX2                !
 ! D178  D(3,6,42,43)          -21.1676         estimate D2E/DX2                !
 ! D179  D(4,6,42,19)          -81.4367         estimate D2E/DX2                !
 ! D180  D(4,6,42,43)           94.4875         estimate D2E/DX2                !
 ! D181  D(7,6,42,19)           -9.3137         estimate D2E/DX2                !
 ! D182  D(7,6,42,43)          166.6104         estimate D2E/DX2                !
 ! D183  D(8,6,42,19)           70.7164         estimate D2E/DX2                !
 ! D184  D(8,6,42,43)         -113.3594         estimate D2E/DX2                !
 ! D185  D(45,6,42,19)        -150.9577         estimate D2E/DX2                !
 ! D186  D(45,6,42,43)          24.9665         estimate D2E/DX2                !
 ! D187  D(4,6,45,43)         -160.0402         estimate D2E/DX2                !
 ! D188  D(4,6,45,46)           -6.3168         estimate D2E/DX2                !
 ! D189  D(4,6,45,47)          113.9656         estimate D2E/DX2                !
 ! D190  D(4,6,45,48)           41.8078         estimate D2E/DX2                !
 ! D191  D(7,6,45,43)          -85.7616         estimate D2E/DX2                !
 ! D192  D(7,6,45,46)           67.9618         estimate D2E/DX2                !
 ! D193  D(7,6,45,47)         -171.7559         estimate D2E/DX2                !
 ! D194  D(7,6,45,48)          116.0863         estimate D2E/DX2                !
 ! D195  D(8,6,45,43)          116.2041         estimate D2E/DX2                !
 ! D196  D(8,6,45,46)          -90.0725         estimate D2E/DX2                !
 ! D197  D(8,6,45,47)           30.2098         estimate D2E/DX2                !
 ! D198  D(8,6,45,48)          -41.948          estimate D2E/DX2                !
 ! D199  D(20,6,45,43)          23.2525         estimate D2E/DX2                !
 ! D200  D(20,6,45,46)         176.9759         estimate D2E/DX2                !
 ! D201  D(20,6,45,47)         -62.7417         estimate D2E/DX2                !
 ! D202  D(20,6,45,48)        -134.8995         estimate D2E/DX2                !
 ! D203  D(42,6,45,43)         -18.8345         estimate D2E/DX2                !
 ! D204  D(42,6,45,46)         134.889          estimate D2E/DX2                !
 ! D205  D(42,6,45,47)        -104.8287         estimate D2E/DX2                !
 ! D206  D(42,6,45,48)        -176.9865         estimate D2E/DX2                !
 ! D207  D(6,7,13,8)             6.5681         estimate D2E/DX2                !
 ! D208  D(6,7,13,10)           91.3636         estimate D2E/DX2                !
 ! D209  D(6,7,13,16)          -72.6016         estimate D2E/DX2                !
 ! D210  D(6,7,13,36)         -179.3123         estimate D2E/DX2                !
 ! D211  D(6,7,13,37)         -175.6279         estimate D2E/DX2                !
 ! D212  D(6,7,13,39)         -122.0398         estimate D2E/DX2                !
 ! D213  D(18,7,13,8)           88.7169         estimate D2E/DX2                !
 ! D214  D(18,7,13,10)         173.5124         estimate D2E/DX2                !
 ! D215  D(18,7,13,16)           9.5472         estimate D2E/DX2                !
 ! D216  D(18,7,13,36)         -97.1635         estimate D2E/DX2                !
 ! D217  D(18,7,13,37)         -93.4791         estimate D2E/DX2                !
 ! D218  D(18,7,13,39)         -39.891          estimate D2E/DX2                !
 ! D219  D(6,7,18,16)           87.5679         estimate D2E/DX2                !
 ! D220  D(6,7,18,19)          -82.7002         estimate D2E/DX2                !
 ! D221  D(6,7,18,20)            4.5467         estimate D2E/DX2                !
 ! D222  D(6,7,18,39)          139.9282         estimate D2E/DX2                !
 ! D223  D(6,7,18,40)         -167.5264         estimate D2E/DX2                !
 ! D224  D(13,7,18,16)         -10.1281         estimate D2E/DX2                !
 ! D225  D(13,7,18,19)         179.6039         estimate D2E/DX2                !
 ! D226  D(13,7,18,20)         -93.1492         estimate D2E/DX2                !
 ! D227  D(13,7,18,39)          42.2323         estimate D2E/DX2                !
 ! D228  D(13,7,18,40)          94.7776         estimate D2E/DX2                !
 ! D229  D(6,8,9,2)            -89.5552         estimate D2E/DX2                !
 ! D230  D(6,8,9,4)             11.8072         estimate D2E/DX2                !
 ! D231  D(6,8,9,10)            92.3636         estimate D2E/DX2                !
 ! D232  D(6,8,9,12)           -88.342          estimate D2E/DX2                !
 ! D233  D(6,8,9,26)          -179.4672         estimate D2E/DX2                !
 ! D234  D(6,8,9,27)           175.2117         estimate D2E/DX2                !
 ! D235  D(13,8,9,2)           170.7328         estimate D2E/DX2                !
 ! D236  D(13,8,9,4)           -87.9049         estimate D2E/DX2                !
 ! D237  D(13,8,9,10)           -7.3484         estimate D2E/DX2                !
 ! D238  D(13,8,9,12)          171.9459         estimate D2E/DX2                !
 ! D239  D(13,8,9,26)           80.8208         estimate D2E/DX2                !
 ! D240  D(13,8,9,27)           75.4996         estimate D2E/DX2                !
 ! D241  D(6,8,13,7)            -6.7893         estimate D2E/DX2                !
 ! D242  D(6,8,13,10)          -86.09           estimate D2E/DX2                !
 ! D243  D(6,8,13,16)           87.1063         estimate D2E/DX2                !
 ! D244  D(6,8,13,17)          173.9428         estimate D2E/DX2                !
 ! D245  D(6,8,13,36)         -179.6274         estimate D2E/DX2                !
 ! D246  D(6,8,13,37)          -13.2436         estimate D2E/DX2                !
 ! D247  D(6,8,13,39)           73.7488         estimate D2E/DX2                !
 ! D248  D(9,8,13,7)            86.9964         estimate D2E/DX2                !
 ! D249  D(9,8,13,10)            7.6957         estimate D2E/DX2                !
 ! D250  D(9,8,13,16)         -179.108          estimate D2E/DX2                !
 ! D251  D(9,8,13,17)          -92.2715         estimate D2E/DX2                !
 ! D252  D(9,8,13,36)          -85.8417         estimate D2E/DX2                !
 ! D253  D(9,8,13,37)           80.5421         estimate D2E/DX2                !
 ! D254  D(9,8,13,39)          167.5345         estimate D2E/DX2                !
 ! D255  D(4,9,10,13)           94.2719         estimate D2E/DX2                !
 ! D256  D(4,9,10,24)          174.793          estimate D2E/DX2                !
 ! D257  D(8,9,10,13)            7.7369         estimate D2E/DX2                !
 ! D258  D(8,9,10,24)           88.2581         estimate D2E/DX2                !
 ! D259  D(11,9,10,13)        -179.6163         estimate D2E/DX2                !
 ! D260  D(11,9,10,24)         -99.0952         estimate D2E/DX2                !
 ! D261  D(12,9,10,13)        -171.5187         estimate D2E/DX2                !
 ! D262  D(12,9,10,24)         -90.9976         estimate D2E/DX2                !
 ! D263  D(26,9,10,13)         -73.5202         estimate D2E/DX2                !
 ! D264  D(26,9,10,24)           7.0009         estimate D2E/DX2                !
 ! D265  D(27,9,10,13)        -125.4111         estimate D2E/DX2                !
 ! D266  D(27,9,10,24)         -44.89           estimate D2E/DX2                !
 ! D267  D(4,9,12,5)             0.7003         estimate D2E/DX2                !
 ! D268  D(4,9,12,14)          -93.5181         estimate D2E/DX2                !
 ! D269  D(4,9,12,15)          166.2726         estimate D2E/DX2                !
 ! D270  D(8,9,12,5)            95.0158         estimate D2E/DX2                !
 ! D271  D(8,9,12,14)            0.7973         estimate D2E/DX2                !
 ! D272  D(8,9,12,15)          -99.4119         estimate D2E/DX2                !
 ! D273  D(10,9,12,5)          -86.0756         estimate D2E/DX2                !
 ! D274  D(10,9,12,14)         179.706          estimate D2E/DX2                !
 ! D275  D(10,9,12,15)          79.4967         estimate D2E/DX2                !
 ! D276  D(26,9,12,5)          179.6871         estimate D2E/DX2                !
 ! D277  D(26,9,12,14)          85.4686         estimate D2E/DX2                !
 ! D278  D(26,9,12,15)         -14.7406         estimate D2E/DX2                !
 ! D279  D(2,9,26,24)         -172.6684         estimate D2E/DX2                !
 ! D280  D(4,9,26,24)          -49.6751         estimate D2E/DX2                !
 ! D281  D(8,9,26,24)          -89.376          estimate D2E/DX2                !
 ! D282  D(10,9,26,24)          -6.6134         estimate D2E/DX2                !
 ! D283  D(11,9,26,24)          77.5901         estimate D2E/DX2                !
 ! D284  D(12,9,26,24)         133.5945         estimate D2E/DX2                !
 ! D285  D(2,9,27,15)           18.2099         estimate D2E/DX2                !
 ! D286  D(2,9,27,28)         -176.5972         estimate D2E/DX2                !
 ! D287  D(2,9,27,29)          -71.1009         estimate D2E/DX2                !
 ! D288  D(4,9,27,15)          -99.1485         estimate D2E/DX2                !
 ! D289  D(4,9,27,28)           66.0444         estimate D2E/DX2                !
 ! D290  D(4,9,27,29)          171.5406         estimate D2E/DX2                !
 ! D291  D(8,9,27,15)          106.7181         estimate D2E/DX2                !
 ! D292  D(8,9,27,28)          -88.089          estimate D2E/DX2                !
 ! D293  D(8,9,27,29)           17.4073         estimate D2E/DX2                !
 ! D294  D(10,9,27,15)        -173.7111         estimate D2E/DX2                !
 ! D295  D(10,9,27,28)          -8.5183         estimate D2E/DX2                !
 ! D296  D(10,9,27,29)          96.978          estimate D2E/DX2                !
 ! D297  D(9,10,13,7)          -89.6895         estimate D2E/DX2                !
 ! D298  D(9,10,13,8)           -7.4831         estimate D2E/DX2                !
 ! D299  D(9,10,13,16)         -29.0702         estimate D2E/DX2                !
 ! D300  D(9,10,13,17)          80.7434         estimate D2E/DX2                !
 ! D301  D(9,10,13,36)         136.3377         estimate D2E/DX2                !
 ! D302  D(9,10,13,37)        -168.8027         estimate D2E/DX2                !
 ! D303  D(9,10,13,39)        -159.7019         estimate D2E/DX2                !
 ! D304  D(24,10,13,7)         178.1911         estimate D2E/DX2                !
 ! D305  D(24,10,13,8)         -99.6024         estimate D2E/DX2                !
 ! D306  D(24,10,13,16)       -121.1896         estimate D2E/DX2                !
 ! D307  D(24,10,13,17)        -11.376          estimate D2E/DX2                !
 ! D308  D(24,10,13,36)         44.2183         estimate D2E/DX2                !
 ! D309  D(24,10,13,37)         99.0779         estimate D2E/DX2                !
 ! D310  D(24,10,13,39)        108.1787         estimate D2E/DX2                !
 ! D311  D(9,10,24,17)         -85.8998         estimate D2E/DX2                !
 ! D312  D(9,10,24,25)         175.3019         estimate D2E/DX2                !
 ! D313  D(9,10,24,26)          -6.5982         estimate D2E/DX2                !
 ! D314  D(9,10,24,28)          84.4229         estimate D2E/DX2                !
 ! D315  D(9,10,24,33)         175.9165         estimate D2E/DX2                !
 ! D316  D(9,10,24,36)        -134.0944         estimate D2E/DX2                !
 ! D317  D(13,10,24,17)         10.9508         estimate D2E/DX2                !
 ! D318  D(13,10,24,25)        -87.8475         estimate D2E/DX2                !
 ! D319  D(13,10,24,26)         90.2524         estimate D2E/DX2                !
 ! D320  D(13,10,24,28)       -178.7265         estimate D2E/DX2                !
 ! D321  D(13,10,24,33)        -87.2328         estimate D2E/DX2                !
 ! D322  D(13,10,24,36)        -37.2438         estimate D2E/DX2                !
 ! D323  D(9,11,12,27)         -73.7993         estimate D2E/DX2                !
 ! D324  D(2,12,14,21)          85.2504         estimate D2E/DX2                !
 ! D325  D(5,12,14,21)         -14.761          estimate D2E/DX2                !
 ! D326  D(9,12,14,21)          83.3617         estimate D2E/DX2                !
 ! D327  D(11,12,14,21)        -73.0233         estimate D2E/DX2                !
 ! D328  D(15,12,14,21)       -168.8            estimate D2E/DX2                !
 ! D329  D(27,12,14,21)       -179.8442         estimate D2E/DX2                !
 ! D330  D(2,12,27,26)           0.3991         estimate D2E/DX2                !
 ! D331  D(2,12,27,28)        -112.3939         estimate D2E/DX2                !
 ! D332  D(2,12,27,29)          98.9082         estimate D2E/DX2                !
 ! D333  D(5,12,27,26)         111.0766         estimate D2E/DX2                !
 ! D334  D(5,12,27,28)          -1.7165         estimate D2E/DX2                !
 ! D335  D(5,12,27,29)        -150.4144         estimate D2E/DX2                !
 ! D336  D(14,12,27,26)        -90.5454         estimate D2E/DX2                !
 ! D337  D(14,12,27,28)        156.6616         estimate D2E/DX2                !
 ! D338  D(14,12,27,29)          7.9637         estimate D2E/DX2                !
 ! D339  D(7,13,16,18)          -8.7716         estimate D2E/DX2                !
 ! D340  D(8,13,16,18)         -89.2499         estimate D2E/DX2                !
 ! D341  D(10,13,16,18)        -67.452          estimate D2E/DX2                !
 ! D342  D(17,13,16,18)       -179.256          estimate D2E/DX2                !
 ! D343  D(36,13,16,18)        127.2498         estimate D2E/DX2                !
 ! D344  D(37,13,16,18)         70.9547         estimate D2E/DX2                !
 ! D345  D(8,13,17,24)          94.1952         estimate D2E/DX2                !
 ! D346  D(10,13,17,24)         11.2339         estimate D2E/DX2                !
 ! D347  D(16,13,17,24)        173.8675         estimate D2E/DX2                !
 ! D348  D(37,13,17,24)        -83.2476         estimate D2E/DX2                !
 ! D349  D(39,13,17,24)       -137.7793         estimate D2E/DX2                !
 ! D350  D(7,13,36,24)        -118.222          estimate D2E/DX2                !
 ! D351  D(7,13,36,25)         -74.4643         estimate D2E/DX2                !
 ! D352  D(7,13,36,38)          77.3106         estimate D2E/DX2                !
 ! D353  D(8,13,36,24)          51.8373         estimate D2E/DX2                !
 ! D354  D(8,13,36,25)          95.5951         estimate D2E/DX2                !
 ! D355  D(8,13,36,38)        -112.63           estimate D2E/DX2                !
 ! D356  D(10,13,36,24)        -36.9977         estimate D2E/DX2                !
 ! D357  D(10,13,36,25)          6.7601         estimate D2E/DX2                !
 ! D358  D(10,13,36,38)        158.535          estimate D2E/DX2                !
 ! D359  D(16,13,36,24)        138.3503         estimate D2E/DX2                !
 ! D360  D(16,13,36,25)       -177.8919         estimate D2E/DX2                !
 ! D361  D(16,13,36,38)        -26.1171         estimate D2E/DX2                !
 ! D362  D(39,13,36,24)        177.3591         estimate D2E/DX2                !
 ! D363  D(39,13,36,25)       -138.8832         estimate D2E/DX2                !
 ! D364  D(39,13,36,38)         12.8917         estimate D2E/DX2                !
 ! D365  D(7,13,39,18)          32.3653         estimate D2E/DX2                !
 ! D366  D(7,13,39,38)        -149.4156         estimate D2E/DX2                !
 ! D367  D(7,13,39,40)          -1.4507         estimate D2E/DX2                !
 ! D368  D(7,13,39,41)         137.38           estimate D2E/DX2                !
 ! D369  D(8,13,39,18)         -44.7695         estimate D2E/DX2                !
 ! D370  D(8,13,39,38)         133.4496         estimate D2E/DX2                !
 ! D371  D(8,13,39,40)         -78.5856         estimate D2E/DX2                !
 ! D372  D(8,13,39,41)          60.2451         estimate D2E/DX2                !
 ! D373  D(10,13,39,18)         99.4636         estimate D2E/DX2                !
 ! D374  D(10,13,39,38)        -82.3173         estimate D2E/DX2                !
 ! D375  D(10,13,39,40)         65.6475         estimate D2E/DX2                !
 ! D376  D(10,13,39,41)       -155.5218         estimate D2E/DX2                !
 ! D377  D(17,13,39,18)       -140.5835         estimate D2E/DX2                !
 ! D378  D(17,13,39,38)         37.6356         estimate D2E/DX2                !
 ! D379  D(17,13,39,40)       -174.3995         estimate D2E/DX2                !
 ! D380  D(17,13,39,41)        -35.5688         estimate D2E/DX2                !
 ! D381  D(36,13,39,18)        172.2882         estimate D2E/DX2                !
 ! D382  D(36,13,39,38)         -9.4927         estimate D2E/DX2                !
 ! D383  D(36,13,39,40)        138.4721         estimate D2E/DX2                !
 ! D384  D(36,13,39,41)        -82.6972         estimate D2E/DX2                !
 ! D385  D(12,14,21,5)          15.9255         estimate D2E/DX2                !
 ! D386  D(12,14,21,22)        145.0022         estimate D2E/DX2                !
 ! D387  D(12,14,21,23)        -92.6713         estimate D2E/DX2                !
 ! D388  D(13,16,18,7)          10.7607         estimate D2E/DX2                !
 ! D389  D(13,16,18,19)        170.3457         estimate D2E/DX2                !
 ! D390  D(13,16,18,20)        111.6897         estimate D2E/DX2                !
 ! D391  D(13,16,18,40)        -93.6128         estimate D2E/DX2                !
 ! D392  D(13,17,24,10)        -11.1208         estimate D2E/DX2                !
 ! D393  D(13,17,24,25)         73.5736         estimate D2E/DX2                !
 ! D394  D(13,17,24,26)        -95.8048         estimate D2E/DX2                !
 ! D395  D(13,17,24,32)        178.2424         estimate D2E/DX2                !
 ! D396  D(13,17,24,33)        125.2989         estimate D2E/DX2                !
 ! D397  D(7,18,19,42)          74.7423         estimate D2E/DX2                !
 ! D398  D(16,18,19,42)        -85.1283         estimate D2E/DX2                !
 ! D399  D(20,18,19,42)        -27.4772         estimate D2E/DX2                !
 ! D400  D(39,18,19,42)       -170.8818         estimate D2E/DX2                !
 ! D401  D(40,18,19,42)        174.1754         estimate D2E/DX2                !
 ! D402  D(7,18,20,6)           -4.7865         estimate D2E/DX2                !
 ! D403  D(7,18,20,42)         -74.8            estimate D2E/DX2                !
 ! D404  D(16,18,20,6)        -107.9908         estimate D2E/DX2                !
 ! D405  D(16,18,20,42)       -178.0042         estimate D2E/DX2                !
 ! D406  D(19,18,20,6)          96.0261         estimate D2E/DX2                !
 ! D407  D(19,18,20,42)         26.0127         estimate D2E/DX2                !
 ! D408  D(39,18,20,6)        -119.0853         estimate D2E/DX2                !
 ! D409  D(39,18,20,42)        170.9012         estimate D2E/DX2                !
 ! D410  D(40,18,20,6)         156.4341         estimate D2E/DX2                !
 ! D411  D(40,18,20,42)         86.4207         estimate D2E/DX2                !
 ! D412  D(7,18,39,13)         -39.9036         estimate D2E/DX2                !
 ! D413  D(7,18,39,37)           8.0965         estimate D2E/DX2                !
 ! D414  D(7,18,39,38)         -44.4649         estimate D2E/DX2                !
 ! D415  D(7,18,39,41)         174.9648         estimate D2E/DX2                !
 ! D416  D(19,18,39,13)       -155.2844         estimate D2E/DX2                !
 ! D417  D(19,18,39,37)       -107.2843         estimate D2E/DX2                !
 ! D418  D(19,18,39,38)       -159.8457         estimate D2E/DX2                !
 ! D419  D(19,18,39,41)         59.584          estimate D2E/DX2                !
 ! D420  D(20,18,39,13)         76.0016         estimate D2E/DX2                !
 ! D421  D(20,18,39,37)        124.0017         estimate D2E/DX2                !
 ! D422  D(20,18,39,38)         71.4403         estimate D2E/DX2                !
 ! D423  D(20,18,39,41)        -69.1299         estimate D2E/DX2                !
 ! D424  D(18,19,42,6)         -28.6832         estimate D2E/DX2                !
 ! D425  D(18,19,42,20)         29.6237         estimate D2E/DX2                !
 ! D426  D(18,19,42,43)        156.8656         estimate D2E/DX2                !
 ! D427  D(18,19,42,44)        -89.0087         estimate D2E/DX2                !
 ! D428  D(18,20,42,19)        -31.2474         estimate D2E/DX2                !
 ! D429  D(18,20,42,43)       -175.6576         estimate D2E/DX2                !
 ! D430  D(18,20,42,44)         77.6048         estimate D2E/DX2                !
 ! D431  D(5,21,23,1)           -6.3125         estimate D2E/DX2                !
 ! D432  D(5,21,23,48)          62.0249         estimate D2E/DX2                !
 ! D433  D(14,21,23,1)          97.8183         estimate D2E/DX2                !
 ! D434  D(14,21,23,48)        166.1557         estimate D2E/DX2                !
 ! D435  D(22,21,23,1)        -142.2189         estimate D2E/DX2                !
 ! D436  D(22,21,23,48)        -73.8815         estimate D2E/DX2                !
 ! D437  D(21,23,48,45)       -126.5582         estimate D2E/DX2                !
 ! D438  D(21,23,48,46)        -70.0212         estimate D2E/DX2                !
 ! D439  D(21,23,48,47)        175.9582         estimate D2E/DX2                !
 ! D440  D(21,23,48,49)         23.1996         estimate D2E/DX2                !
 ! D441  D(10,24,26,9)           6.9178         estimate D2E/DX2                !
 ! D442  D(10,24,26,27)         77.5586         estimate D2E/DX2                !
 ! D443  D(17,24,26,9)         105.2349         estimate D2E/DX2                !
 ! D444  D(17,24,26,27)        175.8758         estimate D2E/DX2                !
 ! D445  D(28,24,26,9)         -73.5869         estimate D2E/DX2                !
 ! D446  D(28,24,26,27)         -2.946          estimate D2E/DX2                !
 ! D447  D(32,24,26,9)        -167.2787         estimate D2E/DX2                !
 ! D448  D(32,24,26,27)        -96.6378         estimate D2E/DX2                !
 ! D449  D(33,24,26,9)        -175.698          estimate D2E/DX2                !
 ! D450  D(33,24,26,27)       -105.0572         estimate D2E/DX2                !
 ! D451  D(36,24,26,9)          91.5285         estimate D2E/DX2                !
 ! D452  D(36,24,26,27)        162.1694         estimate D2E/DX2                !
 ! D453  D(10,24,28,27)        -83.2943         estimate D2E/DX2                !
 ! D454  D(10,24,28,30)       -165.8367         estimate D2E/DX2                !
 ! D455  D(25,24,28,27)       -166.8099         estimate D2E/DX2                !
 ! D456  D(25,24,28,30)        110.6477         estimate D2E/DX2                !
 ! D457  D(26,24,28,27)          2.7105         estimate D2E/DX2                !
 ! D458  D(26,24,28,30)        -79.8319         estimate D2E/DX2                !
 ! D459  D(32,24,28,27)         88.1748         estimate D2E/DX2                !
 ! D460  D(32,24,28,30)          5.6324         estimate D2E/DX2                !
 ! D461  D(33,24,28,27)        141.3512         estimate D2E/DX2                !
 ! D462  D(33,24,28,30)         58.8088         estimate D2E/DX2                !
 ! D463  D(36,24,28,27)       -158.7377         estimate D2E/DX2                !
 ! D464  D(36,24,28,30)        118.7199         estimate D2E/DX2                !
 ! D465  D(17,24,32,30)        164.7062         estimate D2E/DX2                !
 ! D466  D(25,24,32,30)        -96.3122         estimate D2E/DX2                !
 ! D467  D(26,24,32,30)         84.5592         estimate D2E/DX2                !
 ! D468  D(28,24,32,30)         -5.5156         estimate D2E/DX2                !
 ! D469  D(36,24,32,30)       -148.3589         estimate D2E/DX2                !
 ! D470  D(10,24,33,34)        -82.6671         estimate D2E/DX2                !
 ! D471  D(10,24,33,35)         91.2145         estimate D2E/DX2                !
 ! D472  D(17,24,33,34)        176.263          estimate D2E/DX2                !
 ! D473  D(17,24,33,35)         -9.8554         estimate D2E/DX2                !
 ! D474  D(26,24,33,34)        101.0815         estimate D2E/DX2                !
 ! D475  D(26,24,33,35)        -85.0369         estimate D2E/DX2                !
 ! D476  D(28,24,33,34)          1.7798         estimate D2E/DX2                !
 ! D477  D(28,24,33,35)        175.6614         estimate D2E/DX2                !
 ! D478  D(36,24,33,34)       -140.3315         estimate D2E/DX2                !
 ! D479  D(36,24,33,35)         33.5501         estimate D2E/DX2                !
[...]
 000107,0.00003980,-0.00004526,-0.00000587,-0.00000413,-0.00001053,0.00
 000788,-0.00000218,-0.00000313,0.00001265,-0.00002169,0.00001459,-0.00
 001607,0.00016018,-0.00017315,0.00012634,0.00002850,0.00003883,0.00002
 833,-0.00012121,0.00003684,-0.00001992,0.00010942,0.00018704,-0.000100
 56,0.00005192,-0.00002376,0.00002513,0.00002101,-0.00004181,0.00001481
 ,-0.00046459,0.00104979,0.00016280,0.00219806,-0.00040464,0.00205789,0
 .00306018,0.00028100,0.00265630,-0.00438261,-0.01075442,0.00331523,0.0
 0302164,-0.00011596,-0.00283757,-0.02024708,0.01724853,-0.00011472,-0.
 00443166,0.00170726,-0.00079020,0.00073445,0.00021969,0.00060287,0.002
 29516,-0.00055269,-0.00047575,0.00001636,-0.00039410,-0.00040434,-0.00
 007243,0.00015788,-0.00194643,0.00481365,-0.00306891,-0.00069688,0.000
 16171,0.00003554,0.00050599,0.00038298,-0.00007915,0.00262086,0.001416
 02,-0.00096839,-0.00065563,-0.00024329,0.00003809,0.00018865,0.0000484
 2,-0.00000048,-0.00145016,0.00006713,-0.00029363,0.00090249,0.00029138
 ,-0.00001213,0.00093593,0.00010688,-0.00061554,0.00000565,0.00042743,0
 .00024712,-0.00003375,-0.00010275,0.00011576,-0.00026027,0.00009714,0.
 00000623,-0.00018434,-0.00014116,-0.00037045,-0.00002119,0.00018545,-0
 .00072775,0.00017118,0.00016069,-0.00015005,0.00070635,0.00129975,0.00
 169968,0.00017906,0.00017240,0.00003295,0.00154887,-0.00144288,0.00061
 591,0.00085043,-0.00046872,0.00011773,0.00000581,0.00000863,0.00008171
 ,-0.00021025,-0.00009106,0.00010384,-0.00054918,-0.00049154,-0.0002345
 0,-0.00001677,0.00000676,-0.00010923,0.00004509,-0.00005330,-0.0000015
 3,-0.00010771,0.00005305,-0.00004442,0.00000905,-0.00000274,-0.0000368
 6,-0.00011712,0.00011023,0.00001170,-0.00004915,0.00003930,0.00001879,
 0.00002334,0.00000162,-0.00004805,0.00007491,-0.00000526,0.00002137,-0
 .00027718,0.00020883,-0.00018175,-0.00004494,-0.00001716,-0.00005935,0
 .00017431,-0.00007054,0.00001400,-0.00003890,-0.00032398,0.00018155,-0
 .00007178,-0.00003740,0.00005625,-0.00009303,0.00013705,-0.00002275,0.
 00316003,0.00002639,-0.00021928,-0.00292809,0.00016726,-0.00013870,-0.
 00387105,-0.00231355,-0.00219765,0.01427590,0.00843217,-0.07798852,0.0
 0439405,0.00298039,-0.00341701,-0.06419034,0.00032260,0.11658994,-0.00
 786553,0.00044987,0.00647054,0.00132454,-0.00139165,-0.00098484,0.0001
 9407,-0.00075834,-0.00057733,0.00019889,-0.00249182,0.00004293,-0.0018
 8798,-0.00256298,0.00195479,-0.00055909,0.00165868,-0.00318419,0.00015
 732,-0.00053082,0.00066324,-0.00007970,0.00006115,-0.00012195,-0.00307
 484,-0.00147401,0.00308772,-0.00024457,0.00035780,0.00023664,-0.000260
 83,-0.00005409,0.00003596,0.00233286,0.00316609,-0.00204462,0.00086826
 ,0.00009985,-0.00032775,-0.00293196,-0.00839557,0.00323244,-0.00081590
 ,0.00008954,0.00158307,-0.00012540,-0.00018632,-0.00001350,-0.00018863
 ,-0.00001868,0.00006913,0.00127674,-0.00031623,0.00153417,0.00013033,-
 0.00002738,0.00033211,-0.00051126,-0.00023566,0.00034281,-0.00346235,0
 .01489927,-0.00317698,-0.00059349,-0.00160457,-0.00019048,-0.04425373,
 -0.04640373,-0.00789905,0.00148059,0.00004465,-0.00018305,-0.00011539,
 0.00003671,0.00002073,0.00012099,0.00012366,-0.00048163,0.00021153,-0.
 00059231,-0.00060165,-0.00023398,-0.00006481,0.00016742,0.00005094,0.0
 0001174,0.00004428,-0.00036109,0.00025015,-0.00019057,0.00009810,-0.00
 000452,-0.00011993,0.00000037,0.00004258,0.00003813,-0.00011290,0.0000
 4564,0.00015127,0.00012066,-0.00002940,-0.00011967,0.00001363,0.000045
 13,0.00001259,-0.00024392,0.00004086,-0.00004851,-0.00006827,0.0000434
 9,0.00000121,0.00009359,-0.00002088,-0.00004227,0.00001470,-0.00033578
 ,0.00013337,-0.00023644,0.00000741,-0.00040265,-0.00012554,0.00022282,
 -0.00007996,-0.00067349,0.00131790,-0.00189340,0.00008905,-0.00054384,
 0.00173698,0.00219214,0.00139657,0.00150620,-0.03580978,0.02681175,-0.
 04461185,-0.00309119,-0.00861684,-0.00775979,-0.10031949,0.01815879,0.
 04739949,0.23960737,0.00667049,-0.01022536,0.01737013,-0.00144517,-0.0
 0072858,0.00341406,0.00222758,-0.00436803,0.00324714,-0.00261273,-0.00
 068994,-0.00194506,0.00200589,-0.00294999,0.00346771,0.00364730,-0.003
 06037,0.00238640,-0.00119389,0.00080316,0.00007497,0.00014014,-0.00015
 080,0.00020143,-0.00443281,-0.00505589,0.00748220,0.00063564,0.0009694
 4,-0.00015034,0.00059909,-0.00051933,-0.00044589,0.00206023,0.00459078
 ,-0.00361288,-0.00010079,-0.00051059,0.00020094,-0.00100038,-0.0035282
 2,0.00423857,-0.00062082,0.00047849,0.00214395,-0.00004153,0.00009140,
 -0.00009392,0.00013459,-0.00014830,-0.00006389,-0.00082996,0.00025283,
 -0.00182128,-0.00000535,0.00004351,-0.00012709,0.00046317,-0.00019551,
 -0.00015536,-0.01045523,0.00606490,-0.00554110,0.00162735,0.00258893,-
 0.00256091,-0.03495233,-0.07594958,-0.01435504,0.00019040,-0.00003174,
 -0.00008019,-0.00009795,0.00016353,0.00002385,0.00052647,-0.00010667,0
 .00030916,0.00070884,-0.00187542,-0.00138788,-0.00001457,0.00007267,0.
 00026943,-0.00000008,0.00004571,0.00014181,0.00000738,0.00021092,-0.00
 042385,-0.00010133,0.00001591,0.00009859,0.00017685,-0.00014723,-0.000
 01859,0.00010034,0.00007532,-0.00007459,-0.00004955,-0.00000040,0.0000
 7309,-0.00003738,-0.00003680,0.00000642,-0.00025105,0.00005951,-0.0000
 8354,-0.00004298,-0.00007758,0.00002909,0.00005365,-0.00000328,-0.0000
 2018,-0.00004053,0.00031440,0.00007423,0.00016159,-0.00001220,0.000205
 72,0.00007778,-0.00015246,0.00005432,-0.00010280,-0.00104246,-0.000079
 76,-0.00020320,0.00109097,-0.00135571,-0.00039561,0.00046323,0.0013445
 7,0.00174974,-0.01177631,0.01783868,-0.00395764,-0.01158833,-0.0202331
 3,0.01398256,-0.00994891,-0.01595276,-0.02654437,0.23009033,0.00369085
 ,0.02107710,-0.01534859,-0.00162323,-0.00177889,-0.00027773,-0.0008421
 6,0.00173573,-0.00211128,0.00099257,0.00351929,-0.00275665,0.00335439,
 -0.00158739,-0.00392438,-0.00017363,-0.00082511,-0.00494957,-0.0004133
 5,0.00027803,-0.00002291,0.00056412,0.00008595,0.00013706,-0.00210163,
 -0.00113041,-0.00286485,-0.00009415,0.00012001,0.00053012,0.00013295,0
 .00012795,0.00009367,0.00245978,-0.00052014,-0.00139190,0.00064779,0.0
 0015980,0.00022430,-0.00196464,-0.00156680,0.00293974,-0.00026255,-0.0
 0033114,0.00038716,0.00026318,-0.00006749,-0.00000851,-0.00016233,-0.0
 0009855,-0.00000473,-0.00041343,-0.00054921,-0.00042350,0.00001874,0.0
 0018845,-0.00037734,0.00031851,0.00020628,0.00008136,-0.00650110,0.001
 86197,-0.00131242,-0.00037594,-0.00100309,-0.00159584,-0.00331118,-0.0
 0370556,-0.00890928,0.00112529,-0.00006591,0.00018006,-0.00006411,0.00
 007730,0.00004293,0.00013682,0.00052916,0.00015617,-0.00021990,-0.0007
 5900,-0.00022842,-0.00003542,-0.00005088,0.00032150,0.00004965,0.00014
 248,0.00012175,-0.00035483,0.00020041,-0.00046527,0.00001118,0.0000014
 9,-0.00004681,-0.00001926,0.00008788,0.00004395,0.00002313,0.00000163,
 0.00002086,0.00004797,0.00000169,-0.00005288,0.00003401,-0.00001431,0.
 00003360,-0.00030045,0.00032387,-0.00037167,-0.00002853,0.00000329,-0.
 00006315,0.00022189,-0.00009827,0.00005370,-0.00028773,-0.00045697,0.0
 0009554,0.00005654,0.00018019,-0.00000670,-0.00005408,0.00011028,-0.00
 000917,0.00099284,-0.00168279,0.00015206,0.00104033,0.00014167,0.00022
 579,-0.00100546,0.00048393,-0.00209479,-0.03373666,0.01336871,-0.01739
 781,-0.01047575,-0.02739342,-0.10720570,0.04869575,-0.00783905,-0.0347
 3890,0.00050513,0.01229593,0.22913452,0.00499069,-0.00350851,0.0019112
 5,-0.00007963,-0.00007432,0.00014896,0.00006576,0.00086773,-0.00082370
 ,-0.00085019,0.00068032,-0.00123498,0.00013053,0.00008543,0.00125984,0
 .00103912,-0.00267458,0.00313268,-0.00010766,0.00011145,-0.00043621,-0
 .00004633,-0.00006086,0.00014294,-0.00057661,0.00010964,0.00044043,0.0
 0048263,0.00001459,-0.00012135,0.00002249,-0.00008481,-0.00001762,-0.0
 0035532,-0.00085406,0.00101136,-0.00088693,-0.00023088,0.00016939,0.00
 160774,0.00158804,0.00116316,0.00021317,-0.00003629,-0.00005073,0.0000
 3096,0.00015648,-0.00008964,0.00022937,-0.00006697,-0.00006302,-0.0007
 9783,0.00036116,-0.00095655,0.00020228,-0.00010865,0.00030982,0.000343
 94,0.00027552,-0.00039027,-0.00184665,-0.00534748,-0.00111549,-0.00292
 212,0.00364449,-0.00364980,0.01147039,0.00007490,0.00095474,-0.0008788
 7,0.00011294,0.00010436,0.00003185,0.00003847,-0.00003299,0.00014025,-
 0.00003972,0.00003203,0.00006532,0.00011938,0.00021278,0.00009805,0.00
 002432,-0.00001669,-0.00003559,0.00003370,-0.00006715,0.00032822,-0.00
 006271,-0.00003524,-0.00013722,0.00000621,0.00015181,0.00009610,-0.000
 11666,-0.00003840,0.00013415,-0.00001596,-0.00013981,-0.00011925,0.000
 02390,0.00014199,-0.00003596,-0.00003883,-0.00001510,0.00005363,-0.000
 12664,0.00006660,0.00007823,-0.00001854,0.00005438,-0.00009904,0.00004
 113,-0.00000081,0.00002860,0.00049598,-0.00005018,0.00023494,-0.000031
 70,0.00023960,0.00014517,-0.00023200,0.00006984,-0.00092101,-0.0006790
 7,-0.00027188,0.00005933,0.00077947,-0.00080992,-0.00056760,0.00033392
 ,-0.00060588,-0.00296612,-0.00319720,-0.00047354,-0.00204138,0.0050126
 5,-0.00475376,-0.00647403,0.00019727,0.00134569,-0.04369176,0.02624225
 ,0.00060453,0.18069556,-0.00554100,-0.00342098,0.00240188,-0.00032465,
 -0.00041236,-0.00187286,0.00027693,0.00056901,-0.00100869,0.00222452,0
 .00133649,0.00216825,-0.00177906,0.00175071,-0.00316279,-0.00263427,0.
 00271370,-0.00384969,0.00090727,-0.00029538,0.00020095,-0.00013135,-0.
 00003541,-0.00015258,-0.00118334,0.00132142,-0.00201252,0.00012623,-0.
 00006185,-0.00021421,-0.00016312,0.00001077,0.00014168,0.00080348,-0.0
 0444043,0.00281153,-0.00006124,0.00003856,0.00008980,0.00166884,0.0056
 2847,-0.00363794,0.00030844,-0.00043380,-0.00148584,0.00014051,-0.0000
 8411,0.00004888,0.00011805,-0.00011971,0.00013795,0.00086860,-0.000234
 47,0.00127570,-0.00023494,-0.00017470,-0.00014631,-0.00030157,0.000079
 63,0.00037015,0.00179112,0.00353064,0.00283327,-0.00132549,-0.00729692
 ,0.00576060,-0.00559065,-0.00751098,0.00015758,-0.00093333,0.00104692,
 -0.00058421,0.00003468,-0.00018921,-0.00015792,-0.00004501,0.00026371,
 -0.00050006,0.00090908,0.00154203,0.00073087,-0.00009949,-0.00008503,0
 .00005328,-0.00007149,0.00005107,0.00003487,-0.00053559,-0.00027542,0.
 00081747,0.00053772,-0.00000687,-0.00045467,-0.00000459,0.00003687,0.0
 0007818,-0.00024923,-0.00012497,0.00042738,0.00035347,-0.00009159,-0.0
 0036344,-0.00014844,0.00014276,-0.00001778,0.00080549,-0.00041736,0.00
 030662,-0.00000657,0.00016297,-0.00004402,-0.00040384,0.00017175,-0.00
 011608,0.00017474,-0.00041448,-0.00018731,-0.00022512,0.00000854,-0.00
 031789,-0.00034494,0.00042995,-0.00008051,0.00086928,0.00046863,0.0001
 1522,0.00009694,-0.00041931,0.00172980,0.00039691,-0.00058857,0.000216
 40,0.00523407,0.00242493,0.00099903,0.00198414,-0.00098904,0.00204199,
 0.01210590,-0.00071782,0.00325302,0.01336179,-0.05530074,-0.01513157,-
 0.33730958,1.01065388,-0.00013856,0.00075960,-0.00092689,0.00000622,0.
 00027528,-0.00024651,-0.00000245,-0.00030713,0.00018881,-0.00036756,-0
 .00031988,-0.00014738,0.00068463,0.00057713,-0.00016169,-0.00126238,0.
 00157313,-0.00084433,-0.00015837,0.00004829,0.00004710,-0.00001957,-0.
 00019427,-0.00000810,0.00066804,0.00039994,0.00024860,-0.00010254,0.00
 009194,-0.00008361,0.00009008,0.00009041,0.00011363,-0.00024401,-0.000
 30281,-0.00056802,0.00020719,-0.00007668,-0.00007852,0.00039218,0.0001
 6140,0.00069980,0.00010055,-0.00003435,0.00009463,-0.00007765,-0.00000
 827,0.00001092,-0.00004617,0.00004766,0.00000612,0.00025448,0.00015648
 ,0.00004858,0.00003910,-0.00001620,0.00005652,-0.00011202,-0.00019054,
 0.00014506,-0.00129417,-0.00154679,-0.00150100,-0.00058225,0.00029595,
 -0.00086408,0.00050893,-0.00056760,-0.00050251,0.00014721,-0.00018298,
 0.00002068,0.00000268,-0.00000256,0.00001528,-0.00006869,-0.00013068,0
 .00004207,-0.00035683,-0.00000020,-0.00005806,0.00001928,0.00003604,-0
 .00006857,0.00000787,-0.00004727,-0.00000828,0.00007695,0.00002461,-0.
 00004461,-0.00005776,0.00000241,0.00004689,-0.00001667,0.00001038,-0.0
 0001059,0.00000578,0.00002728,-0.00003198,-0.00003458,0.00000801,0.000
 03130,0.00002931,-0.00001514,0.00000349,-0.00011422,0.00006343,-0.0000
 1246,-0.00002352,-0.00001815,0.00000213,0.00006241,-0.00002011,0.00000
 982,-0.00002045,0.00001947,0.00006042,-0.00007154,-0.00005563,-0.00003
 664,0.00003222,-0.00003130,-0.00000120,0.00002884,0.00063650,-0.000653
 30,0.00039513,-0.00023316,0.00018920,-0.00017691,0.00057765,0.00050718
 ,0.00901913,-0.00157806,0.00445996,-0.00754724,0.00890448,-0.00612344,
 -0.00788552,-0.00243771,0.00643283,0.00677588,-0.01493391,-0.04017812,
 0.02428665,-0.05459931,0.07530660,-0.00159570,0.00113287,-0.00119239,-
 0.00001279,-0.00001320,-0.00004890,0.00007191,-0.00040827,0.00029822,0
 .00028061,-0.00015343,0.00050284,-0.00014976,0.00003951,-0.00043482,-0
 .00039046,0.00089841,-0.00146295,0.00005302,-0.00003042,0.00017466,0.0
 0003124,0.00005412,-0.00007625,0.00017315,0.00003476,-0.00017464,-0.00
 018232,-0.00002266,0.00003114,0.00002139,0.00002947,-0.00001872,0.0000
 1354,0.00003547,-0.00009780,0.00034388,0.00010147,-0.00003688,-0.00038
 410,-0.00040195,-0.00083101,-0.00005019,0.00005664,-0.00006638,-0.0000
 0063,-0.00007001,0.00003632,-0.00008515,0.00001116,0.00003581,0.000348
 99,-0.00017835,0.00040273,-0.00010228,0.00004398,-0.00016016,-0.000140
 05,-0.00007580,0.00019208,-0.00012905,0.00280732,0.00045104,-0.0002749
 0,-0.00380746,0.00156099,-0.00249788,-0.00118660,-0.00016019,0.0002944
 5,0.00002140,-0.00009320,-0.00001050,-0.00002296,0.00000748,-0.0000588
 3,0.00001586,-0.00002377,0.00004827,0.00001950,-0.00005939,-0.00004592
 ,-0.00001345,0.00001613,0.00001028,-0.00000612,0.00002833,-0.00017532,
 0.00000659,0.00007065,0.00009943,-0.00000233,-0.00009832,-0.00003814,0
 .00004442,0.00002151,-0.00007090,0.00000120,0.00008986,0.00007656,-0.0
 0001745,-0.00008654,0.00000170,0.00002578,0.00000509,0.00003030,0.0000
 1941,-0.00000786,-0.00003277,0.00001755,-0.00002762,0.00000946,-0.0000
 0233,-0.00001099,0.00000139,-0.00022702,0.00000638,-0.00010415,0.00001
 910,-0.00011206,-0.00008485,0.00012493,-0.00003271,0.00039218,0.000166
 94,0.00019950,-0.00001649,-0.00027244,0.00036754,0.00020769,-0.0000931
 5,0.00014900,0.00011156,0.00101005,0.00010245,0.00027939,-0.00126323,0
 .00062189,0.00185025,-0.00077389,-0.00052688,0.00136182,0.02534072,-0.
 00116644,-0.13658136,0.31354968,-0.02305910,0.13710203,0.00161643,-0.0
 0008176,0.00081971,-0.00000174,0.00014115,0.00069289,-0.00024800,0.000
 15802,0.00043547,-0.00104404,-0.00061548,-0.00113297,0.00108545,-0.000
 57177,0.00155124,0.00160141,-0.00125726,0.00240623,-0.00039711,0.00011
 115,-0.00018960,-0.00001381,-0.00005688,0.00013925,0.00150992,-0.00001
 481,0.00012217,-0.00007774,-0.00008434,0.00010226,0.00002972,0.0000337
 4,-0.00008986,-0.00065471,0.00227377,-0.00143332,-0.00014965,-0.000047
 40,-0.00008950,-0.00099949,-0.00285445,0.00126060,-0.00010208,0.000221
 17,0.00061407,-0.00008757,0.00008068,-0.00004048,-0.00002491,0.0000905
 5,-0.00010472,-0.00055625,0.00021531,-0.00072759,0.00019789,0.00003887
 ,0.00024528,0.00019737,-0.00010500,-0.00021009,0.00149670,-0.00457343,
 0.00028074,-0.00122558,0.00395146,-0.00464912,0.00196412,0.00384387,-0
 .00018052,0.00028863,-0.00064667,0.00043233,0.00000189,0.00010757,0.00
 008467,-0.00000749,-0.00014663,0.00028272,-0.00063249,-0.00063875,-0.0
 0023575,0.00009283,0.00003857,-0.00008947,0.00003834,-0.00004249,-0.00
 005726,0.00043941,0.00012329,-0.00044837,-0.00037377,0.00000168,0.0003
 2388,-0.00000172,-0.00003105,-0.00005863,0.00018842,0.00006033,-0.0003
 1134,-0.00025919,0.00006767,0.00026595,0.00008972,-0.00009550,0.000005
 31,-0.00046058,0.00023220,-0.00014965,0.00002323,-0.00010271,0.0000475
 0,0.00023509,-0.00009878,0.00007777,-0.00011116,0.00034336,0.00010499,
 0.00016523,-0.00002055,0.00021041,0.00025169,-0.00031458,0.00005828,-0
 .00051819,-0.00016822,-0.00042905,0.00008879,0.00012746,-0.00059761,-0
 .00014678,0.00042644,0.00006506,-0.00054902,-0.00093378,-0.00113537,-0
 .00021666,0.00135162,-0.00049349,-0.00010220,0.00094156,-0.00216213,0.
 02046072,-0.04830498,0.00934544,0.31348468,-0.95024191,0.06306322,-0.3
 3658577,0.99706771,-0.00050209,-0.00039090,0.00031844,-0.00002642,-0.0
 0008618,0.00008786,-0.00001263,0.00007198,-0.00002218,0.00015421,0.000
 12854,0.00009603,-0.00012986,0.00006516,-0.00022596,0.00022744,-0.0002
 6193,0.00005508,0.00006037,-0.00003060,0.00000082,0.00001239,0.0000653
 4,-0.00000879,-0.00008982,-0.00003641,-0.00016815,0.00000823,-0.000035
 02,0.00001758,-0.00002963,-0.00000906,-0.00002745,0.00004322,-0.000068
 14,0.00017862,-0.00002615,0.00003735,0.00002013,-0.00004365,0.00004886
 ,-0.00044303,-0.00003658,0.00003169,-0.00005456,0.00002044,-0.00000606
 ,0.00000287,0.00000371,-0.00001106,0.00000289,-0.00003459,-0.00005427,
 0.00002467,-0.00002153,0.00000838,-0.00003413,0.00002384,0.00006022,-0
 .00002034,0.00006522,0.00057289,0.00057187,-0.00025057,-0.00080012,0.0
 0083882,-0.00011194,-0.00037189,0.00028703,-0.00002389,0.00005265,-0.0
 0002571,0.00000058,-0.00000419,-0.00000204,0.00000643,0.00002921,-0.00
 000814,0.00009513,0.00001856,0.00001647,-0.00001000,-0.00001213,0.0000
 1487,-0.00000014,0.00001251,0.00000219,-0.00003827,-0.00001148,0.00003
 203,0.00002935,-0.00000104,-0.00002615,-0.00000173,0.00000262,0.000005
 41,-0.00000987,-0.00000879,0.00002104,0.00001886,-0.00000440,-0.000019
 67,-0.00000863,0.00000844,-0.00000069,0.00003858,-0.00001794,0.0000064
 6,0.00000554,0.00000823,-0.00000372,-0.00002032,0.00000648,-0.00000469
 ,0.00000993,-0.00003562,-0.00001328,0.00001069,0.00001538,0.00000097,-
 0.00002160,0.00002626,-0.00000324,0.00005092,-0.00018349,0.00025902,-0
 .00014683,0.00004878,-0.00001378,0.00006868,-0.00022322,-0.00021178,-0
 .00237399,0.00039633,-0.00092189,0.00153578,-0.00122221,0.00063177,0.0
 0150350,0.00077152,-0.00183407,-0.00302259,0.00852446,0.01416304,-0.02
 169408,0.06089585,-0.03562773,0.02469434,-0.06802154,0.02206521\\0.000
 02754,0.00003187,-0.00005322,0.00001421,0.00000436,-0.00001790,-0.0000
 0578,0.00000650,0.00000321,-0.00000458,-0.00000254,-0.00000753,-0.0000
 0367,-0.00001247,0.00001186,-0.00001744,-0.00002550,0.00004178,-0.0000
 0537,-0.00000102,-0.00001552,0.00000439,-0.00000097,-0.00001313,-0.000
 00008,0.00000714,0.00006438,0.00000798,-0.00000123,-0.00001378,-0.0000
 0108,-0.00000112,0.00000491,0.00002008,-0.00003149,-0.00002010,0.00000
 261,-0.00000680,0.00000560,0.00000893,0.00000031,0.00000024,-0.0000051
 1,0.00000474,0.00000514,-0.00000181,-0.00000289,-0.00000359,0.00000027
 ,0.00000397,-0.00000293,0.00001705,-0.00000444,0.00001798,-0.00000534,
 -0.00001082,-0.00000233,0.00000308,0.00001304,-0.00000294,-0.00000770,
 0.00003359,-0.00001372,0.00000395,-0.00000877,-0.00000583,-0.00004232,
 -0.00002158,0.00001629,0.00000225,0.00001188,0.00000917,-0.00000447,-0
 .00000136,-0.00000386,-0.00001132,-0.00000316,-0.00001304,0.00000331,0
 .00002418,-0.00000020,-0.00000353,-0.00001087,0.00000053,-0.00000196,-
 0.00000184,0.00000170,-0.00000299,0.00000487,0.00000604,-0.00000170,-0
 .00000133,-0.00000245,0.00000200,-0.00000621,-0.00000359,0.00001042,0.
 00000101,0.00000335,-0.00000033,0.00000157,-0.00000148,0.00000232,0.00
 001101,-0.00000752,0.00000757,-0.00000979,0.00001442,-0.00000228,-0.00
 001087,0.00000196,-0.00002266,-0.00001665,-0.00000172,0.00000569,0.000
 04090,-0.00002343,-0.00000174,0.00000206,-0.00000193,-0.00000269,-0.00
 000326,0.00000827,-0.00000632,0.00000211,-0.00000211,0.00000076,0.0000
 0917,-0.00000958,0.00000661,0.00000849,0.00000434,0.00001804,-0.000029
 68,0.00002886,0.00001243,0.00000505,0.00001120,0.00000326,0.00001356,0
 .00000527,-0.00001994,-0.00002358,-0.00003076,-0.00002071,0.00005982,0
 .00001015,0.00001817,-0.00005096,-0.00000247\\\@
 The archive entry for this job was punched.


 There was a great rattling of the words for the fewness of ideas.
                   -- Charles Baxter in Gryphon
 Job cpu time:       2 days 16 hours 19 minutes  2.5 seconds.
 Elapsed time:       0 days  1 hours 20 minutes 36.7 seconds.
 File lengths (MBytes):  RWF=   6958 Int=      0 D2E=      0 Chk=     85 Scr=      2
 Normal termination of Gaussian 16 at Fri Dec 23 03:15:48 2022.
