 Entering Gaussian System, Link 0=g16
 Initial command:
 /home/chesagar/softwares/G16_AVX2//g16/l1.exe "/home/chesagar/scratch/Gau-195746.inp" -scrdir="/home/chesagar/scratch/"
 Entering Link 1 = /home/chesagar/softwares/G16_AVX2//g16/l1.exe PID=    195747.
  
 Copyright (c) 1988-2019, Gaussian, Inc.  All Rights Reserved.
  
 This is part of the Gaussian(R) 16 program.  It is based on
 the Gaussian(R) 09 system (copyright 2009, Gaussian, Inc.),
 the Gaussian(R) 03 system (copyright 2003, Gaussian, Inc.),
 the Gaussian(R) 98 system (copyright 1998, Gaussian, Inc.),
 the Gaussian(R) 94 system (copyright 1995, Gaussian, Inc.),
 the Gaussian 92(TM) system (copyright 1992, Gaussian, Inc.),
 the Gaussian 90(TM) system (copyright 1990, Gaussian, Inc.),
 the Gaussian 88(TM) system (copyright 1988, Gaussian, Inc.),
 the Gaussian 86(TM) system (copyright 1986, Carnegie Mellon
 University), and the Gaussian 82(TM) system (copyright 1983,
 Carnegie Mellon University). Gaussian is a federally registered
 trademark of Gaussian, Inc.
  
 This software contains proprietary and confidential information,
 including trade secrets, belonging to Gaussian, Inc.
  
 This software is provided under written license and may be
 used, copied, transmitted, or stored only in accord with that
 written license.
  
 The following legend is applicable only to US Government
 contracts under FAR:
  
                    RESTRICTED RIGHTS LEGEND
  
 Use, reproduction and disclosure by the US Government is
 subject to restrictions as set forth in subparagraphs (a)
 and (c) of the Commercial Computer Software - Restricted
 Rights clause in FAR 52.227-19.
  
 Gaussian, Inc.
 340 Quinnipiac St., Bldg. 40, Wallingford CT 06492
  
  
 ---------------------------------------------------------------
 Warning -- This program may not be used in any manner that
 competes with the business of Gaussian, Inc. or will provide
 assistance to any competitor of Gaussian, Inc.  The licensee
 of this program is prohibited from giving any competitor of
 Gaussian, Inc. access to this program.  By using this program,
 the user acknowledges that Gaussian, Inc. is engaged in the
 business of creating and licensing software in the field of
 computational chemistry and represents and warrants to the
 licensee that it is not a competitor of Gaussian, Inc. and that
 it will not use this program in any manner prohibited above.
 ---------------------------------------------------------------
  

 Cite this work as:
 Gaussian 16, Revision C.01,
 M. J. Frisch, G. W. Trucks, H. B. Schlegel, G. E. Scuseria, 
 M. A. Robb, J. R. Cheeseman, G. Scalmani, V. Barone, 
 G. A. Petersson, H. Nakatsuji, X. Li, M. Caricato, A. V. Marenich, 
 J. Bloino, B. G. Janesko, R. Gomperts, B. Mennucci, H. P. Hratchian, 
 J. V. Ortiz, A. F. Izmaylov, J. L. Sonnenberg, D. Williams-Young, 
 F. Ding, F. Lipparini, F. Egidi, J. Goings, B. Peng, A. Petrone, 
 T. Henderson, D. Ranasinghe, V. G. Zakrzewski, J. Gao, N. Rega, 
 G. Zheng, W. Liang, M. Hada, M. Ehara, K. Toyota, R. Fukuda, 
 J. Hasegawa, M. Ishida, T. Nakajima, Y. Honda, O. Kitao, H. Nakai, 
 T. Vreven, K. Throssell, J. A. Montgomery, Jr., J. E. Peralta, 
 F. Ogliaro, M. J. Bearpark, J. J. Heyd, E. N. Brothers, K. N. Kudin, 
 V. N. Staroverov, T. A. Keith, R. Kobayashi, J. Normand, 
 K. Raghavachari, A. P. Rendell, J. C. Burant, S. S. Iyengar, 
 J. Tomasi, M. Cossi, J. M. Millam, M. Klene, C. Adamo, R. Cammi, 
 J. W. Ochterski, R. L. Martin, K. Morokuma, O. Farkas, 
 J. B. Foresman, and D. J. Fox, Gaussian, Inc., Wallingford CT, 2019.
 
 ******************************************
 Gaussian 16:  ES64L-G16RevC.01  3-Jul-2019
                24-Dec-2022 
 ******************************************
 %nprocshared=48
 Will use up to   48 processors via shared memory.
 %mem=100GB
 ---------------------------------------
 # opt freq b3lyp/gen nosymm pseudo=read
 ---------------------------------------
 1/18=20,19=15,26=3,38=1/1,3;
 2/9=110,12=2,15=1,17=6,18=5,40=1/2;
 3/5=7,11=2,16=1,17=8,25=1,30=1,71=1,74=-5/1,2,3;
 4//1;
 5/5=2,38=5/2;
 6/7=2,8=2,9=2,10=2,28=1/1;
 7/30=1/1,2,3,16;
 1/18=20,19=15,26=3/3(2);
 2/9=110,15=1/2;
 99//99;
 2/9=110,15=1/2;
 3/5=7,6=1,11=2,16=1,17=8,25=1,30=1,71=1,74=-5,82=7/1,2,3;
 4/5=5,16=3,69=1/1;
 5/5=2,38=5/2;
 7/30=1/1,2,3,16;
 1/18=20,19=15,26=3/3(-5);
 2/9=110,15=1/2;
 6/7=2,8=2,9=2,10=2,19=2,28=1/1;
 99/9=1/99;
 -------------------
 Title Card Required
 -------------------
 Symbolic Z-matrix:
 Charge =  0 Multiplicity = 1
 42                   -0.06435   1.73837   12.81572 
 16                    1.2206    3.95337   12.53418 
 16                   -1.81424   3.33209   13.46761 
 16                   -0.66124   1.46533   10.46774 
 16                    2.20414   0.31073   12.16808 
 42                   -2.61095   2.79909   11.26836 
 16                   -2.97088   2.62376   8.64948 
 16                   -1.22649   4.77861   10.5275 
 42                    0.82471   3.40536   10.25817 
 16                    0.04163   3.31678   7.81225 
 16                    2.52449   1.85006   9.46588 
 42                    2.94938   2.61463   11.71309 
 42                   -1.77471   4.90732   8.01741 
 16                    3.83727   2.91938   14.15622 
 16                    4.66355   4.08225   11.26912 
 16                   -3.66839   6.21351   8.93847 
 16                   -0.58579   6.98376   7.85227 
 42                   -4.64815   3.99621   8.99678 
 16                   -6.44232   2.29313   9.4524 
 16                   -4.42301   4.4706    11.44978 
 42                    2.83376   0.79522   14.3012 
 16                    4.41796  -0.59882   15.20746 
 16                    0.88112   1.92501   15.21495 
 42                    1.2233    5.39708   7.16099 
 16                    0.41244   4.8245    4.87896 
 16                    1.72878   5.62715   9.67907 
 42                    3.35576   4.07208   9.29407 
 16                    3.1374    3.72036   6.83198 
 16                    5.17605   5.87056   8.77808 
 42                    4.27816   5.73256   6.79267 
 16                    5.77545   5.86656   5.30918 
 16                    2.6784    7.46176   6.84326 
 42                    1.59082   6.8699    4.77353 
 16                    2.98593   6.68094   3.18126 
 16                    0.0091    8.33489   4.54033 
 42                   -1.33827   6.2545    5.74304 
 16                   -2.61667   4.24066   5.7799 
 16                   -3.08882   7.33107   4.91847 
 42                   -4.33688   5.83793   6.73562 
 16                   -5.72479   3.98896   6.91383 
 16                   -5.78941   7.39182   6.43386 
 42                   -5.49015   2.40329   11.45899 
 16                   -6.90733   2.30268   13.02872 
 16                   -3.91295   0.61266   11.43334 
 42                   -2.77929   1.19514   13.45999 
 16                   -1.17041  -0.53423   13.05631 
 16                   -4.07445   1.14599   15.14085 
 42                   -0.06563  -0.20994   15.11727 
 16                    1.59682  -1.59235   14.93625 
 16                   -1.26969  -0.63414   16.80101 
 42                    5.60288   1.38815   14.70317 
 6                     6.3493    1.03382   12.93462 
 8                     6.73277   0.77956   11.87003 
 

 GradGradGradGradGradGradGradGradGradGradGradGradGradGradGradGradGradGrad
 Berny optimization.
 Initialization pass.
                           ----------------------------
                           !    Initial Parameters    !
                           ! (Angstroms and Degrees)  !
 --------------------------                            --------------------------
 ! Name  Definition              Value          Derivative Info.                !
 --------------------------------------------------------------------------------
 ! R1    R(1,2)                  2.5762         estimate D2E/DX2                !
 ! R2    R(1,3)                  2.455          estimate D2E/DX2                !
 ! R3    R(1,4)                  2.438          estimate D2E/DX2                !
 ! R4    R(1,5)                  2.7575         estimate D2E/DX2                !
 ! R5    R(1,23)                 2.5856         estimate D2E/DX2                !
 ! R6    R(1,45)                 2.8427         estimate D2E/DX2                !
 ! R7    R(1,46)                 2.5389         estimate D2E/DX2                !
 ! R8    R(1,48)                 3.0155         estimate D2E/DX2                !
 ! R9    R(2,9)                  2.3743         estimate D2E/DX2                !
 ! R10   R(2,12)                 2.3356         estimate D2E/DX2                !
 ! R11   R(3,6)                  2.3991         estimate D2E/DX2                !
 ! R12   R(3,45)                 2.3448         estimate D2E/DX2                !
 ! R13   R(4,6)                  2.4943         estimate D2E/DX2                !
 ! R14   R(4,9)                  2.4527         estimate D2E/DX2                !
 ! R15   R(5,12)                 2.4638         estimate D2E/DX2                !
 ! R16   R(5,21)                 2.2763         estimate D2E/DX2                !
 ! R17   R(6,7)                  2.6493         estimate D2E/DX2                !
 ! R18   R(6,8)                  2.5267         estimate D2E/DX2                !
 ! R19   R(6,20)                 2.4719         estimate D2E/DX2                !
 ! R20   R(6,42)                 2.9125         estimate D2E/DX2                !
 ! R21   R(6,44)                 2.5501         estimate D2E/DX2                !
 ! R22   R(6,45)                 2.7211         estimate D2E/DX2                !
 ! R23   R(7,13)                 2.6542         estimate D2E/DX2                !
 ! R24   R(7,18)                 2.1949         estimate D2E/DX2                !
 ! R25   R(8,9)                  2.4831         estimate D2E/DX2                !
 ! R26   R(8,13)                 2.5725         estimate D2E/DX2                !
 ! R27   R(9,10)                 2.5697         estimate D2E/DX2                !
 ! R28   R(9,11)                 2.4364         estimate D2E/DX2                !
 ! R29   R(9,12)                 2.6938         estimate D2E/DX2                !
 ! R30   R(9,26)                 2.4676         estimate D2E/DX2                !
 ! R31   R(9,27)                 2.7893         estimate D2E/DX2                !
 ! R32   R(10,13)                2.423          estimate D2E/DX2                !
 ! R33   R(10,24)                2.4795         estimate D2E/DX2                !
 ! R34   R(11,12)                2.4114         estimate D2E/DX2                !
 ! R35   R(11,27)                2.3786         estimate D2E/DX2                !
 ! R36   R(12,14)                2.6173         estimate D2E/DX2                !
 ! R37   R(12,15)                2.2999         estimate D2E/DX2                !
 ! R38   R(12,27)                2.8532         estimate D2E/DX2                !
 ! R39   R(13,16)                2.478          estimate D2E/DX2                !
 ! R40   R(13,17)                2.3984         estimate D2E/DX2                !
 ! R41   R(13,36)                2.6792         estimate D2E/DX2                !
 ! R42   R(13,37)                2.4819         estimate D2E/DX2                !
 ! R43   R(13,39)                3.0123         estimate D2E/DX2                !
 ! R44   R(14,21)                2.3537         estimate D2E/DX2                !
 ! R45   R(14,51)                2.4003         estimate D2E/DX2                !
 ! R46   R(15,27)                2.3688         estimate D2E/DX2                !
 ! R47   R(16,18)                2.4248         estimate D2E/DX2                !
 ! R48   R(16,39)                2.3325         estimate D2E/DX2                !
 ! R49   R(17,24)                2.5036         estimate D2E/DX2                !
 ! R50   R(17,36)                2.3552         estimate D2E/DX2                !
 ! R51   R(18,19)                2.5154         estimate D2E/DX2                !
 ! R52   R(18,20)                2.5086         estimate D2E/DX2                !
 ! R53   R(18,39)                2.9329         estimate D2E/DX2                !
 ! R54   R(18,40)                2.3448         estimate D2E/DX2                !
 ! R55   R(18,42)                3.051          estimate D2E/DX2                !
 ! R56   R(19,42)                2.2238         estimate D2E/DX2                !
 ! R57   R(20,42)                2.3265         estimate D2E/DX2                !
 ! R58   R(21,22)                2.2966         estimate D2E/DX2                !
 ! R59   R(21,23)                2.434          estimate D2E/DX2                !
 ! R60   R(21,51)                2.8603         estimate D2E/DX2                !
 ! R61   R(22,51)                2.3678         estimate D2E/DX2                !
 ! R62   R(23,48)                2.3375         estimate D2E/DX2                !
 ! R63   R(24,25)                2.4886         estimate D2E/DX2                !
 ! R64   R(24,26)                2.5786         estimate D2E/DX2                !
 ! R65   R(24,28)                2.5658         estimate D2E/DX2                !
 ! R66   R(24,30)                3.0952         estimate D2E/DX2                !
 ! R67   R(24,32)                2.5458         estimate D2E/DX2                !
 ! R68   R(24,33)                2.8292         estimate D2E/DX2                !
 ! R69   R(24,36)                3.0508         estimate D2E/DX2                !
 ! R70   R(25,33)                2.3629         estimate D2E/DX2                !
 ! R71   R(25,36)                2.42           estimate D2E/DX2                !
 ! R72   R(26,27)                2.2833         estimate D2E/DX2                !
 ! R73   R(27,28)                2.4966         estimate D2E/DX2                !
 ! R74   R(27,29)                2.6104         estimate D2E/DX2                !
 ! R75   R(28,30)                2.3134         estimate D2E/DX2                !
 ! R76   R(29,30)                2.1834         estimate D2E/DX2                !
 ! R77   R(30,31)                2.112          estimate D2E/DX2                !
 ! R78   R(30,32)                2.3563         estimate D2E/DX2                !
 ! R79   R(32,33)                2.4118         estimate D2E/DX2                !
 ! R80   R(33,34)                2.1254         estimate D2E/DX2                !
 ! R81   R(33,35)                2.1685         estimate D2E/DX2                !
 ! R82   R(35,36)                2.755          estimate D2E/DX2                !
 ! R83   R(36,37)                2.3856         estimate D2E/DX2                !
 ! R84   R(36,38)                2.2144         estimate D2E/DX2                !
 ! R85   R(37,39)                2.5345         estimate D2E/DX2                !
 ! R86   R(38,39)                2.6625         estimate D2E/DX2                !
 ! R87   R(39,40)                2.3188         estimate D2E/DX2                !
 ! R88   R(39,41)                2.1484         estimate D2E/DX2                !
 ! R89   R(42,43)                2.1172         estimate D2E/DX2                !
 ! R90   R(42,44)                2.3863         estimate D2E/DX2                !
 ! R91   R(44,45)                2.3941         estimate D2E/DX2                !
 ! R92   R(45,46)                2.3963         estimate D2E/DX2                !
 ! R93   R(45,47)                2.1225         estimate D2E/DX2                !
 ! R94   R(46,48)                2.3608         estimate D2E/DX2                !
 ! R95   R(48,49)                2.1697         estimate D2E/DX2                !
 ! R96   R(48,50)                2.113          estimate D2E/DX2                !
 ! R97   R(51,52)                1.952          estimate D2E/DX2                !
 ! R98   R(52,53)                1.1598         estimate D2E/DX2                !
 ! A1    A(2,1,3)               80.0018         estimate D2E/DX2                !
 ! A2    A(2,1,4)               96.4973         estimate D2E/DX2                !
 ! A3    A(2,1,5)               90.5242         estimate D2E/DX2                !
 ! A4    A(2,1,23)              81.7756         estimate D2E/DX2                !
 ! A5    A(2,1,45)             131.7158         estimate D2E/DX2                !
 ! A6    A(2,1,48)             129.7285         estimate D2E/DX2                !
 ! A7    A(3,1,4)               98.8545         estimate D2E/DX2                !
 ! A8    A(3,1,23)              88.1309         estimate D2E/DX2                !
 ! A9    A(3,1,46)             104.2054         estimate D2E/DX2                !
 ! A10   A(3,1,48)             102.5012         estimate D2E/DX2                !
 ! A11   A(4,1,5)               85.2525         estimate D2E/DX2                !
 ! A12   A(4,1,45)              87.8824         estimate D2E/DX2                !
 ! A13   A(4,1,46)              83.3595         estimate D2E/DX2                !
 ! A14   A(4,1,48)             131.4989         estimate D2E/DX2                !
 ! A15   A(5,1,23)              87.3913         estimate D2E/DX2                !
 ! A16   A(5,1,45)             137.7301         estimate D2E/DX2                !
 ! A17   A(5,1,46)              85.2515         estimate D2E/DX2                !
 ! A18   A(5,1,48)              81.089          estimate D2E/DX2                !
 ! A19   A(23,1,45)             98.7849         estimate D2E/DX2                !
 ! A20   A(23,1,46)             97.8157         estimate D2E/DX2                !
 ! A21   A(45,1,48)             72.7312         estimate D2E/DX2                !
 ! A22   A(1,2,9)               79.8133         estimate D2E/DX2                !
 ! A23   A(1,2,12)              85.1115         estimate D2E/DX2                !
 ! A24   A(1,3,6)               81.3188         estimate D2E/DX2                !
 ! A25   A(1,4,6)               79.7674         estimate D2E/DX2                !
 ! A26   A(1,4,9)               81.1052         estimate D2E/DX2                !
 ! A27   A(6,4,9)               94.4758         estimate D2E/DX2                !
 ! A28   A(1,5,12)              78.9349         estimate D2E/DX2                !
 ! A29   A(1,5,21)              84.1029         estimate D2E/DX2                !
 ! A30   A(12,5,21)             83.7053         estimate D2E/DX2                !
 ! A31   A(3,6,4)               98.8277         estimate D2E/DX2                !
 ! A32   A(3,6,8)               84.9959         estimate D2E/DX2                !
 ! A33   A(3,6,20)              91.486          estimate D2E/DX2                !
 ! A34   A(3,6,42)             107.3665         estimate D2E/DX2                !
 ! A35   A(3,6,44)             107.5017         estimate D2E/DX2                !
 ! A36   A(4,6,7)               75.73           estimate D2E/DX2                !
 ! A37   A(4,6,8)               84.0595         estimate D2E/DX2                !
 ! A38   A(4,6,20)             163.3674         estimate D2E/DX2                !
 ! A39   A(4,6,42)             136.1438         estimate D2E/DX2                !
 ! A40   A(4,6,44)              87.7874         estimate D2E/DX2                !
 ! A41   A(4,6,45)              89.524          estimate D2E/DX2                !
 ! A42   A(7,6,8)               80.5865         estimate D2E/DX2                !
 ! A43   A(7,6,20)              91.0147         estimate D2E/DX2                !
 ! A44   A(7,6,42)              85.4921         estimate D2E/DX2                !
 ! A45   A(7,6,44)              86.4365         estimate D2E/DX2                !
 ! A46   A(7,6,45)             138.4834         estimate D2E/DX2                !
 ! A47   A(8,6,20)              83.882          estimate D2E/DX2                !
 ! A48   A(8,6,42)             131.861          estimate D2E/DX2                !
 ! A49   A(8,6,45)             137.0435         estimate D2E/DX2                !
 ! A50   A(20,6,44)            101.5805         estimate D2E/DX2                !
 ! A51   A(20,6,45)            107.105          estimate D2E/DX2                !
 ! A52   A(42,6,45)             78.8148         estimate D2E/DX2                !
 ! A53   A(6,7,13)              96.7327         estimate D2E/DX2                !
 ! A54   A(6,7,18)              84.6075         estimate D2E/DX2                !
 ! A55   A(13,7,18)             81.031          estimate D2E/DX2                !
 ! A56   A(6,8,9)               92.9323         estimate D2E/DX2                !
 ! A57   A(6,8,13)             102.0364         estimate D2E/DX2                !
 ! A58   A(9,8,13)              95.617          estimate D2E/DX2                !
 ! A59   A(2,9,4)              101.6351         estimate D2E/DX2                !
 ! A60   A(2,9,8)               84.6131         estimate D2E/DX2                !
 ! A61   A(2,9,11)             110.0439         estimate D2E/DX2                !
 ! A62   A(2,9,26)              87.4816         estimate D2E/DX2                !
 ! A63   A(2,9,27)              97.1728         estimate D2E/DX2                !
 ! A64   A(4,9,8)               85.8546         estimate D2E/DX2                !
 ! A65   A(4,9,10)              82.4982         estimate D2E/DX2                !
 ! A66   A(4,9,11)              86.8774         estimate D2E/DX2                !
 ! A67   A(4,9,12)             101.5088         estimate D2E/DX2                !
 ! A68   A(4,9,26)             162.5938         estimate D2E/DX2                !
 ! A69   A(4,9,27)             140.2058         estimate D2E/DX2                !
 ! A70   A(8,9,10)              82.5636         estimate D2E/DX2                !
 ! A71   A(8,9,11)             164.7161         estimate D2E/DX2                !
 ! A72   A(8,9,12)             139.0525         estimate D2E/DX2                !
 ! A73   A(8,9,26)              80.2213         estimate D2E/DX2                !
 ! A74   A(8,9,27)             130.9105         estimate D2E/DX2                !
 ! A75   A(10,9,11)             83.1699         estimate D2E/DX2                !
 ! A76   A(10,9,12)            138.1007         estimate D2E/DX2                !
 ! A77   A(10,9,26)             85.3717         estimate D2E/DX2                !
 ! A78   A(10,9,27)             87.4648         estimate D2E/DX2                !
 ! A79   A(11,9,26)            104.0547         estimate D2E/DX2                !
 ! A80   A(12,9,26)             95.8588         estimate D2E/DX2                !
 ! A81   A(9,10,13)             97.1931         estimate D2E/DX2                !
 ! A82   A(9,10,24)             94.3503         estimate D2E/DX2                !
 ! A83   A(13,10,24)            80.1394         estimate D2E/DX2                !
 ! A84   A(2,12,5)             104.3105         estimate D2E/DX2                !
 ! A85   A(2,12,11)            112.2669         estimate D2E/DX2                !
 ! A86   A(2,12,14)             81.7321         estimate D2E/DX2                !
 ! A87   A(2,12,15)            104.7011         estimate D2E/DX2                !
 ! A88   A(2,12,27)             96.355          estimate D2E/DX2                !
 ! A89   A(5,12,9)              97.7967         estimate D2E/DX2                !
 ! A90   A(5,12,11)             79.7651         estimate D2E/DX2                !
 ! A91   A(5,12,14)             92.2416         estimate D2E/DX2                !
 ! A92   A(5,12,15)            149.0716         estimate D2E/DX2                !
 ! A93   A(5,12,27)            132.6329         estimate D2E/DX2                !
 ! A94   A(9,12,14)            137.5246         estimate D2E/DX2                !
 ! A95   A(9,12,15)            107.235          estimate D2E/DX2                !
 ! A96   A(11,12,15)            98.8448         estimate D2E/DX2                !
 ! A97   A(14,12,15)            81.5495         estimate D2E/DX2                !
 ! A98   A(14,12,27)           133.1265         estimate D2E/DX2                !
 ! A99   A(7,13,8)              79.6672         estimate D2E/DX2                !
 ! A100  A(7,13,10)             78.067          estimate D2E/DX2                !
 ! A101  A(7,13,16)             91.1798         estimate D2E/DX2                !
 ! A102  A(7,13,36)            135.0864         estimate D2E/DX2                !
 ! A103  A(7,13,37)             80.2533         estimate D2E/DX2                !
 ! A104  A(7,13,39)             89.0718         estimate D2E/DX2                !
 ! A105  A(8,13,10)             83.686          estimate D2E/DX2                !
 ! A106  A(8,13,16)             80.0116         estimate D2E/DX2                !
 ! A107  A(8,13,17)             90.2783         estimate D2E/DX2                !
 ! A108  A(8,13,36)            144.96           estimate D2E/DX2                !
 ! A109  A(8,13,37)            159.8052         estimate D2E/DX2                !
 ! A110  A(8,13,39)            127.7289         estimate D2E/DX2                !
 ! A111  A(10,13,16)           161.8678         estimate D2E/DX2                !
 ! A112  A(10,13,17)           101.0046         estimate D2E/DX2                !
 ! A113  A(10,13,36)            97.8214         estimate D2E/DX2                !
 ! A114  A(10,13,37)            90.0943         estimate D2E/DX2                !
 ! A115  A(10,13,39)           143.5504         estimate D2E/DX2                !
 ! A116  A(16,13,17)            87.0226         estimate D2E/DX2                !
 ! A117  A(16,13,36)           100.0768         estimate D2E/DX2                !
 ! A118  A(16,13,37)           102.5585         estimate D2E/DX2                !
 ! A119  A(17,13,37)           109.7944         estimate D2E/DX2                !
 ! A120  A(17,13,39)            97.1736         estimate D2E/DX2                !
 ! A121  A(36,13,39)            67.7894         estimate D2E/DX2                !
 ! A122  A(12,14,21)            78.9177         estimate D2E/DX2                !
 ! A123  A(12,14,51)           112.8283         estimate D2E/DX2                !
 ! A124  A(13,16,18)            80.5441         estimate D2E/DX2                !
 ! A125  A(13,17,24)            80.1265         estimate D2E/DX2                !
 ! A126  A(7,18,16)            105.023          estimate D2E/DX2                !
 ! A127  A(7,18,19)             98.6481         estimate D2E/DX2                !
 ! A128  A(7,18,20)            101.794          estimate D2E/DX2                !
 ! A129  A(7,18,39)            100.9272         estimate D2E/DX2                !
 ! A130  A(7,18,40)            102.0279         estimate D2E/DX2                !
 ! A131  A(7,18,42)             90.6948         estimate D2E/DX2                !
 ! A132  A(16,18,19)           155.7392         estimate D2E/DX2                !
 ! A133  A(16,18,20)            79.2995         estimate D2E/DX2                !
 ! A134  A(16,18,40)            99.6129         estimate D2E/DX2                !
 ! A135  A(16,18,42)           127.4683         estimate D2E/DX2                !
 ! A136  A(19,18,20)            90.8557         estimate D2E/DX2                !
 ! A137  A(19,18,39)           129.831          estimate D2E/DX2                !
 ! A138  A(19,18,40)            80.288          estimate D2E/DX2                !
 ! A139  A(20,18,39)           128.7274         estimate D2E/DX2                !
 ! A140  A(20,18,40)           155.5687         estimate D2E/DX2                !
 ! A141  A(40,18,42)           126.0558         estimate D2E/DX2                !
 ! A142  A(6,20,18)             82.3078         estimate D2E/DX2                !
 ! A143  A(5,21,14)            104.6132         estimate D2E/DX2                !
 ! A144  A(5,21,22)            115.5563         estimate D2E/DX2                !
 ! A145  A(5,21,23)            103.2208         estimate D2E/DX2                !
 ! A146  A(5,21,51)            116.3343         estimate D2E/DX2                !
 ! A147  A(14,21,22)           106.1414         estimate D2E/DX2                !
 ! A148  A(14,21,23)            86.9192         estimate D2E/DX2                !
 ! A149  A(22,21,23)           133.3937         estimate D2E/DX2                !
 ! A150  A(23,21,51)           128.8806         estimate D2E/DX2                !
 ! A151  A(1,23,21)             84.9222         estimate D2E/DX2                !
 ! A152  A(21,23,48)            83.413          estimate D2E/DX2                !
 ! A153  A(10,24,17)            96.5935         estimate D2E/DX2                !
 ! A154  A(10,24,25)            83.8309         estimate D2E/DX2                !
 ! A155  A(10,24,26)            84.9392         estimate D2E/DX2                !
 ! A156  A(10,24,28)            80.8476         estimate D2E/DX2                !
 ! A157  A(10,24,30)           126.3378         estimate D2E/DX2                !
 ! A158  A(10,24,33)           136.0807         estimate D2E/DX2                !
 ! A159  A(10,24,36)            87.5772         estimate D2E/DX2                !
 ! A160  A(17,24,25)            99.4142         estimate D2E/DX2                !
 ! A161  A(17,24,26)            79.3663         estimate D2E/DX2                !
 ! A162  A(17,24,30)           132.635          estimate D2E/DX2                !
 ! A163  A(17,24,32)            86.1859         estimate D2E/DX2                !
 ! A164  A(17,24,33)            89.8251         estimate D2E/DX2                !
 ! A165  A(25,24,28)            88.5751         estimate D2E/DX2                !
 ! A166  A(25,24,30)           103.7333         estimate D2E/DX2                !
 ! A167  A(25,24,32)           104.9746         estimate D2E/DX2                !
 ! A168  A(26,24,28)            92.1367         estimate D2E/DX2                !
 ! A169  A(26,24,30)            85.0124         estimate D2E/DX2                !
 ! A170  A(26,24,32)            86.4149         estimate D2E/DX2                !
 ! A171  A(26,24,33)           138.7771         estimate D2E/DX2                !
 ! A172  A(26,24,36)           126.3978         estimate D2E/DX2                !
 ! A173  A(28,24,32)            95.0251         estimate D2E/DX2                !
 ! A174  A(28,24,33)            97.7632         estimate D2E/DX2                !
 ! A175  A(28,24,36)           138.6281         estimate D2E/DX2                !
 ! A176  A(30,24,33)            73.4381         estimate D2E/DX2                !
 ! A177  A(30,24,36)           137.9809         estimate D2E/DX2                !
 ! A178  A(32,24,36)           101.1844         estimate D2E/DX2                !
 ! A179  A(33,24,36)            64.5673         estimate D2E/DX2                !
 ! A180  A(33,25,36)            82.2528         estimate D2E/DX2                !
 ! A181  A(9,26,24)             94.4172         estimate D2E/DX2                !
 ! A182  A(24,26,27)            85.0812         estimate D2E/DX2                !
 ! A183  A(9,27,15)            102.3456         estimate D2E/DX2                !
 ! A184  A(9,27,28)            103.1688         estimate D2E/DX2                !
 ! A185  A(9,27,29)            149.9695         estimate D2E/DX2                !
 ! A186  A(11,27,15)            97.8586         estimate D2E/DX2                !
 ! A187  A(11,27,26)           112.0252         estimate D2E/DX2                !
 ! A188  A(11,27,28)            84.7827         estimate D2E/DX2                !
 ! A189  A(11,27,29)           154.3661         estimate D2E/DX2                !
 ! A190  A(12,27,26)            95.9375         estimate D2E/DX2                !
 ! A191  A(12,27,28)           138.7346         estimate D2E/DX2                !
 ! A192  A(12,27,29)           128.2308         estimate D2E/DX2                !
 ! A193  A(15,27,26)           104.4701         estimate D2E/DX2                !
 ! A194  A(15,27,28)           150.5896         estimate D2E/DX2                !
 ! A195  A(15,27,29)            77.1071         estimate D2E/DX2                !
 ! A196  A(26,27,28)           101.5315         estimate D2E/DX2                !
 ! A197  A(26,27,29)            93.4961         estimate D2E/DX2                !
 ! A198  A(28,27,29)            87.8863         estimate D2E/DX2                !
 ! A199  A(24,28,27)            81.1838         estimate D2E/DX2                !
 ! A200  A(27,28,30)            81.4366         estimate D2E/DX2                !
 ! A201  A(27,29,30)            81.3403         estimate D2E/DX2                !
 ! A202  A(24,30,29)           107.7292         estimate D2E/DX2                !
 ! A203  A(24,30,31)           142.2003         estimate D2E/DX2                !
 ! A204  A(28,30,29)           104.0228         estimate D2E/DX2                !
 ! A205  A(28,30,31)           114.6271         estimate D2E/DX2                !
 ! A206  A(28,30,32)           107.6481         estimate D2E/DX2                !
 ! A207  A(29,30,31)           110.0701         estimate D2E/DX2                !
 ! A208  A(29,30,32)           102.3156         estimate D2E/DX2                !
 ! A209  A(31,30,32)           116.734          estimate D2E/DX2                !
 ! A210  A(30,32,33)            96.1792         estimate D2E/DX2                !
 ! A211  A(24,33,34)           132.158          estimate D2E/DX2                !
 ! A212  A(24,33,35)           110.3463         estimate D2E/DX2                !
 ! A213  A(25,33,32)           113.5167         estimate D2E/DX2                !
 ! A214  A(25,33,34)           106.4874         estimate D2E/DX2                !
 ! A215  A(25,33,35)           103.0525         estimate D2E/DX2                !
 ! A216  A(32,33,34)           111.6371         estimate D2E/DX2                !
 ! A217  A(32,33,35)           104.7981         estimate D2E/DX2                !
 ! A218  A(34,33,35)           117.2759         estimate D2E/DX2                !
 ! A219  A(33,35,36)            78.4413         estimate D2E/DX2                !
 ! A220  A(13,36,24)            66.4784         estimate D2E/DX2                !
 ! A221  A(13,36,25)            97.1128         estimate D2E/DX2                !
 ! A222  A(13,36,35)           146.0951         estimate D2E/DX2                !
 ! A223  A(13,36,38)           115.5814         estimate D2E/DX2                !
 ! A224  A(17,36,25)           105.7596         estimate D2E/DX2                !
 ! A225  A(17,36,35)            90.0509         estimate D2E/DX2                !
 ! A226  A(17,36,37)           114.7562         estimate D2E/DX2                !
 ! A227  A(17,36,38)           115.8187         estimate D2E/DX2                !
 ! A228  A(24,36,35)            90.2575         estimate D2E/DX2                !
 ! A229  A(24,36,37)           101.8594         estimate D2E/DX2                !
 ! A230  A(25,36,35)            86.3613         estimate D2E/DX2                !
 ! A231  A(25,36,37)            83.9364         estimate D2E/DX2                !
 ! A232  A(25,36,38)           136.5714         estimate D2E/DX2                !
 ! A233  A(35,36,37)           154.9959         estimate D2E/DX2                !
 ! A234  A(35,36,38)            81.7749         estimate D2E/DX2                !
 ! A235  A(37,36,38)            89.572          estimate D2E/DX2                !
 ! A236  A(36,37,39)            80.6503         estimate D2E/DX2                !
 ! A237  A(36,38,39)            81.0124         estimate D2E/DX2                !
 ! A238  A(13,39,18)            64.4184         estimate D2E/DX2                !
 ! A239  A(13,39,38)            93.7246         estimate D2E/DX2                !
 ! A240  A(13,39,40)           103.301          estimate D2E/DX2                !
 ! A241  A(13,39,41)           149.1267         estimate D2E/DX2                !
 ! A242  A(16,39,37)           105.253          estimate D2E/DX2                !
 ! A243  A(16,39,38)           114.8289         estimate D2E/DX2                !
 ! A244  A(16,39,40)           103.1416         estimate D2E/DX2                !
 ! A245  A(16,39,41)           102.1197         estimate D2E/DX2                !
 ! A246  A(18,39,37)            88.1094         estimate D2E/DX2                !
 ! A247  A(18,39,38)           158.1383         estimate D2E/DX2                !
 ! A248  A(18,39,41)           119.3886         estimate D2E/DX2                !
 ! A249  A(37,39,38)            77.169          estimate D2E/DX2                !
 ! A250  A(37,39,40)            86.1415         estimate D2E/DX2                !
 ! A251  A(37,39,41)           149.5128         estimate D2E/DX2                !
 ! A252  A(38,39,40)           141.2784         estimate D2E/DX2                !
 ! A253  A(38,39,41)            79.3647         estimate D2E/DX2                !
 ! A254  A(40,39,41)           100.536          estimate D2E/DX2                !
 ! A255  A(6,42,18)             66.6353         estimate D2E/DX2                !
 ! A256  A(6,42,19)            111.7743         estimate D2E/DX2                !
 ! A257  A(6,42,43)            135.7818         estimate D2E/DX2                !
 ! A258  A(18,42,43)           143.8876         estimate D2E/DX2                !
 ! A259  A(18,42,44)           101.5773         estimate D2E/DX2                !
 ! A260  A(19,42,20)           103.7007         estimate D2E/DX2                !
 ! A261  A(19,42,43)           112.3364         estimate D2E/DX2                !
 ! A262  A(19,42,44)           103.6577         estimate D2E/DX2                !
 ! A263  A(20,42,43)           110.6213         estimate D2E/DX2                !
 ! A264  A(20,42,44)           111.3196         estimate D2E/DX2                !
 ! A265  A(43,42,44)           114.5012         estimate D2E/DX2                !
 ! A266  A(42,44,45)            96.967          estimate D2E/DX2                !
 ! A267  A(1,45,6)              69.2514         estimate D2E/DX2                !
 ! A268  A(1,45,44)            107.8708         estimate D2E/DX2                !
 ! A269  A(1,45,47)            140.0558         estimate D2E/DX2                !
 ! A270  A(3,45,44)            114.7951         estimate D2E/DX2                !
 ! A271  A(3,45,46)            112.4534         estimate D2E/DX2                !
 ! A272  A(3,45,47)            105.6449         estimate D2E/DX2                !
 ! A273  A(6,45,46)            104.3698         estimate D2E/DX2                !
 ! A274  A(6,45,47)            133.5692         estimate D2E/DX2                !
 ! A275  A(44,45,46)            89.9848         estimate D2E/DX2                !
 ! A276  A(44,45,47)           112.0733         estimate D2E/DX2                !
 ! A277  A(46,45,47)           121.7615         estimate D2E/DX2                !
 ! A278  A(45,46,48)            93.899          estimate D2E/DX2                !
 ! A279  A(1,48,49)            110.3444         estimate D2E/DX2                !
 ! A280  A(1,48,50)            137.5744         estimate D2E/DX2                !
 ! A281  A(23,48,46)           110.5784         estimate D2E/DX2                !
 ! A282  A(23,48,49)           105.9671         estimate D2E/DX2                !
 ! A283  A(23,48,50)           112.3872         estimate D2E/DX2                !
 ! A284  A(46,48,49)           101.4324         estimate D2E/DX2                !
 ! A285  A(46,48,50)           113.6663         estimate D2E/DX2                !
 ! A286  A(49,48,50)           112.0357         estimate D2E/DX2                !
 ! A287  A(14,51,22)           102.4601         estimate D2E/DX2                !
 ! A288  A(14,51,52)           100.9893         estimate D2E/DX2                !
 ! A289  A(21,51,52)           101.8437         estimate D2E/DX2                !
 ! A290  A(22,51,52)           103.4144         estimate D2E/DX2                !
 ! A291  L(2,1,46,3,-1)        184.2072         estimate D2E/DX2                !
 ! A292  L(3,1,5,2,-1)         170.526          estimate D2E/DX2                !
 ! A293  L(4,1,23,2,-1)        178.2729         estimate D2E/DX2                !
 ! A294  L(3,6,7,4,-1)         174.5577         estimate D2E/DX2                !
 ! A295  L(8,6,44,3,-1)        192.4976         estimate D2E/DX2                !
 ! A296  L(2,9,10,4,-1)        184.1333         estimate D2E/DX2                !
 ! A297  L(11,12,14,2,-1)      193.999          estimate D2E/DX2                !
 ! A298  L(7,13,17,8,-1)       169.9454         estimate D2E/DX2                !
 ! A299  L(39,18,42,7,-1)      191.622          estimate D2E/DX2                !
 ! A300  L(10,24,32,17,-1)     182.7794         estimate D2E/DX2                !
 ! A301  L(17,24,28,10,-1)     177.4411         estimate D2E/DX2                !
 ! A302  L(25,24,26,10,-1)     168.7701         estimate D2E/DX2                !
 ! A303  L(24,36,38,13,-1)     182.0599         estimate D2E/DX2                !
 ! A304  L(51,52,53,2,-1)      178.3477         estimate D2E/DX2                !
 ! A305  L(2,1,46,3,-2)        180.4332         estimate D2E/DX2                !
 ! A306  L(3,1,5,2,-2)         176.8309         estimate D2E/DX2                !
 ! A307  L(4,1,23,2,-2)        187.4304         estimate D2E/DX2                !
 ! A308  L(3,6,7,4,-2)         194.2557         estimate D2E/DX2                !
 ! A309  L(8,6,44,3,-2)        186.3605         estimate D2E/DX2                !
 ! A310  L(2,9,10,4,-2)        166.656          estimate D2E/DX2                !
 ! A311  L(11,12,14,2,-2)      174.8366         estimate D2E/DX2                !
 ! A312  L(7,13,17,8,-2)       180.0136         estimate D2E/DX2                !
 ! A313  L(39,18,42,7,-2)      181.078          estimate D2E/DX2                !
 ! A314  L(10,24,32,17,-2)     170.6287         estimate D2E/DX2                !
 ! A315  L(17,24,28,10,-2)     188.3542         estimate D2E/DX2                !
 ! A316  L(25,24,26,10,-2)     182.5373         estimate D2E/DX2                !
 ! A317  L(24,36,38,13,-2)     165.6321         estimate D2E/DX2                !
 ! A318  L(51,52,53,2,-2)      183.5674         estimate D2E/DX2                !
 ! D1    D(3,1,2,9)           -105.2421         estimate D2E/DX2                !
 ! D2    D(3,1,2,12)          -175.5278         estimate D2E/DX2                !
 ! D3    D(4,1,2,9)             -7.3543         estimate D2E/DX2                !
 ! D4    D(4,1,2,12)           -77.6401         estimate D2E/DX2                !
 ! D5    D(5,1,2,9)             77.9271         estimate D2E/DX2                !
 ! D6    D(5,1,2,12)             7.6413         estimate D2E/DX2                !
 ! D7    D(23,1,2,9)           165.2153         estimate D2E/DX2                !
 ! D8    D(23,1,2,12)           94.9296         estimate D2E/DX2                !
 ! D9    D(45,1,2,9)          -100.3181         estimate D2E/DX2                !
 ! D10   D(45,1,2,12)         -170.6038         estimate D2E/DX2                !
 ! D11   D(48,1,2,9)           156.7517         estimate D2E/DX2                !
 ! D12   D(48,1,2,12)           86.466          estimate D2E/DX2                !
 ! D13   D(2,1,3,6)            103.6821         estimate D2E/DX2                !
 ! D14   D(4,1,3,6)              8.5862         estimate D2E/DX2                !
 ! D15   D(23,1,3,6)          -174.3415         estimate D2E/DX2                !
 ! D16   D(46,1,3,6)           -76.751          estimate D2E/DX2                !
 ! D17   D(48,1,3,6)          -127.5858         estimate D2E/DX2                !
 ! D18   D(2,1,4,6)            -89.1388         estimate D2E/DX2                !
 ! D19   D(2,1,4,9)              7.091          estimate D2E/DX2                !
 ! D20   D(3,1,4,6)             -8.2938         estimate D2E/DX2                !
 ! D21   D(3,1,4,9)             87.936          estimate D2E/DX2                !
 ! D22   D(5,1,4,6)           -179.1263         estimate D2E/DX2                !
 ! D23   D(5,1,4,9)            -82.8965         estimate D2E/DX2                !
 ! D24   D(45,1,4,6)            42.6191         estimate D2E/DX2                !
 ! D25   D(45,1,4,9)           138.8489         estimate D2E/DX2                !
 ! D26   D(46,1,4,6)            95.1151         estimate D2E/DX2                !
 ! D27   D(46,1,4,9)          -168.655          estimate D2E/DX2                !
 ! D28   D(48,1,4,6)           107.1938         estimate D2E/DX2                !
 ! D29   D(48,1,4,9)          -156.5764         estimate D2E/DX2                !
 ! D30   D(2,1,5,12)            -7.3525         estimate D2E/DX2                !
 ! D31   D(2,1,5,21)            77.3622         estimate D2E/DX2                !
 ! D32   D(4,1,5,12)            89.1237         estimate D2E/DX2                !
 ! D33   D(4,1,5,21)           173.8384         estimate D2E/DX2                !
 ! D34   D(23,1,5,12)          -89.095          estimate D2E/DX2                !
 ! D35   D(23,1,5,21)           -4.3803         estimate D2E/DX2                !
 ! D36   D(45,1,5,12)          170.7            estimate D2E/DX2                !
 ! D37   D(45,1,5,21)         -104.5853         estimate D2E/DX2                !
 ! D38   D(46,1,5,12)          172.835          estimate D2E/DX2                !
 ! D39   D(46,1,5,21)         -102.4502         estimate D2E/DX2                !
 ! D40   D(48,1,5,12)         -137.5595         estimate D2E/DX2                !
 ! D41   D(48,1,5,21)          -52.8448         estimate D2E/DX2                !
 ! D42   D(2,1,23,21)          -86.8172         estimate D2E/DX2                !
 ! D43   D(3,1,23,21)         -166.983          estimate D2E/DX2                !
 ! D44   D(5,1,23,21)            4.0903         estimate D2E/DX2                !
 ! D45   D(45,1,23,21)         142.0355         estimate D2E/DX2                !
 ! D46   D(46,1,23,21)          88.9325         estimate D2E/DX2                !
 ! D47   D(2,1,45,6)            56.0381         estimate D2E/DX2                !
 ! D48   D(2,1,45,44)          102.0783         estimate D2E/DX2                !
 ! D49   D(2,1,45,47)          -78.0348         estimate D2E/DX2                !
 ! D50   D(4,1,45,6)           -40.7808         estimate D2E/DX2                !
 ! D51   D(4,1,45,44)            5.2593         estimate D2E/DX2                !
 ! D52   D(4,1,45,47)         -174.8538         estimate D2E/DX2                !
 ! D53   D(5,1,45,6)          -121.3526         estimate D2E/DX2                !
 ! D54   D(5,1,45,44)          -75.3124         estimate D2E/DX2                !
 ! D55   D(5,1,45,47)          104.5745         estimate D2E/DX2                !
 ! D56   D(23,1,45,6)          142.8193         estimate D2E/DX2                !
 ! D57   D(23,1,45,44)        -171.1406         estimate D2E/DX2                !
 ! D58   D(23,1,45,47)           8.7463         estimate D2E/DX2                !
 ! D59   D(48,1,45,6)         -175.6793         estimate D2E/DX2                !
 ! D60   D(48,1,45,44)        -129.6391         estimate D2E/DX2                !
 ! D61   D(48,1,45,47)          50.2478         estimate D2E/DX2                !
 ! D62   D(2,1,48,49)          -84.7744         estimate D2E/DX2                !
 ! D63   D(2,1,48,50)           97.9919         estimate D2E/DX2                !
 ! D64   D(3,1,48,49)         -172.0822         estimate D2E/DX2                !
 ! D65   D(3,1,48,50)           10.6841         estimate D2E/DX2                !
 ! D66   D(4,1,48,49)           73.9227         estimate D2E/DX2                !
 ! D67   D(4,1,48,50)         -103.311          estimate D2E/DX2                !
 ! D68   D(5,1,48,49)           -1.5661         estimate D2E/DX2                !
 ! D69   D(5,1,48,50)         -178.7999         estimate D2E/DX2                !
 ! D70   D(45,1,48,49)         144.855          estimate D2E/DX2                !
 ! D71   D(45,1,48,50)         -32.3788         estimate D2E/DX2                !
 ! D72   D(1,2,9,4)              7.4161         estimate D2E/DX2                !
 ! D73   D(1,2,9,8)             92.0483         estimate D2E/DX2                !
 ! D74   D(1,2,9,11)           -83.4962         estimate D2E/DX2                !
 ! D75   D(1,2,9,26)           172.4573         estimate D2E/DX2                !
 ! D76   D(1,2,9,27)          -137.3267         estimate D2E/DX2                !
 ! D77   D(1,2,12,5)            -8.8344         estimate D2E/DX2                !
 ! D78   D(1,2,12,11)           75.789          estimate D2E/DX2                !
 ! D79   D(1,2,12,14)          -99.0477         estimate D2E/DX2                !
 ! D80   D(1,2,12,15)         -177.9986         estimate D2E/DX2                !
 ! D81   D(1,2,12,27)          128.1963         estimate D2E/DX2                !
 ! D82   D(1,3,6,4)             -8.3905         estimate D2E/DX2                !
 ! D83   D(1,3,6,8)            -91.5714         estimate D2E/DX2                !
 ! D84   D(1,3,6,20)          -175.2969         estimate D2E/DX2                !
 ! D85   D(1,3,6,42)           136.014          estimate D2E/DX2                !
 ! D86   D(1,3,6,44)            82.0681         estimate D2E/DX2                !
 ! D87   D(1,4,6,3)              8.4879         estimate D2E/DX2                !
 ! D88   D(1,4,6,7)            174.2323         estimate D2E/DX2                !
 ! D89   D(1,4,6,8)             92.466          estimate D2E/DX2                !
 ! D90   D(1,4,6,20)           136.1903         estimate D2E/DX2                !
 ! D91   D(1,4,6,42)          -118.2101         estimate D2E/DX2                !
 ! D92   D(1,4,6,44)           -98.8835         estimate D2E/DX2                !
 ! D93   D(1,4,6,45)           -44.9861         estimate D2E/DX2                !
 ! D94   D(9,4,6,3)            -71.6235         estimate D2E/DX2                !
 ! D95   D(9,4,6,7)             94.1208         estimate D2E/DX2                !
 ! D96   D(9,4,6,8)             12.3545         estimate D2E/DX2                !
 ! D97   D(9,4,6,20)            56.0788         estimate D2E/DX2                !
 ! D98   D(9,4,6,42)           161.6784         estimate D2E/DX2                !
 ! D99   D(9,4,6,44)          -178.995          estimate D2E/DX2                !
 ! D100  D(9,4,6,45)          -125.0975         estimate D2E/DX2                !
 ! D101  D(1,4,9,2)             -7.8091         estimate D2E/DX2                !
 ! D102  D(1,4,9,8)            -91.4346         estimate D2E/DX2                !
 ! D103  D(1,4,9,10)          -174.4651         estimate D2E/DX2                !
 ! D104  D(1,4,9,11)           102.0201         estimate D2E/DX2                !
 ! D105  D(1,4,9,12)            47.86           estimate D2E/DX2                !
 ! D106  D(1,4,9,26)          -128.2625         estimate D2E/DX2                !
 ! D107  D(1,4,9,27)           108.702          estimate D2E/DX2                !
 ! D108  D(6,4,9,2)             71.0859         estimate D2E/DX2                !
 ! D109  D(6,4,9,8)            -12.5396         estimate D2E/DX2                !
 ! D110  D(6,4,9,10)           -95.5701         estimate D2E/DX2                !
 ! D111  D(6,4,9,11)          -179.0849         estimate D2E/DX2                !
 ! D112  D(6,4,9,12)           126.7549         estimate D2E/DX2                !
 ! D113  D(6,4,9,26)           -49.3675         estimate D2E/DX2                !
 ! D114  D(6,4,9,27)          -172.4031         estimate D2E/DX2                !
 ! D115  D(1,5,12,2)             8.3759         estimate D2E/DX2                !
 ! D116  D(1,5,12,9)           -48.2104         estimate D2E/DX2                !
 ! D117  D(1,5,12,11)         -102.1922         estimate D2E/DX2                !
 ! D118  D(1,5,12,14)           90.4128         estimate D2E/DX2                !
 ! D119  D(1,5,12,15)          167.656          estimate D2E/DX2                !
 ! D120  D(1,5,12,27)         -104.5853         estimate D2E/DX2                !
 ! D121  D(21,5,12,2)          -76.8198         estimate D2E/DX2                !
 ! D122  D(21,5,12,9)         -133.4061         estimate D2E/DX2                !
 ! D123  D(21,5,12,11)         172.6121         estimate D2E/DX2                !
 ! D124  D(21,5,12,14)           5.2171         estimate D2E/DX2                !
 ! D125  D(21,5,12,15)          82.4603         estimate D2E/DX2                !
 ! D126  D(21,5,12,27)         170.2189         estimate D2E/DX2                !
 ! D127  D(1,5,21,14)          -85.4649         estimate D2E/DX2                !
 ! D128  D(1,5,21,22)          158.231          estimate D2E/DX2                !
 ! D129  D(1,5,21,23)            4.7757         estimate D2E/DX2                !
 ! D130  D(1,5,21,51)         -141.917          estimate D2E/DX2                !
 ! D131  D(12,5,21,14)          -5.9932         estimate D2E/DX2                !
 ! D132  D(12,5,21,22)        -122.2974         estimate D2E/DX2                !
 ! D133  D(12,5,21,23)          84.2474         estimate D2E/DX2                !
 ! D134  D(12,5,21,51)         -62.4453         estimate D2E/DX2                !
 ! D135  D(4,6,7,13)           -93.5883         estimate D2E/DX2                !
 ! D136  D(4,6,7,18)          -173.8689         estimate D2E/DX2                !
 ! D137  D(8,6,7,13)            -7.3773         estimate D2E/DX2                !
 ! D138  D(8,6,7,18)           -87.6578         estimate D2E/DX2                !
 ! D139  D(20,6,7,13)           76.2506         estimate D2E/DX2                !
 ! D140  D(20,6,7,18)           -4.0299         estimate D2E/DX2                !
 ! D141  D(42,6,7,13)          126.38           estimate D2E/DX2                !
 ! D142  D(42,6,7,18)           46.0995         estimate D2E/DX2                !
 ! D143  D(44,6,7,13)          177.7912         estimate D2E/DX2                !
 ! D144  D(44,6,7,18)           97.5107         estimate D2E/DX2                !
 ! D145  D(45,6,7,13)         -166.1161         estimate D2E/DX2                !
 ! D146  D(45,6,7,18)          113.6034         estimate D2E/DX2                !
 ! D147  D(3,6,8,9)             87.2595         estimate D2E/DX2                !
 ! D148  D(3,6,8,13)          -176.36           estimate D2E/DX2                !
 ! D149  D(4,6,8,9)            -12.1793         estimate D2E/DX2                !
 ! D150  D(4,6,8,13)            84.2013         estimate D2E/DX2                !
 ! D151  D(7,6,8,9)            -88.6493         estimate D2E/DX2                !
 ! D152  D(7,6,8,13)             7.7313         estimate D2E/DX2                !
 ! D153  D(20,6,8,9)           179.2977         estimate D2E/DX2                !
 ! D154  D(20,6,8,13)          -84.3217         estimate D2E/DX2                !
 ! D155  D(42,6,8,9)          -163.8446         estimate D2E/DX2                !
 ! D156  D(42,6,8,13)          -67.464          estimate D2E/DX2                !
 ! D157  D(45,6,8,9)            70.697          estimate D2E/DX2                !
 ! D158  D(45,6,8,13)          167.0775         estimate D2E/DX2                !
 ! D159  D(3,6,20,18)          168.7674         estimate D2E/DX2                !
 ! D160  D(4,6,20,18)           40.2196         estimate D2E/DX2                !
 ! D161  D(7,6,20,18)            3.5416         estimate D2E/DX2                !
 ! D162  D(8,6,20,18)           83.9618         estimate D2E/DX2                !
 ! D163  D(44,6,20,18)         -83.0286         estimate D2E/DX2                !
 ! D164  D(45,6,20,18)        -138.5496         estimate D2E/DX2                !
 ! D165  D(3,6,42,18)          137.9433         estimate D2E/DX2                !
 ! D166  D(3,6,42,19)          168.8729         estimate D2E/DX2                !
 ! D167  D(3,6,42,43)           -6.9337         estimate D2E/DX2                !
 ! D168  D(4,6,42,18)          -98.1698         estimate D2E/DX2                !
 ! D169  D(4,6,42,19)          -67.2403         estimate D2E/DX2                !
 ! D170  D(4,6,42,43)          116.9532         estimate D2E/DX2                !
 ! D171  D(7,6,42,18)          -34.2049         estimate D2E/DX2                !
 ! D172  D(7,6,42,19)           -3.2754         estimate D2E/DX2                !
 ! D173  D(7,6,42,43)         -179.0819         estimate D2E/DX2                !
 ! D174  D(8,6,42,18)           38.8811         estimate D2E/DX2                !
 ! D175  D(8,6,42,19)           69.8107         estimate D2E/DX2                !
 ! D176  D(8,6,42,43)         -105.9958         estimate D2E/DX2                !
 ! D177  D(45,6,42,18)        -175.5773         estimate D2E/DX2                !
 ! D178  D(45,6,42,19)        -144.6477         estimate D2E/DX2                !
 ! D179  D(45,6,42,43)          39.5457         estimate D2E/DX2                !
 ! D180  D(4,6,45,1)            39.6446         estimate D2E/DX2                !
 ! D181  D(4,6,45,46)           -6.3432         estimate D2E/DX2                !
 ! D182  D(4,6,45,47)         -179.8976         estimate D2E/DX2                !
 ! D183  D(7,6,45,1)           107.232          estimate D2E/DX2                !
 ! D184  D(7,6,45,46)           61.2443         estimate D2E/DX2                !
 ! D185  D(7,6,45,47)         -112.3102         estimate D2E/DX2                !
 ! D186  D(8,6,45,1)           -41.1018         estimate D2E/DX2                !
 ! D187  D(8,6,45,46)          -87.0896         estimate D2E/DX2                !
 ! D188  D(8,6,45,47)           99.356          estimate D2E/DX2                !
 ! D189  D(20,6,45,1)         -140.7077         estimate D2E/DX2                !
 ! D190  D(20,6,45,46)         173.3045         estimate D2E/DX2                !
 ! D191  D(20,6,45,47)          -0.2499         estimate D2E/DX2                !
 ! D192  D(42,6,45,1)          177.0965         estimate D2E/DX2                !
 ! D193  D(42,6,45,46)         131.1087         estimate D2E/DX2                !
 ! D194  D(42,6,45,47)         -42.4457         estimate D2E/DX2                !
 ! D195  D(6,7,13,8)             7.2656         estimate D2E/DX2                !
 ! D196  D(6,7,13,10)           92.9225         estimate D2E/DX2                !
 ! D197  D(6,7,13,16)          -72.3588         estimate D2E/DX2                !
 ! D198  D(6,7,13,36)         -177.9353         estimate D2E/DX2                !
 ! D199  D(6,7,13,37)         -174.8993         estimate D2E/DX2                !
 ! D200  D(6,7,13,39)         -121.4203         estimate D2E/DX2                !
 ! D201  D(18,7,13,8)           90.6945         estimate D2E/DX2                !
 ! D202  D(18,7,13,10)         176.3515         estimate D2E/DX2                !
 ! D203  D(18,7,13,16)          11.0702         estimate D2E/DX2                !
 ! D204  D(18,7,13,36)         -94.5063         estimate D2E/DX2                !
 ! D205  D(18,7,13,37)         -91.4703         estimate D2E/DX2                !
 ! D206  D(18,7,13,39)         -37.9913         estimate D2E/DX2                !
 ! D207  D(6,7,18,16)           85.9878         estimate D2E/DX2                !
 ! D208  D(6,7,18,19)          -88.6487         estimate D2E/DX2                !
 ! D209  D(6,7,18,20)            4.0561         estimate D2E/DX2                !
 ! D210  D(6,7,18,39)          137.7829         estimate D2E/DX2                !
 ! D211  D(6,7,18,40)         -170.4817         estimate D2E/DX2                !
 ! D212  D(6,7,18,42)          -43.2951         estimate D2E/DX2                !
 ! D213  D(13,7,18,16)         -11.7197         estimate D2E/DX2                !
 ! D214  D(13,7,18,19)         173.6438         estimate D2E/DX2                !
 ! D215  D(13,7,18,20)         -93.6514         estimate D2E/DX2                !
 ! D216  D(13,7,18,39)          40.0754         estimate D2E/DX2                !
 ! D217  D(13,7,18,40)          91.8109         estimate D2E/DX2                !
 ! D218  D(13,7,18,42)        -141.0026         estimate D2E/DX2                !
 ! D219  D(6,8,9,2)            -89.7645         estimate D2E/DX2                !
 ! D220  D(6,8,9,4)             12.3542         estimate D2E/DX2                !
 ! D221  D(6,8,9,10)            95.3149         estimate D2E/DX2                !
 ! D222  D(6,8,9,11)            74.1629         estimate D2E/DX2                !
 ! D223  D(6,8,9,12)           -90.455          estimate D2E/DX2                !
 ! D224  D(6,8,9,26)          -178.1294         estimate D2E/DX2                !
 ! D225  D(6,8,9,27)           175.4032         estimate D2E/DX2                !
 ! D226  D(13,8,9,2)           167.8287         estimate D2E/DX2                !
 ! D227  D(13,8,9,4)           -90.0526         estimate D2E/DX2                !
 ! D228  D(13,8,9,10)           -7.0919         estimate D2E/DX2                !
 ! D229  D(13,8,9,11)          -28.2439         estimate D2E/DX2                !
 ! D230  D(13,8,9,12)          167.1382         estimate D2E/DX2                !
 ! D231  D(13,8,9,26)           79.4638         estimate D2E/DX2                !
 ! D232  D(13,8,9,27)           72.9964         estimate D2E/DX2                !
 ! D233  D(6,8,13,7)            -7.7385         estimate D2E/DX2                !
 ! D234  D(6,8,13,10)          -86.7108         estimate D2E/DX2                !
 ! D235  D(6,8,13,16)           85.3203         estimate D2E/DX2                !
 ! D236  D(6,8,13,17)          172.2479         estimate D2E/DX2                !
 ! D237  D(6,8,13,36)          178.6616         estimate D2E/DX2                !
 ! D238  D(6,8,13,37)          -13.9297         estimate D2E/DX2                !
 ! D239  D(6,8,13,39)           72.9454         estimate D2E/DX2                !
 ! D240  D(9,8,13,7)            86.4782         estimate D2E/DX2                !
 ! D241  D(9,8,13,10)            7.5059         estimate D2E/DX2                !
 ! D242  D(9,8,13,16)          179.537          estimate D2E/DX2                !
 ! D243  D(9,8,13,17)          -93.5354         estimate D2E/DX2                !
 ! D244  D(9,8,13,36)          -87.1217         estimate D2E/DX2                !
 ! D245  D(9,8,13,37)           80.287          estimate D2E/DX2                !
 ! D246  D(9,8,13,39)          167.1621         estimate D2E/DX2                !
 ! D247  D(4,9,10,13)           94.3254         estimate D2E/DX2                !
 ! D248  D(4,9,10,24)          174.9148         estimate D2E/DX2                !
 ! D249  D(8,9,10,13)            7.5553         estimate D2E/DX2                !
 ! D250  D(8,9,10,24)           88.1447         estimate D2E/DX2                !
 ! D251  D(11,9,10,13)        -177.942          estimate D2E/DX2                !
 ! D252  D(11,9,10,24)         -97.3526         estimate D2E/DX2                !
 ! D253  D(12,9,10,13)        -166.7828         estimate D2E/DX2                !
 ! D254  D(12,9,10,24)         -86.1933         estimate D2E/DX2                !
 ! D255  D(26,9,10,13)         -73.1637         estimate D2E/DX2                !
 ! D256  D(26,9,10,24)           7.4258         estimate D2E/DX2                !
 ! D257  D(27,9,10,13)        -124.2699         estimate D2E/DX2                !
 ! D258  D(27,9,10,24)         -43.6805         estimate D2E/DX2                !
 ! D259  D(4,9,12,5)             5.8715         estimate D2E/DX2                !
 ! D260  D(4,9,12,14)          -96.1347         estimate D2E/DX2                !
 ! D261  D(4,9,12,15)          167.4933         estimate D2E/DX2                !
 ! D262  D(8,9,12,5)           102.8847         estimate D2E/DX2                !
 ! D263  D(8,9,12,14)            0.8785         estimate D2E/DX2                !
 ! D264  D(8,9,12,15)          -95.4935         estimate D2E/DX2                !
 ! D265  D(10,9,12,5)          -85.7001         estimate D2E/DX2                !
 ! D266  D(10,9,12,14)         172.2937         estimate D2E/DX2                !
 ! D267  D(10,9,12,15)          75.9216         estimate D2E/DX2                !
 ! D268  D(26,9,12,5)         -175.2937         estimate D2E/DX2                !
 ! D269  D(26,9,12,14)          82.7001         estimate D2E/DX2                !
 ! D270  D(26,9,12,15)         -13.672          estimate D2E/DX2                !
 ! D271  D(2,9,26,24)         -175.3381         estimate D2E/DX2                !
 ! D272  D(4,9,26,24)          -53.0255         estimate D2E/DX2                !
 ! D273  D(8,9,26,24)          -90.3738         estimate D2E/DX2                !
 ! D274  D(10,9,26,24)          -7.1396         estimate D2E/DX2                !
 ! D275  D(11,9,26,24)          74.6236         estimate D2E/DX2                !
 ! D276  D(12,9,26,24)         130.7939         estimate D2E/DX2                !
 ! D277  D(2,9,27,15)           18.5257         estimate D2E/DX2                !
 ! D278  D(2,9,27,28)         -176.2258         estimate D2E/DX2                !
 ! D279  D(2,9,27,29)          -67.0136         estimate D2E/DX2                !
 ! D280  D(4,9,27,15)          -99.4222         estimate D2E/DX2                !
 ! D281  D(4,9,27,28)           65.8263         estimate D2E/DX2                !
 ! D282  D(4,9,27,29)          175.0385         estimate D2E/DX2                !
 ! D283  D(8,9,27,15)          107.6002         estimate D2E/DX2                !
 ! D284  D(8,9,27,28)          -87.1514         estimate D2E/DX2                !
 ! D285  D(8,9,27,29)           22.0608         estimate D2E/DX2                !
 ! D286  D(10,9,27,15)        -174.5101         estimate D2E/DX2                !
 ! D287  D(10,9,27,28)          -9.2616         estimate D2E/DX2                !
 ! D288  D(10,9,27,29)          99.9506         estimate D2E/DX2                !
 ! D289  D(9,10,13,7)          -88.0054         estimate D2E/DX2                !
 ! D290  D(9,10,13,8)           -7.274          estimate D2E/DX2                !
 ! D291  D(9,10,13,16)         -33.2961         estimate D2E/DX2                !
 ! D292  D(9,10,13,17)          81.7784         estimate D2E/DX2                !
 ! D293  D(9,10,13,36)         137.4406         estimate D2E/DX2                !
 ! D294  D(9,10,13,37)        -168.0209         estimate D2E/DX2                !
 ! D295  D(9,10,13,39)        -159.7052         estimate D2E/DX2                !
 ! D296  D(24,10,13,7)         178.8036         estimate D2E/DX2                !
 ! D297  D(24,10,13,8)        -100.465          estimate D2E/DX2                !
 ! D298  D(24,10,13,16)       -126.4872         estimate D2E/DX2                !
 ! D299  D(24,10,13,17)        -11.4126         estimate D2E/DX2                !
 ! D300  D(24,10,13,36)         44.2496         estimate D2E/DX2                !
 ! D301  D(24,10,13,37)         98.788          estimate D2E/DX2                !
 ! D302  D(24,10,13,39)        107.1037         estimate D2E/DX2                !
 ! D303  D(9,10,24,17)         -85.7637         estimate D2E/DX2                !
 ! D304  D(9,10,24,25)         175.4283         estimate D2E/DX2                !
 ! D305  D(9,10,24,26)          -7.109          estimate D2E/DX2                !
 ! D306  D(9,10,24,28)          85.8821         estimate D2E/DX2                !
 ! D307  D(9,10,24,30)          72.9            estimate D2E/DX2                !
 ! D308  D(9,10,24,33)         177.5979         estimate D2E/DX2                !
 ! D309  D(9,10,24,36)        -133.9782         estimate D2E/DX2                !
 ! D310  D(13,10,24,17)         10.7959         estimate D2E/DX2                !
 ! D311  D(13,10,24,25)        -88.0122         estimate D2E/DX2                !
 ! D312  D(13,10,24,26)         89.4505         estimate D2E/DX2                !
 ! D313  D(13,10,24,28)       -177.5584         estimate D2E/DX2                !
 ! D314  D(13,10,24,30)        169.4596         estimate D2E/DX2                !
 ! D315  D(13,10,24,33)        -85.8426         estimate D2E/DX2                !
 ! D316  D(13,10,24,36)        -37.4187         estimate D2E/DX2                !
 ! D317  D(9,11,12,27)         -75.7301         estimate D2E/DX2                !
 ! D318  D(2,12,14,21)          99.0291         estimate D2E/DX2                !
 ! D319  D(2,12,14,51)         166.2143         estimate D2E/DX2                !
 ! D320  D(5,12,14,21)          -5.11           estimate D2E/DX2                !
 ! D321  D(5,12,14,51)          62.0753         estimate D2E/DX2                !
 ! D322  D(9,12,14,21)          99.0011         estimate D2E/DX2                !
 ! D323  D(9,12,14,51)         166.1863         estimate D2E/DX2                !
 ! D324  D(15,12,14,21)       -154.6603         estimate D2E/DX2                !
 ! D325  D(15,12,14,51)        -87.475          estimate D2E/DX2                !
 ! D326  D(27,12,14,21)       -169.9885         estimate D2E/DX2                !
 ! D327  D(27,12,14,51)       -102.8032         estimate D2E/DX2                !
 ! D328  D(2,12,27,26)          -0.1981         estimate D2E/DX2                !
 ! D329  D(2,12,27,28)        -115.2386         estimate D2E/DX2                !
 ! D330  D(2,12,27,29)          99.0077         estimate D2E/DX2                !
 ! D331  D(5,12,27,26)         115.9427         estimate D2E/DX2                !
 ! D332  D(5,12,27,28)           0.9022         estimate D2E/DX2                !
 ! D333  D(5,12,27,29)        -144.8515         estimate D2E/DX2                !
 ! D334  D(14,12,27,26)        -84.8083         estimate D2E/DX2                !
 ! D335  D(14,12,27,28)        160.1512         estimate D2E/DX2                !
 ! D336  D(14,12,27,29)         14.3975         estimate D2E/DX2                !
 ! D337  D(7,13,16,18)         -10.0229         estimate D2E/DX2                !
 ! D338  D(8,13,16,18)         -89.3156         estimate D2E/DX2                !
 ! D339  D(10,13,16,18)        -63.0349         estimate D2E/DX2                !
 ! D340  D(17,13,16,18)        179.8766         estimate D2E/DX2                !
 ! D341  D(36,13,16,18)        126.2864         estimate D2E/DX2                !
 ! D342  D(37,13,16,18)         70.2537         estimate D2E/DX2                !
 ! D343  D(8,13,17,24)          94.9233         estimate D2E/DX2                !
 ! D344  D(10,13,17,24)         11.3017         estimate D2E/DX2                !
 ! D345  D(16,13,17,24)        174.9064         estimate D2E/DX2                !
 ! D346  D(37,13,17,24)        -82.814          estimate D2E/DX2                !
 ! D347  D(39,13,17,24)       -136.9521         estimate D2E/DX2                !
 ! D348  D(7,13,36,24)        -118.464          estimate D2E/DX2                !
 ! D349  D(7,13,36,25)         -74.6875         estimate D2E/DX2                !
 ! D350  D(7,13,36,35)        -168.7593         estimate D2E/DX2                !
 ! D351  D(7,13,36,38)          75.9039         estimate D2E/DX2                !
 ! D352  D(8,13,36,24)          52.6006         estimate D2E/DX2                !
 ! D353  D(8,13,36,25)          96.3771         estimate D2E/DX2                !
 ! D354  D(8,13,36,35)           2.3052         estimate D2E/DX2                !
 ! D355  D(8,13,36,38)        -113.0315         estimate D2E/DX2                !
 ! D356  D(10,13,36,24)        -37.5447         estimate D2E/DX2                !
 ! D357  D(10,13,36,25)          6.2318         estimate D2E/DX2                !
 ! D358  D(10,13,36,35)        -87.8401         estimate D2E/DX2                !
 ! D359  D(10,13,36,38)        156.8231         estimate D2E/DX2                !
 ! D360  D(16,13,36,24)        139.5388         estimate D2E/DX2                !
 ! D361  D(16,13,36,25)       -176.6847         estimate D2E/DX2                !
 ! D362  D(16,13,36,35)         89.2434         estimate D2E/DX2                !
 ! D363  D(16,13,36,38)        -26.0934         estimate D2E/DX2                !
 ! D364  D(39,13,36,24)        177.2783         estimate D2E/DX2                !
 ! D365  D(39,13,36,25)       -138.9452         estimate D2E/DX2                !
 ! D366  D(39,13,36,35)        126.9829         estimate D2E/DX2                !
 ! D367  D(39,13,36,38)         11.6462         estimate D2E/DX2                !
 ! D368  D(7,13,39,18)          30.2965         estimate D2E/DX2                !
 ! D369  D(7,13,39,38)        -149.2302         estimate D2E/DX2                !
 ! D370  D(7,13,39,40)          -4.2666         estimate D2E/DX2                !
 ! D371  D(7,13,39,41)         135.3383         estimate D2E/DX2                !
 ! D372  D(8,13,39,18)         -45.8555         estimate D2E/DX2                !
 ! D373  D(8,13,39,38)         134.6179         estimate D2E/DX2                !
 ! D374  D(8,13,39,40)         -80.4186         estimate D2E/DX2                !
 ! D375  D(8,13,39,41)          59.1863         estimate D2E/DX2                !
 ! D376  D(10,13,39,18)         98.5805         estimate D2E/DX2                !
 ! D377  D(10,13,39,38)        -80.9461         estimate D2E/DX2                !
 ! D378  D(10,13,39,40)         64.0175         estimate D2E/DX2                !
 ! D379  D(10,13,39,41)       -156.3776         estimate D2E/DX2                !
 ! D380  D(17,13,39,18)       -141.8001         estimate D2E/DX2                !
 ! D381  D(17,13,39,38)         38.6732         estimate D2E/DX2                !
 ! D382  D(17,13,39,40)       -176.3632         estimate D2E/DX2                !
 ! D383  D(17,13,39,41)        -36.7583         estimate D2E/DX2                !
 ! D384  D(36,13,39,18)        170.7983         estimate D2E/DX2                !
 ! D385  D(36,13,39,38)         -8.7283         estimate D2E/DX2                !
 ! D386  D(36,13,39,40)        136.2353         estimate D2E/DX2                !
 ! D387  D(36,13,39,41)        -84.1599         estimate D2E/DX2                !
 ! D388  D(12,14,21,5)           5.7134         estimate D2E/DX2                !
 ! D389  D(12,14,21,22)        128.3682         estimate D2E/DX2                !
 ! D390  D(12,14,21,23)        -97.1518         estimate D2E/DX2                !
 ! D391  D(12,14,51,22)        -80.2519         estimate D2E/DX2                !
 ! D392  D(12,14,51,52)         26.3031         estimate D2E/DX2                !
 ! D393  D(13,16,18,7)          12.5839         estimate D2E/DX2                !
 ! D394  D(13,16,18,19)        179.5867         estimate D2E/DX2                !
 ! D395  D(13,16,18,20)        112.0613         estimate D2E/DX2                !
 ! D396  D(13,16,18,40)        -92.7409         estimate D2E/DX2                !
 ! D397  D(13,16,18,42)        115.3821         estimate D2E/DX2                !
 ! D398  D(13,17,24,10)        -10.9083         estimate D2E/DX2                !
 ! D399  D(13,17,24,25)         73.8998         estimate D2E/DX2                !
 ! D400  D(13,17,24,26)        -94.4746         estimate D2E/DX2                !
 ! D401  D(13,17,24,30)       -167.4309         estimate D2E/DX2                !
 ! D402  D(13,17,24,32)        178.4629         estimate D2E/DX2                !
 ! D403  D(13,17,24,33)        125.5409         estimate D2E/DX2                !
 ! D404  D(7,18,20,6)           -4.3678         estimate D2E/DX2                !
 ! D405  D(16,18,20,6)        -107.6665         estimate D2E/DX2                !
 ! D406  D(19,18,20,6)          94.6502         estimate D2E/DX2                !
 ! D407  D(39,18,20,6)        -118.9295         estimate D2E/DX2                !
 ! D408  D(40,18,20,6)         162.6237         estimate D2E/DX2                !
 ! D409  D(7,18,39,13)         -38.4067         estimate D2E/DX2                !
 ! D410  D(7,18,39,37)          10.0972         estimate D2E/DX2                !
 ! D411  D(7,18,39,38)         -37.1381         estimate D2E/DX2                !
 ! D412  D(7,18,39,41)         176.2564         estimate D2E/DX2                !
 ! D413  D(19,18,39,13)       -149.5346         estimate D2E/DX2                !
 ! D414  D(19,18,39,37)       -101.0307         estimate D2E/DX2                !
 ! D415  D(19,18,39,38)       -148.266          estimate D2E/DX2                !
 ! D416  D(19,18,39,41)         65.1286         estimate D2E/DX2                !
 ! D417  D(20,18,39,13)         76.5328         estimate D2E/DX2                !
 ! D418  D(20,18,39,37)        125.0366         estimate D2E/DX2                !
 ! D419  D(20,18,39,38)         77.8014         estimate D2E/DX2                !
 ! D420  D(20,18,39,41)        -68.8041         estimate D2E/DX2                !
 ! D421  D(7,18,42,6)           42.5704         estimate D2E/DX2                !
 ! D422  D(7,18,42,43)         179.6655         estimate D2E/DX2                !
 ! D423  D(7,18,42,44)          -2.8093         estimate D2E/DX2                !
 ! D424  D(16,18,42,6)         -67.0571         estimate D2E/DX2                !
 ! D425  D(16,18,42,43)         70.038          estimate D2E/DX2                !
 ! D426  D(16,18,42,44)       -112.4368         estimate D2E/DX2                !
 ! D427  D(40,18,42,6)         148.0332         estimate D2E/DX2                !
 ! D428  D(40,18,42,43)        -74.8717         estimate D2E/DX2                !
 ! D429  D(40,18,42,44)        102.6535         estimate D2E/DX2                !
 ! D430  D(5,21,23,1)           -5.087          estimate D2E/DX2                !
 ! D431  D(5,21,23,48)          70.7167         estimate D2E/DX2                !
 ! D432  D(14,21,23,1)          99.2066         estimate D2E/DX2                !
 ! D433  D(14,21,23,48)        175.0104         estimate D2E/DX2                !
 ! D434  D(22,21,23,1)        -151.3875         estimate D2E/DX2                !
 ! D435  D(22,21,23,48)        -75.5837         estimate D2E/DX2                !
 ! D436  D(51,21,23,1)         135.7002         estimate D2E/DX2                !
 ! D437  D(51,21,23,48)       -148.496          estimate D2E/DX2                !
 ! D438  D(5,21,51,52)          -5.6087         estimate D2E/DX2                !
 ! D439  D(23,21,51,52)       -142.2383         estimate D2E/DX2                !
 ! D440  D(21,23,48,46)        -91.494          estimate D2E/DX2                !
 ! D441  D(21,23,48,49)         17.6316         estimate D2E/DX2                !
 ! D442  D(21,23,48,50)        140.3089         estimate D2E/DX2                !
 ! D443  D(10,24,26,9)           7.4056         estimate D2E/DX2                !
 ! D444  D(10,24,26,27)         78.663          estimate D2E/DX2                !
 ! D445  D(17,24,26,9)         105.1014         estimate D2E/DX2                !
 ! D446  D(17,24,26,27)        176.3589         estimate D2E/DX2                !
 ! D447  D(28,24,26,9)         -73.2076         estimate D2E/DX2                !
 ! D448  D(28,24,26,27)         -1.9502         estimate D2E/DX2                !
 ! D449  D(30,24,26,9)        -119.8127         estimate D2E/DX2                !
 ! D450  D(30,24,26,27)        -48.5552         estimate D2E/DX2                !
 ! D451  D(32,24,26,9)        -168.1117         estimate D2E/DX2                !
 ! D452  D(32,24,26,27)        -96.8542         estimate D2E/DX2                !
 ! D453  D(33,24,26,9)        -177.5495         estimate D2E/DX2                !
 ! D454  D(33,24,26,27)       -106.292          estimate D2E/DX2                !
 ! D455  D(36,24,26,9)          90.6283         estimate D2E/DX2                !
 ! D456  D(36,24,26,27)        161.8858         estimate D2E/DX2                !
 ! D457  D(10,24,28,27)        -82.7262         estimate D2E/DX2                !
 ! D458  D(25,24,28,27)       -166.7062         estimate D2E/DX2                !
 ! D459  D(26,24,28,27)          1.7981         estimate D2E/DX2                !
 ! D460  D(32,24,28,27)         88.385          estimate D2E/DX2                !
 ! D461  D(33,24,28,27)        141.6806         estimate D2E/DX2                !
 ! D462  D(36,24,28,27)       -158.3841         estimate D2E/DX2                !
 ! D463  D(10,24,30,29)        -77.1785         estimate D2E/DX2                !
 ! D464  D(10,24,30,31)        102.5617         estimate D2E/DX2                !
[...]
 0003225,-0.00004533,0.00000639,-0.00001399,0.00004415,0.00002625,0.004
 33140,-0.00075964,0.00004070,-0.00058762,-0.00024683,-0.00001969,0.001
 03893,0.00467126,0.00220100,-0.00040842,0.00027539,-0.00021184,0.00000
 927,-0.00003794,-0.00003400,0.00005525,-0.00000486,-0.00003774,0.00023
 458,0.00019734,0.00012869,-0.00001482,-0.00001372,0.00000801,-0.000030
 05,0.00000346,-0.00003554,-0.00010199,-0.00005456,0.00024646,0.0001450
 3,-0.00000138,-0.00012761,0.00001289,-0.00000782,0.00001564,-0.0000473
 7,-0.00004083,0.00012631,0.00009144,-0.00002289,-0.00010427,-0.0000612
 3,0.00004968,-0.00000485,0.00025060,-0.00016393,0.00010872,-0.00000393
 ,0.00005383,0.00000631,-0.00014983,0.00006409,-0.00004462,0.00008538,-
 0.00006838,-0.00007406,-0.00004542,0.00000048,-0.00010402,-0.00010900,
 0.00012621,-0.00001608,0.00006943,0.00016109,-0.00050314,-0.00013567,-
 0.00001572,0.00028162,0.00010278,-0.00021031,0.00012874,0.00341812,0.0
 0012015,-0.00406692,0.00016560,0.00028030,-0.00414508,-0.00326755,0.00
 028955,0.00327936,0.11085105,0.05225175,-0.18255380,0.00732012,-0.0068
 9704,0.00154466,-0.12047620,-0.05350838,0.18571352,0.00007054,0.000690
 84,-0.00183556,-0.00141237,0.00061405,-0.00059885,0.00000154,-0.000152
 26,0.00051412,0.00042414,0.00004747,0.00023472,0.00112974,0.00140660,-
 0.00471709,-0.00019944,-0.00033798,-0.00013409,0.00002015,-0.00000521,
 0.00006986,-0.00002336,-0.00007006,-0.00026703,0.00082605,0.00054887,0
 .00025325,-0.00004587,-0.00002641,-0.00005737,0.00082465,-0.00013521,0
 .00056366,-0.01101360,-0.00177639,-0.00743787,0.00006790,0.00009318,0.
 00005046,-0.05841666,0.05832088,-0.02489720,0.00154716,-0.00062658,0.0
 0133013,0.00003275,-0.00004029,0.00002483,-0.00001279,-0.00001012,0.00
 004145,0.00018266,-0.00013022,0.00023288,-0.00002246,-0.00000778,-0.00
 005934,-0.00010345,0.00008319,0.00010028,-0.04063137,-0.01423343,-0.00
 901080,-0.03105421,-0.04944746,0.01733577,-0.00180612,-0.00198883,-0.0
 0061002,0.00033714,0.00006411,-0.00015308,-0.00004592,-0.00004944,-0.0
 0001942,-0.00003394,-0.00009962,-0.00001248,-0.00062037,0.00095454,-0.
 00095161,-0.00019418,-0.00009770,0.00009375,0.00001946,-0.00008375,0.0
 0005017,-0.00029217,0.00011950,0.00005738,0.00013996,-0.00002004,-0.00
 013986,0.00000004,0.00003528,0.00002513,-0.00009094,0.00000894,0.00008
 988,0.00007572,-0.00001444,-0.00008005,0.00000848,0.00000949,0.0000061
 2,0.00004579,-0.00003058,-0.00001311,0.00000412,0.00000954,-0.00004240
 ,-0.00002344,0.00001070,-0.00000095,0.00001994,-0.00015231,-0.00000855
 ,-0.00006420,0.00003480,-0.00006023,-0.00005763,0.00008784,-0.00002601
 ,0.00018255,0.00006850,-0.00001984,-0.00006415,-0.00003678,0.00012017,
 0.00000788,-0.00010193,-0.00006589,-0.00015302,0.00067733,-0.00000179,
 -0.00013665,-0.00002750,0.00017287,-0.00015080,-0.00013552,0.00011270,
 -0.00017107,-0.00019916,0.00206088,-0.00315455,-0.00093232,-0.00234988
 ,-0.00028390,0.00003798,-0.00009450,0.18198100,0.00189265,-0.00059338,
 0.00076147,0.00071354,-0.00030223,-0.00019107,-0.00016664,0.00008585,-
 0.00023118,-0.00021910,-0.00012472,-0.00002730,-0.00254570,-0.00397648
 ,0.00018052,0.00011764,0.00017753,0.00008979,0.00000251,0.00000984,-0.
 00004655,-0.00008351,0.00003995,0.00015272,-0.00001243,0.00016777,-0.0
 0064182,0.00000728,0.00002387,-0.00003011,0.00004462,-0.00013323,-0.00
 043080,0.00344669,0.00008276,0.00625164,-0.00002365,-0.00009702,0.0000
 0605,0.05349423,-0.05502259,0.03273682,0.00020359,0.00055947,-0.000779
 15,-0.00002884,0.00001470,-0.00000824,-0.00000121,-0.00000561,-0.00001
 428,-0.00005912,0.00005791,-0.00007971,0.00000700,-0.00000495,0.000043
 09,0.00005247,-0.00002807,-0.00002086,-0.01537133,0.00699367,-0.013294
 46,-0.04863480,-0.11801329,0.01664560,0.00204647,0.00118716,-0.0013284
 5,-0.00027467,0.00000244,-0.00001206,0.00003531,0.00002263,0.00002628,
 0.00006705,0.00000132,0.00012096,-0.00023993,-0.00108480,0.00110425,0.
 00016853,0.00010639,-0.00006277,-0.00009729,0.00001671,-0.00007670,0.0
 0021401,-0.00005406,0.00001148,-0.00003469,0.00002349,0.00004177,0.000
 00665,-0.00002103,-0.00000368,0.00003255,0.00000784,-0.00000486,-0.000
 01642,0.00000016,0.00000903,-0.00000990,0.00000081,-0.00000443,0.00001
 995,-0.00002250,0.00003066,-0.00000522,0.00001613,0.00001375,-0.000031
 85,0.00000672,-0.00000865,0.00001612,0.00008536,-0.00002918,0.00002275
 ,-0.00001680,0.00001630,0.00001064,-0.00002264,0.00001276,-0.00005451,
 -0.00001580,-0.00007893,-0.00000267,0.00000897,-0.00000591,-0.00001256
 ,0.00000166,0.00003307,0.00012326,-0.00019743,0.00027859,0.00009907,-0
 .00021841,0.00014016,-0.00000607,0.00006219,-0.00005021,0.00044098,-0.
 00110104,-0.00001896,-0.00235588,-0.00383527,0.00186596,0.00015627,0.0
 0039563,0.00011848,-0.00916137,0.21471787,-0.00014948,-0.00107554,0.00
 026685,-0.00014663,-0.00010910,-0.00119656,-0.00013043,0.00028586,-0.0
 0008247,-0.00010134,0.00009276,0.00003157,-0.00239554,-0.00085721,0.00
 392177,0.00022630,-0.00006050,0.00015386,-0.00004900,-0.00000158,-0.00
 005895,0.00012317,-0.00001203,-0.00002826,0.00003997,-0.00049068,0.001
 18305,-0.00002011,-0.00005366,-0.00020792,-0.00014924,0.00015177,-0.00
 118908,-0.00170913,0.00441304,0.00375654,0.00007513,-0.00010057,-0.000
 17338,-0.02810510,0.02425613,-0.03694628,-0.00270337,0.00151190,0.0004
 7284,-0.00004019,0.00003214,0.00000712,-0.00008677,0.00006997,-0.00007
 043,-0.00010659,0.00003739,-0.00013785,0.00003154,0.00001504,0.0000830
 8,0.00001752,-0.00002261,0.00003150,-0.00935847,-0.00944580,-0.0147359
 7,0.01116851,0.01998176,-0.02092310,-0.00055477,0.00401631,0.00121255,
 0.00060722,-0.00044943,0.00036960,-0.00001746,0.00006617,0.00008096,0.
 00004419,0.00018538,0.00013899,0.00099911,-0.00211051,0.00054263,0.000
 10746,0.00003799,-0.00014182,0.00002795,0.00008151,-0.00015948,0.00040
 071,0.00011534,-0.00058296,-0.00035649,0.00002791,0.00031612,-0.000001
 26,-0.00000149,-0.00004654,0.00011796,0.00008281,-0.00019993,-0.000139
 91,0.00003249,0.00017054,0.00006681,-0.00005364,0.00000310,-0.00036449
 ,0.00020306,-0.00011173,0.00002777,-0.00001938,0.00003340,0.00015784,-
 0.00009347,0.00005024,-0.00009273,0.00012104,0.00005894,0.00005245,-0.
 00000423,0.00005095,0.00012229,-0.00013525,0.00002434,-0.00020492,0.00
 001067,0.00002311,0.00012657,0.00000765,-0.00017122,-0.00004122,0.0000
 9149,0.00005822,-0.00014014,-0.00009845,0.00011634,0.00040622,0.000025
 99,0.00020386,0.00014464,0.00005814,-0.00022644,-0.00031127,0.00061369
 ,0.00114597,0.00172782,0.00006599,0.00144642,0.00027059,0.00016985,-0.
 00079722,-0.01797248,0.00368991,0.23864829,0.00018159,-0.00116963,0.00
 151766,0.00070618,0.00021691,0.00018209,-0.00027113,0.00017093,-0.0001
 7893,-0.00016474,0.00014733,-0.00035642,-0.00015209,-0.00048409,0.0010
 8547,0.00044153,0.00013893,0.00037446,0.00001966,-0.00000986,-0.000058
 20,0.00000661,-0.00005555,0.00007890,-0.00035295,-0.00018960,-0.000465
 29,0.00015276,-0.00001319,0.00013962,-0.00075393,0.00016231,-0.0005253
 2,0.00543556,0.00255334,0.00049916,-0.00023732,-0.00000611,-0.00006018
 ,-0.01487619,0.00709708,-0.00027350,-0.00150945,0.00063424,-0.00048792
 ,0.00000489,0.00005334,-0.00002970,0.00005835,0.00002845,-0.00005425,-
 0.00015392,0.00010283,-0.00017645,0.00002241,-0.00000330,0.00009456,0.
 00003999,-0.00006471,-0.00011948,0.00385229,0.00388032,0.00767012,-0.0
 0696405,-0.00912052,0.00501522,-0.00011085,-0.00126504,0.00038107,-0.0
 0032600,-0.00007316,0.00018296,0.00002383,0.00002912,0.00001307,-0.000
 02883,0.00003170,-0.00005429,0.00035196,-0.00108303,0.00133195,0.00015
 689,0.00010808,-0.00009703,-0.00003321,0.00009323,-0.00020520,0.000445
 67,-0.00006993,-0.00016648,-0.00023420,0.00002135,0.00023236,-0.000003
 14,-0.00001836,-0.00004704,0.00011460,-0.00000701,-0.00010694,-0.00010
 380,0.00002472,0.00011267,-0.00000721,-0.00001459,-0.00000906,-0.00004
 368,0.00003977,-0.00000299,0.00000111,-0.00002125,0.00003146,0.0000331
 2,-0.00001400,0.00001865,0.00000005,0.00013856,0.00000143,0.00005573,-
 0.00003277,0.00007502,0.00006270,-0.00008985,0.00001723,-0.00014534,-0
 .00002160,-0.00000858,0.00005405,0.00001241,-0.00009116,0.00002079,-0.
 00001818,0.00001620,0.00018895,-0.00004641,0.00010032,0.00001603,-0.00
 008799,-0.00028202,0.00006734,-0.00004563,-0.00000190,-0.00190325,-0.0
 0009437,-0.00087708,0.00019623,0.00141972,0.00097434,0.00019044,-0.000
 04501,-0.00035573,-0.03608586,0.00600010,0.01232643,0.19149190,-0.0002
 6639,0.00086775,-0.00096222,-0.00037673,0.00007048,-0.00038270,0.00019
 406,-0.00017479,0.00022169,0.00015722,0.00004649,0.00009413,0.00068761
 ,0.00111897,-0.00196542,-0.00035545,-0.00014086,-0.00029071,0.00004336
 ,0.00000581,0.00006731,-0.00000736,0.00004280,-0.00006343,0.00002950,-
 0.00015775,-0.00006859,-0.00009720,-0.00006398,-0.00016658,-0.00014732
 ,-0.00061447,0.00023420,-0.00154806,0.00374067,-0.00280784,0.00009791,
 0.00005693,0.00010466,0.00757382,0.00166953,-0.01065784,0.00064008,-0.
 00129808,-0.00014122,0.00003451,-0.00005368,0.00001291,0.00003613,-0.0
 0004585,0.00007653,0.00015584,-0.00008782,0.00019596,-0.00003145,-0.00
 001200,-0.00009247,-0.00004163,0.00005381,0.00006173,0.00593891,-0.006
 82660,0.01526284,-0.00636489,0.00465104,0.00745541,-0.00044066,-0.0004
 3730,-0.00031851,-0.00012472,0.00033273,-0.00033744,-0.00001939,-0.000
 08284,-0.00006883,-0.00008455,-0.00007132,-0.00013616,0.00002287,0.001
 13966,-0.00021660,-0.00014470,-0.00007216,0.00009626,-0.00002600,-0.00
 010181,0.00014884,-0.00050397,0.00004114,0.00032144,0.00032246,-0.0000
 3497,-0.00030999,-0.00000239,0.00001217,0.00005534,-0.00015275,-0.0000
 3950,0.00017909,0.00015343,-0.00003548,-0.00016619,-0.00003237,0.00003
 970,0.00000523,0.00025452,-0.00015593,0.00007410,-0.00000521,0.0000299
 6,-0.00003401,-0.00012724,0.00006087,-0.00003722,0.00004908,-0.0001512
 6,-0.00005121,-0.00006132,0.00002043,-0.00007810,-0.00011074,0.0001402
 2,-0.00002584,0.00019904,0.00003137,-0.00003930,-0.00010840,-0.0000159
 9,0.00015113,0.00000983,-0.00002710,-0.00003721,0.00001711,0.00010255,
 -0.00009589,-0.00047121,0.00018679,-0.00017128,-0.00013674,-0.00003974
 ,0.00012406,0.00128994,-0.00065116,0.00006006,-0.00139553,-0.00025859,
 -0.00179702,-0.00024080,-0.00011302,0.00046863,0.00479440,-0.04853343,
 -0.02285759,-0.10001668,0.16177164,-0.00088285,0.00317394,-0.00233726,
 -0.00106305,-0.00022495,0.00063087,0.00060791,-0.00038217,0.00038665,0
 .00052970,-0.00029687,0.00021266,0.00188542,0.00052161,-0.00406936,-0.
 00096994,-0.00022196,-0.00060703,0.00006151,-0.00000999,0.00018388,-0.
 00009843,0.00012677,-0.00006550,0.00011694,0.00014452,-0.00011344,-0.0
 0022713,0.00010179,-0.00016997,0.00087590,-0.00143579,0.00065002,-0.00
 819520,-0.00134577,-0.00289363,0.00034789,0.00016026,0.00026425,0.0088
 4680,-0.00059387,0.00945764,0.00416471,-0.00300613,0.00131778,0.000056
 00,-0.00014291,0.00004119,0.00002386,-0.00012177,0.00018817,0.00038822
 ,-0.00022476,0.00048898,-0.00007359,-0.00001455,-0.00024792,-0.0000837
 8,0.00013015,0.00013261,0.00299074,0.00710108,0.00995510,0.01250074,0.
 00217410,0.00044218,-0.00090957,-0.00139788,-0.00060809,0.00014891,0.0
 0061909,-0.00078654,-0.00007713,-0.00014953,-0.00012237,-0.00006919,-0
 .00025124,-0.00026285,-0.00127191,0.00434352,-0.00372528,-0.00056671,-
 0.00034407,0.00043376,0.00012978,-0.00030691,0.00055131,-0.00140837,0.
 00016125,0.00081402,0.00081203,-0.00010112,-0.00078769,0.00000948,0.00
 004075,0.00014347,-0.00036632,-0.00006154,0.00040935,0.00035655,-0.000
 08553,-0.00039207,-0.00004802,0.00007994,0.00001606,0.00046560,-0.0002
 8769,0.00009828,-0.00002646,0.00006071,-0.00009508,-0.00022660,0.00010
 626,-0.00007199,0.00008634,-0.00037287,-0.00008776,-0.00015483,0.00005
 735,-0.00018442,-0.00024376,0.00030842,-0.00006005,0.00046708,0.000018
 73,-0.00001664,-0.00023948,-0.00003701,0.00034659,0.00000388,-0.000078
 24,-0.00010916,0.00014417,0.00020128,-0.00004529,-0.00059566,-0.000273
 08,-0.00003174,-0.00024456,-0.00009461,0.00021601,0.00162915,0.0007237
 5,0.00050165,-0.00078712,-0.00099289,-0.00166758,-0.00045140,-0.000272
 58,0.00098732,0.00835978,-0.02495645,-0.11866702,-0.30521092,0.2644471
 6,0.90309573,-0.00033826,0.00077072,-0.00074172,-0.00021833,-0.0001333
 4,-0.00012549,0.00015816,-0.00013212,0.00008343,0.00015652,-0.00008676
 ,0.00013665,0.00032584,0.00027164,-0.00079411,-0.00029467,-0.00005224,
 -0.00022159,0.00000141,0.00000042,0.00004705,-0.00002285,0.00005235,-0
 .00003587,-0.00001488,-0.00000668,0.00011233,-0.00009551,0.00001955,-0
 .00004724,0.00022004,-0.00004991,0.00037273,-0.00259523,-0.00128518,-0
 .00063107,0.00013898,0.00001537,0.00005809,0.00520986,-0.00202044,0.00
 000282,0.00084511,0.00002291,-0.00005466,0.00000455,-0.00003714,0.0000
 1653,-0.00002564,-0.00002637,0.00004078,0.00010965,-0.00006707,0.00013
 163,-0.00001834,-0.00000094,-0.00006771,-0.00002573,0.00003330,0.00005
 500,-0.00133880,-0.00087779,-0.00090855,0.00269976,0.00221713,-0.00163
 873,-0.00025809,0.00029764,-0.00007943,0.00010779,0.00011825,-0.000164
 80,-0.00000908,-0.00002669,-0.00002213,0.00000584,-0.00002157,-0.00002
 204,-0.00012281,0.00067736,-0.00055903,-0.00008783,-0.00004743,0.00005
 377,0.00002151,-0.00002660,0.00013171,-0.00031981,0.00001684,0.0001773
 7,0.00019187,-0.00001757,-0.00019158,-0.00000046,0.00000897,0.00003667
 ,-0.00008802,-0.00001047,0.00009461,0.00008389,-0.00001949,-0.00009431
 ,-0.00000658,0.00001758,0.00000546,0.00008616,-0.00005310,0.00002103,-
 0.00000694,0.00001783,-0.00002049,-0.00004446,0.00002151,-0.00001849,0
 .00001124,-0.00010141,-0.00001245,-0.00004176,0.00001987,-0.00005212,-
 0.00005611,0.00007481,-0.00001416,0.00011337,0.00001517,0.00000307,-0.
 00005182,-0.00000892,0.00007979,-0.00000024,0.00000049,-0.00002305,-0.
 00004853,0.00007571,-0.00007781,-0.00003124,0.00005240,0.00007235,-0.0
 0005319,0.00000767,0.00004464,0.00089109,0.00001557,0.00018320,-0.0002
 3986,-0.00035458,-0.00046197,-0.00010630,-0.00003578,0.00024012,-0.001
 58486,0.01000741,0.03603240,-0.13993206,0.09074025,0.27848286,0.136695
 65,0.00038790,-0.00057681,0.00048166,0.00014743,0.00001553,0.00016994,
 -0.00012813,0.00010869,-0.00009496,-0.00011401,0.00001579,-0.00005878,
 -0.00027095,-0.00027869,0.00117099,0.00022242,0.00005369,0.00016751,-0
 .00002311,-0.00000292,-0.00004146,0.00002136,-0.00003425,0.00001239,0.
 00003020,0.00007605,0.00007915,0.00005809,0.00001635,0.00008435,0.0000
 3197,0.00025483,-0.00021873,0.00126519,-0.00077121,0.00108240,-0.00006
 771,-0.00002715,-0.00007085,-0.00316504,-0.00101905,0.00224678,-0.0002
 7559,0.00007810,0.00043126,-0.00001676,0.00003174,-0.00000863,-0.00001
 374,0.00003064,-0.00004281,-0.00009980,0.00005055,-0.00012230,0.000020
 86,0.00000610,0.00005946,0.00001890,-0.00002901,-0.00003327,-0.0020455
 7,0.00226907,-0.00473481,0.00103045,-0.00020154,-0.00040649,0.00014879
 ,0.00000801,0.00012050,0.00012981,-0.00021821,0.00019020,0.00000215,0.
 00004744,0.00004493,0.00003106,0.00005687,0.00009224,-0.00003804,-0.00
 073787,0.00016478,0.00005859,0.00001403,-0.00004436,0.00002196,0.00003
 290,-0.00010494,0.00029842,0.00001895,-0.00024873,-0.00021115,0.000016
 07,0.00019913,0.00000159,-0.00000574,-0.00003463,0.00009433,0.00003002
 ,-0.00011349,-0.00009583,0.00002210,0.00010697,0.00002328,-0.00002573,
 -0.00000313,-0.00016834,0.00009914,-0.00005512,0.00000508,-0.00002013,
 0.00001973,0.00008563,-0.00004126,0.00002587,-0.00003398,0.00008808,0.
 00003503,0.00003928,-0.00001205,0.00004937,0.00006906,-0.00008695,0.00
 001549,-0.00012368,-0.00000915,0.00001995,0.00006928,0.00000908,-0.000
 09578,-0.00000492,0.00002004,0.00002746,-0.00004222,-0.00008397,0.0000
 6273,0.00017778,-0.00006199,0.00007325,0.00007566,0.00001966,-0.000081
 74,-0.00068160,0.00030852,0.00003229,0.00053156,0.00006076,0.00053279,
 0.00012193,0.00005817,-0.00025008,0.01141266,0.00854800,-0.02249846,0.
 09107666,-0.11593600,-0.24671773,-0.10008915,0.10771471,0.00073951,-0.
 00238338,0.00205972,0.00041843,0.00033046,-0.00026984,-0.00039824,0.00
 031814,-0.00028177,-0.00037703,0.00021491,-0.00022070,-0.00117148,-0.0
 0020533,0.00227343,0.00071173,0.00017707,0.00053617,-0.00001335,-0.000
 00164,-0.00013194,0.00003095,-0.00012103,0.00001453,0.00020969,0.00019
 165,-0.00010274,0.00020808,-0.00008293,0.00014482,-0.00055756,0.000988
 41,-0.00026903,0.00545136,-0.00018996,0.00073206,-0.00033225,-0.000091
 00,-0.00015595,-0.00511579,0.00012142,-0.00102504,-0.00298519,0.001966
 74,-0.00098463,-0.00003405,0.00010407,-0.00003439,0.00002277,0.0000771
 6,-0.00012470,-0.00028969,0.00017349,-0.00034337,0.00005205,0.00000418
 ,0.00018591,0.00006706,-0.00008326,-0.00012145,0.00036981,-0.00140130,
 -0.00418616,-0.00614186,0.00073736,0.00057856,0.00044626,0.00027802,0.
 00017043,-0.00032053,-0.00033567,0.00049614,0.00006105,0.00008527,0.00
 006419,0.00002108,0.00013090,0.00015140,0.00083574,-0.00250790,0.00251
 454,0.00037579,0.00021190,-0.00031674,-0.00010263,0.00018650,-0.000392
 16,0.00096139,-0.00015526,-0.00047939,-0.00053864,0.00006787,0.0005292
 4,-0.00000352,-0.00003421,-0.00010065,0.00024908,0.00002403,-0.0002631
 3,-0.00023742,0.00005767,0.00026029,0.00001721,-0.00004956,-0.00001389
 ,-0.00024605,0.00014573,-0.00003923,0.00002368,-0.00004256,0.00006338,
 0.00011650,-0.00005064,0.00004314,-0.00002877,0.00027766,0.00004568,0.
 00011395,-0.00004869,0.00013276,0.00015748,-0.00020496,0.00004024,-0.0
 0031249,-0.00002289,-0.00002097,0.00014845,0.00002594,-0.00022288,-0.0
 0000302,0.00002638,0.00006934,-0.00000485,-0.00017542,0.00004899,0.000
 32311,0.00009964,0.00000656,0.00013819,0.00004954,-0.00011969,-0.00177
 294,-0.00024951,-0.00016246,0.00050380,0.00037360,0.00090668,0.0002819
 4,0.00019430,-0.00070632,0.03973709,-0.02194435,-0.05774813,0.27782961
 ,-0.24554126,-0.79373982,-0.30963550,0.26828267,0.85050900\\-0.0000471
 1,0.00004895,0.00004596,0.00000161,-0.00001143,-0.00000379,0.00000113,
 0.00000133,0.00000617,-0.00000452,0.00000277,-0.00001401,0.00003102,0.
 00001231,-0.00000685,0.00001124,-0.00000576,-0.00001869,0.00000026,-0.
 00001089,0.00000823,-0.00000318,-0.00000195,0.00000499,0.00003319,-0.0
 0000867,-0.00000249,-0.00000241,0.00000467,0.,0.00000093,0.00000668,-0
 .00000914,-0.00002706,-0.00000420,0.00006029,-0.00000492,-0.00002171,-
 0.00000883,0.00001029,0.00004498,0.00000047,-0.00000066,0.00000751,-0.
 00000057,-0.00000093,0.00000278,-0.00000011,0.00000432,0.00000319,0.00
 000270,-0.00000659,0.00000300,0.00000624,0.00000301,-0.00000382,-0.000
 00160,0.00000425,0.00000003,0.00000742,-0.00001388,-0.00005519,-0.0000
 3153,-0.00001815,-0.00000478,0.00000539,0.00000475,0.00000194,-0.00001
 623,-0.00003678,0.00000848,-0.00001530,0.00000147,-0.00000201,0.000002
 19,-0.00000584,-0.00001005,-0.00000222,-0.00000540,-0.00004136,-0.0000
 1246,0.00000888,0.00001164,0.00000561,0.00000402,0.00000166,-0.0000054
 5,0.00000498,0.00000454,0.00000581,-0.00000171,0.00000216,0.00000003,0
 .00000144,-0.00000221,-0.00000207,0.,-0.00000027,-0.00000120,-0.000000
 90,-0.00000036,-0.00000154,-0.00000120,0.00000062,-0.00000666,0.000017
 30,-0.00000506,0.00001490,0.00000073,0.00000083,-0.00000037,-0.0000071
 2,-0.00000099,-0.00000032,0.00000184,0.00001508,-0.00000766,0.00000301
 ,-0.00000162,-0.00000214,-0.00000071,-0.00000058,0.00000460,0.00000394
 ,0.00000273,0.00001009,-0.00000694,0.00000368,-0.00000464,-0.00000462,
 -0.00000506,-0.00000113,0.00000223,-0.00000405,0.00001951,0.00000053,-
 0.00000790,-0.00001052,-0.00001177,0.00001148,-0.00000808,0.00001904,0
 .00000682,-0.00003367,0.00001513,-0.00001721,0.00000700,-0.00001092,0.
 00000572,-0.00000337,0.00004327,0.00000474,0.00001304,0.00001435,-0.00
 000293,-0.00003924,-0.00002483,0.00000973,0.00004123\\\@
 The archive entry for this job was punched.


 The theorems and results in mathematical physics are
 not theorems and results about Nature, but about our
 description of it.
                   --Gerard 't Hooft
 Job cpu time:       3 days  4 hours 46 minutes 52.3 seconds.
 Elapsed time:       0 days  1 hours 36 minutes 20.1 seconds.
 File lengths (MBytes):  RWF=   8242 Int=      0 D2E=      0 Chk=     95 Scr=      2
 Normal termination of Gaussian 16 at Sat Dec 24 14:09:45 2022.
