 Entering Gaussian System, Link 0=/apps/GAU16/avx2/g16/g16
 Initial command:
 /apps/GAU16/avx2//g16/l1.exe "/localscratch/chegho/Gau-134278.inp" -scrdir="/localscratch/chegho/"
 Entering Link 1 = /apps/GAU16/avx2//g16/l1.exe PID=    134280.
  
 Copyright (c) 1988-2019, Gaussian, Inc.  All Rights Reserved.
  
 This is part of the Gaussian(R) 16 program.  It is based on
 the Gaussian(R) 09 system (copyright 2009, Gaussian, Inc.),
 the Gaussian(R) 03 system (copyright 2003, Gaussian, Inc.),
 the Gaussian(R) 98 system (copyright 1998, Gaussian, Inc.),
 the Gaussian(R) 94 system (copyright 1995, Gaussian, Inc.),
 the Gaussian 92(TM) system (copyright 1992, Gaussian, Inc.),
 the Gaussian 90(TM) system (copyright 1990, Gaussian, Inc.),
 the Gaussian 88(TM) system (copyright 1988, Gaussian, Inc.),
 the Gaussian 86(TM) system (copyright 1986, Carnegie Mellon
 University), and the Gaussian 82(TM) system (copyright 1983,
 Carnegie Mellon University). Gaussian is a federally registered
 trademark of Gaussian, Inc.
  
 This software contains proprietary and confidential information,
 including trade secrets, belonging to Gaussian, Inc.
  
 This software is provided under written license and may be
 used, copied, transmitted, or stored only in accord with that
 written license.
  
 The following legend is applicable only to US Government
 contracts under FAR:
  
                    RESTRICTED RIGHTS LEGEND
  
 Use, reproduction and disclosure by the US Government is
 subject to restrictions as set forth in subparagraphs (a)
 and (c) of the Commercial Computer Software - Restricted
 Rights clause in FAR 52.227-19.
  
 Gaussian, Inc.
 340 Quinnipiac St., Bldg. 40, Wallingford CT 06492
  
  
 ---------------------------------------------------------------
 Warning -- This program may not be used in any manner that
 competes with the business of Gaussian, Inc. or will provide
 assistance to any competitor of Gaussian, Inc.  The licensee
 of this program is prohibited from giving any competitor of
 Gaussian, Inc. access to this program.  By using this program,
 the user acknowledges that Gaussian, Inc. is engaged in the
 business of creating and licensing software in the field of
 computational chemistry and represents and warrants to the
 licensee that it is not a competitor of Gaussian, Inc. and that
 it will not use this program in any manner prohibited above.
 ---------------------------------------------------------------
  

 Cite this work as:
 Gaussian 16, Revision C.01,
 M. J. Frisch, G. W. Trucks, H. B. Schlegel, G. E. Scuseria, 
 M. A. Robb, J. R. Cheeseman, G. Scalmani, V. Barone, 
 G. A. Petersson, H. Nakatsuji, X. Li, M. Caricato, A. V. Marenich, 
 J. Bloino, B. G. Janesko, R. Gomperts, B. Mennucci, H. P. Hratchian, 
 J. V. Ortiz, A. F. Izmaylov, J. L. Sonnenberg, D. Williams-Young, 
 F. Ding, F. Lipparini, F. Egidi, J. Goings, B. Peng, A. Petrone, 
 T. Henderson, D. Ranasinghe, V. G. Zakrzewski, J. Gao, N. Rega, 
 G. Zheng, W. Liang, M. Hada, M. Ehara, K. Toyota, R. Fukuda, 
 J. Hasegawa, M. Ishida, T. Nakajima, Y. Honda, O. Kitao, H. Nakai, 
 T. Vreven, K. Throssell, J. A. Montgomery, Jr., J. E. Peralta, 
 F. Ogliaro, M. J. Bearpark, J. J. Heyd, E. N. Brothers, K. N. Kudin, 
 V. N. Staroverov, T. A. Keith, R. Kobayashi, J. Normand, 
 K. Raghavachari, A. P. Rendell, J. C. Burant, S. S. Iyengar, 
 J. Tomasi, M. Cossi, J. M. Millam, M. Klene, C. Adamo, R. Cammi, 
 J. W. Ochterski, R. L. Martin, K. Morokuma, O. Farkas, 
 J. B. Foresman, and D. J. Fox, Gaussian, Inc., Wallingford CT, 2019.
 
 ******************************************
 Gaussian 16:  ES64L-G16RevC.01  3-Jul-2019
                26-Dec-2022 
 ******************************************
 %nprocshared=48
 Will use up to   48 processors via shared memory.
 %mem=100GB
 -----------------------------------------------------------
 # opt=(calcfc,ts,noeigen) freq b3lyp/gen nosymm pseudo=read
 -----------------------------------------------------------
 1/5=1,10=4,11=1,18=20,26=3,38=1/1,3;
 2/9=110,12=2,15=1,17=6,18=5,40=1/2;
 3/5=7,11=2,16=1,17=8,25=1,30=1,71=2,74=-5,140=1/1,2,3;
 4//1;
 5/5=2,38=5/2;
 8/6=4,10=90,11=11/1;
 11/6=1,8=1,9=11,15=111,16=1,31=1/1,2,10;
 10/6=1,13=1,31=1/2;
 6/7=2,8=2,9=2,10=2,28=1/1;
 7/10=1,25=1,30=1/1,2,3,16;
 1/5=1,10=4,11=1,18=20,26=3/3(2);
 2/9=110,15=1/2;
 99//99;
 2/9=110,15=1/2;
 3/5=7,6=1,11=2,16=1,17=8,25=1,30=1,71=1,74=-5,82=7/1,2,3;
 4/5=5,16=3,69=1/1;
 5/5=2,38=5/2;
 7/30=1/1,2,3,16;
 1/5=1,11=1,18=20,26=3/3(-5);
 2/9=110,15=1/2;
 6/7=2,8=2,9=2,10=2,19=2,28=1/1;
 99/9=1/99;
 -------------------
 Title Card Required
 -------------------
 Symbolic Z-matrix:
 Charge =  0 Multiplicity = 1
 42                   -0.17107   1.88123   12.95544 
 16                    0.90055   4.15899   12.63531 
 16                   -2.13657   3.35496   13.47826 
 16                   -0.72383   1.48762   10.57793 
 16                    1.86928   0.4855    12.36018 
 42                   -2.73651   2.74776   11.26786 
 16                   -2.9248    2.54317   8.57824 
 16                   -1.42303   4.7631    10.52632 
 42                    0.70712   3.46425   10.38343 
 16                    0.08355   3.34516   7.89992 
 16                    2.52504   2.01883   9.69088 
 42                    2.65597   2.68655   12.05905 
 42                   -1.87009   4.85232   8.00398 
 16                    3.54768   3.52495   14.18691 
 16                    4.90571   3.26288   11.26835 
 16                   -3.8275    6.12345   8.79331 
 16                   -0.71916   6.98024   7.91266 
 42                   -4.68045   3.86327   8.78131 
 16                   -6.38095   1.99628   9.18922 
 16                   -4.66129   4.31101   11.24796 
 42                    2.72858   1.26335   14.37676 
 16                    4.78763   0.01528   14.21748 
 16                    0.69666   2.31607   15.32988 
 42                    1.16576   5.45857   7.38478 
 16                    0.55063   4.87676   5.0309 
 16                    1.56259   5.72605   9.86723 
 42                    3.31001   4.30945   9.42504 
 16                    3.19698   3.92883   7.08678 
 16                    4.9637    6.07775   9.46477 
 42                    4.31135   5.97071   7.32046 
 16                    6.07829   5.99056   6.1464 
 16                    2.62294   7.60118   7.16662 
 42                    1.7235    6.92953   5.0331 
 16                    3.29816   6.69288   3.62392 
 16                    0.12126   8.3237    4.59387 
 42                   -1.30523   6.23426   5.7603 
 16                   -2.50809   4.17323   5.7043 
 16                   -3.02906   7.26013   4.83643 
 42                   -4.3441    5.69487   6.55439 
 16                   -5.65357   3.77437   6.67027 
 16                   -5.86063   7.16935   6.17357 
 42                   -5.57851   2.17113   11.24604 
 16                   -7.07448   2.01651   12.73509 
 16                   -3.87984   0.4914    11.43327 
 42                   -2.92243   1.15892   13.52389 
 16                   -1.15444  -0.43434   13.36049 
 16                   -4.33472   1.01323   15.09542 
 42                   -0.02114   0.11775   15.37865 
 16                    1.89857  -0.94911   15.50183 
 16                   -1.23525  -0.18156   17.08002 
 42                    5.28906   2.06289   13.42588 
 16                    7.26963   1.19616   12.34805 
 1                     7.58379   2.19865   11.50047 
 1                     8.35717   2.02669   13.44715 
 16                    6.73643   2.83516   15.11434 
 1                     8.20878   2.18409   14.32277 
 1                     6.96921   4.08695   14.66082 
 
 Add virtual bond connecting atoms H56        and H54        Dist= 1.70D+00.
 Add virtual bond connecting atoms H54        and S52        Dist= 3.32D+00.
 Add virtual bond connecting atoms H56        and S55        Dist= 3.39D+00.

 GradGradGradGradGradGradGradGradGradGradGradGradGradGradGradGradGradGrad
 Berny optimization.
 Initialization pass.
                           ----------------------------
                           !    Initial Parameters    !
                           ! (Angstroms and Degrees)  !
 --------------------------                            --------------------------
 ! Name  Definition              Value          Derivative Info.                !
 --------------------------------------------------------------------------------
 ! R1    R(1,2)                  2.5375         calculate D2E/DX2 analytically  !
 ! R2    R(1,3)                  2.5117         calculate D2E/DX2 analytically  !
 ! R3    R(1,4)                  2.4725         calculate D2E/DX2 analytically  !
 ! R4    R(1,5)                  2.5427         calculate D2E/DX2 analytically  !
 ! R5    R(1,12)                 3.0731         calculate D2E/DX2 analytically  !
 ! R6    R(1,23)                 2.5652         calculate D2E/DX2 analytically  !
 ! R7    R(1,45)                 2.9008         calculate D2E/DX2 analytically  !
 ! R8    R(1,46)                 2.5481         calculate D2E/DX2 analytically  !
 ! R9    R(1,48)                 3.0007         calculate D2E/DX2 analytically  !
 ! R10   R(2,9)                  2.3645         calculate D2E/DX2 analytically  !
 ! R11   R(2,12)                 2.3626         calculate D2E/DX2 analytically  !
 ! R12   R(3,6)                  2.3695         calculate D2E/DX2 analytically  !
 ! R13   R(3,45)                 2.3329         calculate D2E/DX2 analytically  !
 ! R14   R(4,6)                  2.4728         calculate D2E/DX2 analytically  !
 ! R15   R(4,9)                  2.448          calculate D2E/DX2 analytically  !
 ! R16   R(5,12)                 2.3567         calculate D2E/DX2 analytically  !
 ! R17   R(5,21)                 2.326          calculate D2E/DX2 analytically  !
 ! R18   R(6,7)                  2.7039         calculate D2E/DX2 analytically  !
 ! R19   R(6,8)                  2.5173         calculate D2E/DX2 analytically  !
 ! R20   R(6,20)                 2.4797         calculate D2E/DX2 analytically  !
 ! R21   R(6,42)                 2.9            calculate D2E/DX2 analytically  !
 ! R22   R(6,44)                 2.5349         calculate D2E/DX2 analytically  !
 ! R23   R(6,45)                 2.7656         calculate D2E/DX2 analytically  !
 ! R24   R(7,13)                 2.6028         calculate D2E/DX2 analytically  !
 ! R25   R(7,18)                 2.2059         calculate D2E/DX2 analytically  !
 ! R26   R(8,9)                  2.499          calculate D2E/DX2 analytically  !
 ! R27   R(8,13)                 2.5632         calculate D2E/DX2 analytically  !
 ! R28   R(9,10)                 2.5634         calculate D2E/DX2 analytically  !
 ! R29   R(9,11)                 2.4236         calculate D2E/DX2 analytically  !
 ! R30   R(9,12)                 2.6852         calculate D2E/DX2 analytically  !
 ! R31   R(9,26)                 2.4727         calculate D2E/DX2 analytically  !
 ! R32   R(9,27)                 2.8996         calculate D2E/DX2 analytically  !
 ! R33   R(10,13)                2.4696         calculate D2E/DX2 analytically  !
 ! R34   R(10,24)                2.4296         calculate D2E/DX2 analytically  !
 ! R35   R(11,12)                2.464          calculate D2E/DX2 analytically  !
 ! R36   R(11,27)                2.4359         calculate D2E/DX2 analytically  !
 ! R37   R(12,14)                2.4548         calculate D2E/DX2 analytically  !
 ! R38   R(12,15)                2.4533         calculate D2E/DX2 analytically  !
 ! R39   R(12,21)                2.7208         calculate D2E/DX2 analytically  !
 ! R40   R(12,51)                3.0316         calculate D2E/DX2 analytically  !
 ! R41   R(13,16)                2.4638         calculate D2E/DX2 analytically  !
 ! R42   R(13,17)                2.421          calculate D2E/DX2 analytically  !
 ! R43   R(13,18)                3.0791         calculate D2E/DX2 analytically  !
 ! R44   R(13,36)                2.695          calculate D2E/DX2 analytically  !
 ! R45   R(13,37)                2.4813         calculate D2E/DX2 analytically  !
 ! R46   R(13,39)                2.9886         calculate D2E/DX2 analytically  !
 ! R47   R(14,21)                2.4128         calculate D2E/DX2 analytically  !
 ! R48   R(14,51)                2.3977         calculate D2E/DX2 analytically  !
 ! R49   R(15,27)                2.6532         calculate D2E/DX2 analytically  !
 ! R50   R(15,51)                2.4984         calculate D2E/DX2 analytically  !
 ! R51   R(16,18)                2.4158         calculate D2E/DX2 analytically  !
 ! R52   R(16,39)                2.3374         calculate D2E/DX2 analytically  !
 ! R53   R(17,24)                2.4793         calculate D2E/DX2 analytically  !
 ! R54   R(17,36)                2.3522         calculate D2E/DX2 analytically  !
 ! R55   R(18,19)                2.5581         calculate D2E/DX2 analytically  !
 ! R56   R(18,20)                2.507          calculate D2E/DX2 analytically  !
 ! R57   R(18,39)                2.9029         calculate D2E/DX2 analytically  !
 ! R58   R(18,40)                2.3262         calculate D2E/DX2 analytically  !
 ! R59   R(19,42)                2.2147         calculate D2E/DX2 analytically  !
 ! R60   R(20,42)                2.3282         calculate D2E/DX2 analytically  !
 ! R61   R(21,22)                2.413          calculate D2E/DX2 analytically  !
 ! R62   R(21,23)                2.479          calculate D2E/DX2 analytically  !
 ! R63   R(21,49)                2.6172         calculate D2E/DX2 analytically  !
 ! R64   R(21,51)                2.846          calculate D2E/DX2 analytically  !
 ! R65   R(22,51)                2.2518         calculate D2E/DX2 analytically  !
 ! R66   R(23,48)                2.3131         calculate D2E/DX2 analytically  !
 ! R67   R(24,25)                2.5015         calculate D2E/DX2 analytically  !
 ! R68   R(24,26)                2.5282         calculate D2E/DX2 analytically  !
 ! R69   R(24,28)                2.5602         calculate D2E/DX2 analytically  !
 ! R70   R(24,32)                2.6003         calculate D2E/DX2 analytically  !
 ! R71   R(24,33)                2.8293         calculate D2E/DX2 analytically  !
 ! R72   R(24,36)                3.0572         calculate D2E/DX2 analytically  !
 ! R73   R(25,33)                2.3642         calculate D2E/DX2 analytically  !
 ! R74   R(25,36)                2.4123         calculate D2E/DX2 analytically  !
 ! R75   R(26,27)                2.2925         calculate D2E/DX2 analytically  !
 ! R76   R(27,28)                2.3717         calculate D2E/DX2 analytically  !
 ! R77   R(27,29)                2.4214         calculate D2E/DX2 analytically  !
 ! R78   R(27,30)                2.8621         calculate D2E/DX2 analytically  !
 ! R79   R(28,30)                2.3379         calculate D2E/DX2 analytically  !
 ! R80   R(29,30)                2.2439         calculate D2E/DX2 analytically  !
 ! R81   R(30,31)                2.1215         calculate D2E/DX2 analytically  !
 ! R82   R(30,32)                2.3522         calculate D2E/DX2 analytically  !
 ! R83   R(32,33)                2.4108         calculate D2E/DX2 analytically  !
 ! R84   R(33,34)                2.1264         calculate D2E/DX2 analytically  !
 ! R85   R(33,35)                2.1688         calculate D2E/DX2 analytically  !
 ! R86   R(36,37)                2.387          calculate D2E/DX2 analytically  !
 ! R87   R(36,38)                2.2085         calculate D2E/DX2 analytically  !
 ! R88   R(37,39)                2.5316         calculate D2E/DX2 analytically  !
 ! R89   R(38,39)                2.6704         calculate D2E/DX2 analytically  !
 ! R90   R(39,40)                2.3273         calculate D2E/DX2 analytically  !
 ! R91   R(39,41)                2.1492         calculate D2E/DX2 analytically  !
 ! R92   R(42,43)                2.1164         calculate D2E/DX2 analytically  !
 ! R93   R(42,44)                2.3962         calculate D2E/DX2 analytically  !
 ! R94   R(44,45)                2.3943         calculate D2E/DX2 analytically  !
 ! R95   R(45,46)                2.3856         calculate D2E/DX2 analytically  !
 ! R96   R(45,47)                2.1179         calculate D2E/DX2 analytically  !
 ! R97   R(46,48)                2.3795         calculate D2E/DX2 analytically  !
 ! R98   R(48,49)                2.1997         calculate D2E/DX2 analytically  !
 ! R99   R(48,50)                2.1115         calculate D2E/DX2 analytically  !
 ! R100  R(51,52)                2.4157         calculate D2E/DX2 analytically  !
 ! R101  R(51,55)                2.3542         calculate D2E/DX2 analytically  !
 ! R102  R(52,53)                1.3498         calculate D2E/DX2 analytically  !
 ! R103  R(52,54)                1.7552         calculate D2E/DX2 analytically  !
 ! R104  R(54,56)                0.902          calculate D2E/DX2 analytically  !
 ! R105  R(55,56)                1.794          calculate D2E/DX2 analytically  !
 ! R106  R(55,57)                1.3516         calculate D2E/DX2 analytically  !
 ! A1    A(2,1,3)               80.215          calculate D2E/DX2 analytically  !
 ! A2    A(2,1,4)               96.6616         calculate D2E/DX2 analytically  !
 ! A3    A(2,1,5)               97.1412         calculate D2E/DX2 analytically  !
 ! A4    A(2,1,23)              79.7326         calculate D2E/DX2 analytically  !
 ! A5    A(2,1,45)             130.4497         calculate D2E/DX2 analytically  !
 ! A6    A(2,1,48)             127.4669         calculate D2E/DX2 analytically  !
 ! A7    A(3,1,4)               96.8125         calculate D2E/DX2 analytically  !
 ! A8    A(3,1,12)             128.8174         calculate D2E/DX2 analytically  !
 ! A9    A(3,1,23)              88.4283         calculate D2E/DX2 analytically  !
 ! A10   A(3,1,46)             101.4267         calculate D2E/DX2 analytically  !
 ! A11   A(3,1,48)             102.4643         calculate D2E/DX2 analytically  !
 ! A12   A(4,1,5)               82.351          calculate D2E/DX2 analytically  !
 ! A13   A(4,1,12)              88.1031         calculate D2E/DX2 analytically  !
 ! A14   A(4,1,45)              86.3735         calculate D2E/DX2 analytically  !
 ! A15   A(4,1,46)              85.521          calculate D2E/DX2 analytically  !
 ! A16   A(4,1,48)             133.9591         calculate D2E/DX2 analytically  !
 ! A17   A(5,1,23)              92.1954         calculate D2E/DX2 analytically  !
 ! A18   A(5,1,45)             132.0882         calculate D2E/DX2 analytically  !
 ! A19   A(5,1,46)              81.2612         calculate D2E/DX2 analytically  !
 ! A20   A(5,1,48)              80.001          calculate D2E/DX2 analytically  !
 ! A21   A(12,1,23)             85.089          calculate D2E/DX2 analytically  !
 ! A22   A(12,1,46)            129.7557         calculate D2E/DX2 analytically  !
 ! A23   A(12,1,48)            110.0958         calculate D2E/DX2 analytically  !
 ! A24   A(23,1,45)            100.4666         calculate D2E/DX2 analytically  !
 ! A25   A(23,1,46)             97.9004         calculate D2E/DX2 analytically  !
 ! A26   A(45,1,48)             75.0964         calculate D2E/DX2 analytically  !
 ! A27   A(1,2,9)               79.7387         calculate D2E/DX2 analytically  !
 ! A28   A(1,3,6)               81.5816         calculate D2E/DX2 analytically  !
 ! A29   A(1,4,6)               80.3603         calculate D2E/DX2 analytically  !
 ! A30   A(1,4,9)               79.4652         calculate D2E/DX2 analytically  !
 ! A31   A(6,4,9)               94.9601         calculate D2E/DX2 analytically  !
 ! A32   A(1,5,21)              84.8315         calculate D2E/DX2 analytically  !
 ! A33   A(3,6,4)              100.6482         calculate D2E/DX2 analytically  !
 ! A34   A(3,6,7)              164.7818         calculate D2E/DX2 analytically  !
 ! A35   A(3,6,8)               86.4182         calculate D2E/DX2 analytically  !
 ! A36   A(3,6,20)              92.4342         calculate D2E/DX2 analytically  !
 ! A37   A(3,6,42)             107.8247         calculate D2E/DX2 analytically  !
 ! A38   A(3,6,44)             106.3453         calculate D2E/DX2 analytically  !
 ! A39   A(4,6,7)               74.965          calculate D2E/DX2 analytically  !
 ! A40   A(4,6,8)               84.3242         calculate D2E/DX2 analytically  !
 ! A41   A(4,6,20)             161.9519         calculate D2E/DX2 analytically  !
 ! A42   A(4,6,42)             133.965          calculate D2E/DX2 analytically  !
 ! A43   A(4,6,44)              86.0844         calculate D2E/DX2 analytically  !
 ! A44   A(4,6,45)              89.4012         calculate D2E/DX2 analytically  !
 ! A45   A(7,6,8)               78.6906         calculate D2E/DX2 analytically  !
 ! A46   A(7,6,20)              89.1788         calculate D2E/DX2 analytically  !
 ! A47   A(7,6,42)              84.792          calculate D2E/DX2 analytically  !
 ! A48   A(7,6,44)              88.0603         calculate D2E/DX2 analytically  !
 ! A49   A(7,6,45)             139.7531         calculate D2E/DX2 analytically  !
 ! A50   A(8,6,20)              84.1423         calculate D2E/DX2 analytically  !
 ! A51   A(8,6,42)             131.938          calculate D2E/DX2 analytically  !
 ! A52   A(8,6,45)             137.3343         calculate D2E/DX2 analytically  !
 ! A53   A(20,6,44)            102.2144         calculate D2E/DX2 analytically  !
 ! A54   A(20,6,45)            108.4538         calculate D2E/DX2 analytically  !
 ! A55   A(42,6,45)             79.9811         calculate D2E/DX2 analytically  !
 ! A56   A(6,7,13)              97.1301         calculate D2E/DX2 analytically  !
 ! A57   A(6,7,18)              85.3294         calculate D2E/DX2 analytically  !
 ! A58   A(6,8,9)               92.6082         calculate D2E/DX2 analytically  !
 ! A59   A(6,8,13)             103.1053         calculate D2E/DX2 analytically  !
 ! A60   A(9,8,13)              96.344          calculate D2E/DX2 analytically  !
 ! A61   A(2,9,4)              102.087          calculate D2E/DX2 analytically  !
 ! A62   A(2,9,8)               82.1007         calculate D2E/DX2 analytically  !
 ! A63   A(2,9,10)             162.9869         calculate D2E/DX2 analytically  !
 ! A64   A(2,9,11)             112.7064         calculate D2E/DX2 analytically  !
 ! A65   A(2,9,26)              84.3618         calculate D2E/DX2 analytically  !
 ! A66   A(2,9,27)              98.9573         calculate D2E/DX2 analytically  !
 ! A67   A(4,9,8)               85.2313         calculate D2E/DX2 analytically  !
 ! A68   A(4,9,10)              84.1033         calculate D2E/DX2 analytically  !
 ! A69   A(4,9,11)              88.8311         calculate D2E/DX2 analytically  !
 ! A70   A(4,9,12)              98.0945         calculate D2E/DX2 analytically  !
 ! A71   A(4,9,26)             163.2216         calculate D2E/DX2 analytically  !
 ! A72   A(4,9,27)             141.8452         calculate D2E/DX2 analytically  !
 ! A73   A(8,9,10)              82.6568         calculate D2E/DX2 analytically  !
 ! A74   A(8,9,11)             164.9513         calculate D2E/DX2 analytically  !
 ! A75   A(8,9,12)             137.1802         calculate D2E/DX2 analytically  !
 ! A76   A(8,9,26)              80.2946         calculate D2E/DX2 analytically  !
 ! A77   A(8,9,27)             129.2399         calculate D2E/DX2 analytically  !
 ! A78   A(10,9,11)             82.9872         calculate D2E/DX2 analytically  !
 ! A79   A(10,9,12)            140.1445         calculate D2E/DX2 analytically  !
 ! A80   A(10,9,26)             85.6643         calculate D2E/DX2 analytically  !
 ! A81   A(10,9,27)             84.9332         calculate D2E/DX2 analytically  !
 ! A82   A(11,9,26)            103.0837         calculate D2E/DX2 analytically  !
 ! A83   A(12,9,26)             98.2851         calculate D2E/DX2 analytically  !
 ! A84   A(12,9,27)             68.8494         calculate D2E/DX2 analytically  !
 ! A85   A(9,10,13)             97.0803         calculate D2E/DX2 analytically  !
 ! A86   A(9,10,24)             93.2477         calculate D2E/DX2 analytically  !
 ! A87   A(13,10,24)            80.2378         calculate D2E/DX2 analytically  !
 ! A88   A(12,11,27)            80.3831         calculate D2E/DX2 analytically  !
 ! A89   A(1,12,9)              65.812          calculate D2E/DX2 analytically  !
 ! A90   A(1,12,11)             99.2329         calculate D2E/DX2 analytically  !
 ! A91   A(1,12,14)             99.8359         calculate D2E/DX2 analytically  !
 ! A92   A(1,12,21)             68.8384         calculate D2E/DX2 analytically  !
 ! A93   A(1,12,51)            127.849          calculate D2E/DX2 analytically  !
 ! A94   A(2,12,5)             107.6308         calculate D2E/DX2 analytically  !
 ! A95   A(2,12,11)            111.3364         calculate D2E/DX2 analytically  !
 ! A96   A(2,12,14)             81.1189         calculate D2E/DX2 analytically  !
 ! A97   A(2,12,15)            127.8479         calculate D2E/DX2 analytically  !
 ! A98   A(2,12,21)             97.9355         calculate D2E/DX2 analytically  !
 ! A99   A(2,12,51)            131.5748         calculate D2E/DX2 analytically  !
 ! A100  A(5,12,9)              96.1977         calculate D2E/DX2 analytically  !
 ! A101  A(5,12,11)             81.4876         calculate D2E/DX2 analytically  !
 ! A102  A(5,12,14)            109.2369         calculate D2E/DX2 analytically  !
 ! A103  A(5,12,15)            124.5199         calculate D2E/DX2 analytically  !
 ! A104  A(5,12,51)             92.3031         calculate D2E/DX2 analytically  !
 ! A105  A(9,12,14)            134.8807         calculate D2E/DX2 analytically  !
 ! A106  A(9,12,15)            113.3526         calculate D2E/DX2 analytically  !
 ! A107  A(9,12,21)            134.6228         calculate D2E/DX2 analytically  !
 ! A108  A(11,12,14)           160.9052         calculate D2E/DX2 analytically  !
 ! A109  A(11,12,15)            78.6165         calculate D2E/DX2 analytically  !
 ! A110  A(11,12,21)           132.7187         calculate D2E/DX2 analytically  !
 ! A111  A(11,12,51)           115.0708         calculate D2E/DX2 analytically  !
 ! A112  A(14,12,15)            82.3006         calculate D2E/DX2 analytically  !
 ! A113  A(15,12,21)           111.8985         calculate D2E/DX2 analytically  !
 ! A114  A(7,13,8)              79.7862         calculate D2E/DX2 analytically  !
 ! A115  A(7,13,10)             77.7854         calculate D2E/DX2 analytically  !
 ! A116  A(7,13,16)             93.7325         calculate D2E/DX2 analytically  !
 ! A117  A(7,13,36)            136.3493         calculate D2E/DX2 analytically  !
 ! A118  A(7,13,37)             81.8066         calculate D2E/DX2 analytically  !
 ! A119  A(7,13,39)             91.2424         calculate D2E/DX2 analytically  !
 ! A120  A(8,13,10)             83.2375         calculate D2E/DX2 analytically  !
 ! A121  A(8,13,16)             80.8661         calculate D2E/DX2 analytically  !
 ! A122  A(8,13,17)             89.1287         calculate D2E/DX2 analytically  !
 ! A123  A(8,13,18)             84.2367         calculate D2E/DX2 analytically  !
 ! A124  A(8,13,36)            143.1834         calculate D2E/DX2 analytically  !
 ! A125  A(8,13,37)            161.3264         calculate D2E/DX2 analytically  !
 ! A126  A(8,13,39)            129.1606         calculate D2E/DX2 analytically  !
 ! A127  A(10,13,16)           163.104          calculate D2E/DX2 analytically  !
 ! A128  A(10,13,17)            99.1339         calculate D2E/DX2 analytically  !
 ! A129  A(10,13,18)           122.4552         calculate D2E/DX2 analytically  !
 ! A130  A(10,13,36)            96.434          calculate D2E/DX2 analytically  !
 ! A131  A(10,13,37)            89.8471         calculate D2E/DX2 analytically  !
 ! A132  A(10,13,39)           143.7518         calculate D2E/DX2 analytically  !
 ! A133  A(16,13,17)            86.3478         calculate D2E/DX2 analytically  !
 ! A134  A(16,13,36)            99.7113         calculate D2E/DX2 analytically  !
 ! A135  A(16,13,37)           103.5238         calculate D2E/DX2 analytically  !
 ! A136  A(17,13,18)           136.5335         calculate D2E/DX2 analytically  !
 ! A137  A(17,13,37)           109.1375         calculate D2E/DX2 analytically  !
 ! A138  A(17,13,39)            97.3224         calculate D2E/DX2 analytically  !
 ! A139  A(18,13,36)           124.4858         calculate D2E/DX2 analytically  !
 ! A140  A(18,13,37)            84.9159         calculate D2E/DX2 analytically  !
 ! A141  A(36,13,39)            67.9838         calculate D2E/DX2 analytically  !
 ! A142  A(12,15,27)            76.4119         calculate D2E/DX2 analytically  !
 ! A143  A(27,15,51)           151.8504         calculate D2E/DX2 analytically  !
 ! A144  A(13,17,24)            80.2124         calculate D2E/DX2 analytically  !
 ! A145  A(7,18,16)            106.2206         calculate D2E/DX2 analytically  !
 ! A146  A(7,18,19)             96.1414         calculate D2E/DX2 analytically  !
 ! A147  A(7,18,20)            101.0325         calculate D2E/DX2 analytically  !
 ! A148  A(7,18,39)            102.4005         calculate D2E/DX2 analytically  !
 ! A149  A(7,18,40)            103.0924         calculate D2E/DX2 analytically  !
 ! A150  A(13,18,19)           151.8169         calculate D2E/DX2 analytically  !
 ! A151  A(13,18,20)           100.6058         calculate D2E/DX2 analytically  !
 ! A152  A(13,18,40)            99.4966         calculate D2E/DX2 analytically  !
 ! A153  A(16,18,19)           156.4545         calculate D2E/DX2 analytically  !
 ! A154  A(16,18,20)            79.9403         calculate D2E/DX2 analytically  !
 ! A155  A(16,18,40)           100.8338         calculate D2E/DX2 analytically  !
 ! A156  A(19,18,20)            88.77           calculate D2E/DX2 analytically  !
 ! A157  A(19,18,39)           131.2875         calculate D2E/DX2 analytically  !
 ! A158  A(19,18,40)            80.7195         calculate D2E/DX2 analytically  !
 ! A159  A(20,18,39)           129.8816         calculate D2E/DX2 analytically  !
 ! A160  A(20,18,40)           154.5418         calculate D2E/DX2 analytically  !
 ! A161  A(18,19,42)            81.3507         calculate D2E/DX2 analytically  !
 ! A162  A(6,20,18)             84.3322         calculate D2E/DX2 analytically  !
 ! A163  A(18,20,42)            80.33           calculate D2E/DX2 analytically  !
 ! A164  A(5,21,14)            111.7562         calculate D2E/DX2 analytically  !
 ! A165  A(5,21,22)             94.8786         calculate D2E/DX2 analytically  !
 ! A166  A(5,21,23)             99.9357         calculate D2E/DX2 analytically  !
 ! A167  A(5,21,49)             88.443          calculate D2E/DX2 analytically  !
 ! A168  A(5,21,51)             97.8545         calculate D2E/DX2 analytically  !
 ! A169  A(12,21,22)           103.7152         calculate D2E/DX2 analytically  !
 ! A170  A(12,21,23)            94.7906         calculate D2E/DX2 analytically  !
 ! A171  A(12,21,49)           143.1231         calculate D2E/DX2 analytically  !
 ! A172  A(14,21,22)           100.9487         calculate D2E/DX2 analytically  !
 ! A173  A(14,21,23)            84.8632         calculate D2E/DX2 analytically  !
 ! A174  A(14,21,49)           159.0437         calculate D2E/DX2 analytically  !
 ! A175  A(22,21,23)           160.8107         calculate D2E/DX2 analytically  !
 ! A176  A(22,21,49)            82.0537         calculate D2E/DX2 analytically  !
 ! A177  A(23,21,49)            86.2021         calculate D2E/DX2 analytically  !
 ! A178  A(23,21,51)           138.2964         calculate D2E/DX2 analytically  !
 ! A179  A(49,21,51)           131.7935         calculate D2E/DX2 analytically  !
 ! A180  A(1,23,21)             81.3376         calculate D2E/DX2 analytically  !
 ! A181  A(21,23,48)            81.8871         calculate D2E/DX2 analytically  !
 ! A182  A(10,24,17)            98.6321         calculate D2E/DX2 analytically  !
 ! A183  A(10,24,25)            83.5503         calculate D2E/DX2 analytically  !
 ! A184  A(10,24,26)            87.3494         calculate D2E/DX2 analytically  !
 ! A185  A(10,24,28)            81.8554         calculate D2E/DX2 analytically  !
 ! A186  A(10,24,33)           135.7469         calculate D2E/DX2 analytically  !
 ! A187  A(10,24,36)            88.473          calculate D2E/DX2 analytically  !
 ! A188  A(17,24,25)            98.9831         calculate D2E/DX2 analytically  !
 ! A189  A(17,24,26)            81.1028         calculate D2E/DX2 analytically  !
 ! A190  A(17,24,32)            86.4562         calculate D2E/DX2 analytically  !
 ! A191  A(17,24,33)            90.4442         calculate D2E/DX2 analytically  !
 ! A192  A(25,24,28)            86.9387         calculate D2E/DX2 analytically  !
 ! A193  A(25,24,32)           104.5067         calculate D2E/DX2 analytically  !
 ! A194  A(26,24,28)            93.0368         calculate D2E/DX2 analytically  !
 ! A195  A(26,24,32)            84.6779         calculate D2E/DX2 analytically  !
 ! A196  A(26,24,33)           136.9034         calculate D2E/DX2 analytically  !
 ! A197  A(26,24,36)           128.4463         calculate D2E/DX2 analytically  !
 ! A198  A(28,24,32)            92.1758         calculate D2E/DX2 analytically  !
 ! A199  A(28,24,33)            93.296          calculate D2E/DX2 analytically  !
 ! A200  A(28,24,36)           136.9703         calculate D2E/DX2 analytically  !
 ! A201  A(32,24,36)           101.4953         calculate D2E/DX2 analytically  !
 ! A202  A(33,24,36)            65.5286         calculate D2E/DX2 analytically  !
 ! A203  A(33,25,36)            83.8443         calculate D2E/DX2 analytically  !
 ! A204  A(9,26,24)             93.0901         calculate D2E/DX2 analytically  !
 ! A205  A(24,26,27)            82.2338         calculate D2E/DX2 analytically  !
 ! A206  A(9,27,15)            101.2605         calculate D2E/DX2 analytically  !
 ! A207  A(9,27,28)            103.6682         calculate D2E/DX2 analytically  !
 ! A208  A(9,27,29)            145.1344         calculate D2E/DX2 analytically  !
 ! A209  A(9,27,30)            136.5754         calculate D2E/DX2 analytically  !
 ! A210  A(11,27,15)            75.3484         calculate D2E/DX2 analytically  !
 ! A211  A(11,27,26)           108.3235         calculate D2E/DX2 analytically  !
 ! A212  A(11,27,28)            86.6366         calculate D2E/DX2 analytically  !
 ! A213  A(11,27,29)           154.8238         calculate D2E/DX2 analytically  !
 ! A214  A(11,27,30)           137.6288         calculate D2E/DX2 analytically  !
 ! A215  A(15,27,26)           124.6215         calculate D2E/DX2 analytically  !
 ! A216  A(15,27,28)           130.5653         calculate D2E/DX2 analytically  !
 ! A217  A(15,27,29)            82.2946         calculate D2E/DX2 analytically  !
 ! A218  A(15,27,30)           121.9656         calculate D2E/DX2 analytically  !
 ! A219  A(26,27,28)           104.6549         calculate D2E/DX2 analytically  !
 ! A220  A(26,27,29)            93.7921         calculate D2E/DX2 analytically  !
 ! A221  A(26,27,30)            92.8571         calculate D2E/DX2 analytically  !
 ! A222  A(28,27,29)            99.5508         calculate D2E/DX2 analytically  !
 ! A223  A(24,28,27)            80.0476         calculate D2E/DX2 analytically  !
 ! A224  A(24,28,30)            81.065          calculate D2E/DX2 analytically  !
 ! A225  A(27,30,31)           134.7282         calculate D2E/DX2 analytically  !
 ! A226  A(27,30,32)           101.4958         calculate D2E/DX2 analytically  !
 ! A227  A(28,30,29)           106.0071         calculate D2E/DX2 analytically  !
 ! A228  A(28,30,31)           110.4782         calculate D2E/DX2 analytically  !
 ! A229  A(28,30,32)           104.8756         calculate D2E/DX2 analytically  !
 ! A230  A(29,30,31)           106.6345         calculate D2E/DX2 analytically  !
 ! A231  A(29,30,32)           103.7748         calculate D2E/DX2 analytically  !
 ! A232  A(31,30,32)           123.7211         calculate D2E/DX2 analytically  !
 ! A233  A(24,32,30)            79.9565         calculate D2E/DX2 analytically  !
 ! A234  A(30,32,33)            97.6177         calculate D2E/DX2 analytically  !
 ! A235  A(24,33,34)           129.7145         calculate D2E/DX2 analytically  !
 ! A236  A(24,33,35)           110.9099         calculate D2E/DX2 analytically  !
 ! A237  A(25,33,32)           115.3286         calculate D2E/DX2 analytically  !
 ! A238  A(25,33,34)           105.672          calculate D2E/DX2 analytically  !
 ! A239  A(25,33,35)           101.0378         calculate D2E/DX2 analytically  !
 ! A240  A(32,33,34)           109.951          calculate D2E/DX2 analytically  !
 ! A241  A(32,33,35)           106.0073         calculate D2E/DX2 analytically  !
 ! A242  A(34,33,35)           118.9739         calculate D2E/DX2 analytically  !
 ! A243  A(13,36,24)            66.2289         calculate D2E/DX2 analytically  !
 ! A244  A(13,36,25)            97.1471         calculate D2E/DX2 analytically  !
 ! A245  A(13,36,38)           115.0156         calculate D2E/DX2 analytically  !
 ! A246  A(17,36,25)           105.2758         calculate D2E/DX2 analytically  !
 ! A247  A(17,36,37)           114.8887         calculate D2E/DX2 analytically  !
 ! A248  A(17,36,38)           115.4648         calculate D2E/DX2 analytically  !
 ! A249  A(24,36,37)           101.5768         calculate D2E/DX2 analytically  !
 ! A250  A(25,36,37)            83.9554         calculate D2E/DX2 analytically  !
 ! A251  A(25,36,38)           137.3422         calculate D2E/DX2 analytically  !
 ! A252  A(37,36,38)            89.8816         calculate D2E/DX2 analytically  !
 ! A253  A(36,37,39)            80.7124         calculate D2E/DX2 analytically  !
 ! A254  A(36,38,39)            80.966          calculate D2E/DX2 analytically  !
 ! A255  A(13,39,38)            93.9929         calculate D2E/DX2 analytically  !
 ! A256  A(13,39,40)           102.0625         calculate D2E/DX2 analytically  !
 ! A257  A(13,39,41)           149.7103         calculate D2E/DX2 analytically  !
 ! A258  A(16,39,37)           105.7576         calculate D2E/DX2 analytically  !
 ! A259  A(16,39,38)           113.5735         calculate D2E/DX2 analytically  !
 ! A260  A(16,39,40)           103.1777         calculate D2E/DX2 analytically  !
 ! A261  A(16,39,41)           101.5305         calculate D2E/DX2 analytically  !
 ! A262  A(18,39,37)            87.8446         calculate D2E/DX2 analytically  !
 ! A263  A(18,39,38)           156.9883         calculate D2E/DX2 analytically  !
 ! A264  A(18,39,41)           119.1464         calculate D2E/DX2 analytically  !
 ! A265  A(37,39,38)            77.2403         calculate D2E/DX2 analytically  !
 ! A266  A(37,39,40)            85.9162         calculate D2E/DX2 analytically  !
 ! A267  A(37,39,41)           149.839          calculate D2E/DX2 analytically  !
 ! A268  A(38,39,40)           142.4493         calculate D2E/DX2 analytically  !
 ! A269  A(38,39,41)            80.2907         calculate D2E/DX2 analytically  !
 ! A270  A(40,39,41)           100.2496         calculate D2E/DX2 analytically  !
 ! A271  A(6,42,19)            112.1952         calculate D2E/DX2 analytically  !
 ! A272  A(6,42,43)            134.5834         calculate D2E/DX2 analytically  !
 ! A273  A(19,42,20)           102.4785         calculate D2E/DX2 analytically  !
 ! A274  A(19,42,43)           113.0506         calculate D2E/DX2 analytically  !
 ! A275  A(19,42,44)           105.9065         calculate D2E/DX2 analytically  !
 ! A276  A(20,42,43)           110.1845         calculate D2E/DX2 analytically  !
 ! A277  A(20,42,44)           111.4044         calculate D2E/DX2 analytically  !
 ! A278  A(43,42,44)           113.2588         calculate D2E/DX2 analytically  !
 ! A279  A(42,44,45)            98.9898         calculate D2E/DX2 analytically  !
 ! A280  A(1,45,6)              68.49           calculate D2E/DX2 analytically  !
 ! A281  A(1,45,44)            106.1155         calculate D2E/DX2 analytically  !
 ! A282  A(1,45,47)            142.6563         calculate D2E/DX2 analytically  !
 ! A283  A(3,45,44)            112.3372         calculate D2E/DX2 analytically  !
 ! A284  A(3,45,46)            112.1916         calculate D2E/DX2 analytically  !
 ! A285  A(3,45,47)            107.6923         calculate D2E/DX2 analytically  !
 ! A286  A(6,45,46)            106.1407         calculate D2E/DX2 analytically  !
 ! A287  A(6,45,47)            133.602          calculate D2E/DX2 analytically  !
 ! A288  A(44,45,46)            92.8858         calculate D2E/DX2 analytically  !
 ! A289  A(44,45,47)           111.2276         calculate D2E/DX2 analytically  !
 ! A290  A(46,45,47)           119.9394         calculate D2E/DX2 analytically  !
 ! A291  A(45,46,48)            98.0433         calculate D2E/DX2 analytically  !
 ! A292  A(1,48,49)            111.9535         calculate D2E/DX2 analytically  !
 ! A293  A(1,48,50)            134.8522         calculate D2E/DX2 analytically  !
 ! A294  A(23,48,46)           110.5135         calculate D2E/DX2 analytically  !
 ! A295  A(23,48,49)           101.0285         calculate D2E/DX2 analytically  !
 ! A296  A(23,48,50)           109.278          calculate D2E/DX2 analytically  !
 ! A297  A(46,48,49)           110.5249         calculate D2E/DX2 analytically  !
 ! A298  A(46,48,50)           112.127          calculate D2E/DX2 analytically  !
 ! A299  A(49,48,50)           112.8264         calculate D2E/DX2 analytically  !
 ! A300  A(21,49,48)            80.9498         calculate D2E/DX2 analytically  !
 ! A301  A(12,51,22)            98.7518         calculate D2E/DX2 analytically  !
 ! A302  A(12,51,52)           125.7854         calculate D2E/DX2 analytically  !
 ! A303  A(12,51,55)           142.1744         calculate D2E/DX2 analytically  !
 ! A304  A(14,51,15)            82.5176         calculate D2E/DX2 analytically  !
 ! A305  A(14,51,22)           106.3299         calculate D2E/DX2 analytically  !
 ! A306  A(14,51,52)           162.9074         calculate D2E/DX2 analytically  !
 ! A307  A(14,51,55)            91.0794         calculate D2E/DX2 analytically  !
 ! A308  A(15,51,21)           106.584          calculate D2E/DX2 analytically  !
 ! A309  A(15,51,22)           134.9232         calculate D2E/DX2 analytically  !
 ! A310  A(15,51,52)            84.9989         calculate D2E/DX2 analytically  !
 ! A311  A(15,51,55)           123.7893         calculate D2E/DX2 analytically  !
 ! A312  A(21,51,52)           141.8048         calculate D2E/DX2 analytically  !
 ! A313  A(21,51,55)           113.9327         calculate D2E/DX2 analytically  !
 ! A314  A(22,51,52)            90.7542         calculate D2E/DX2 analytically  !
 ! A315  A(22,51,55)           100.5486         calculate D2E/DX2 analytically  !
 ! A316  A(52,51,55)            86.1952         calculate D2E/DX2 analytically  !
 ! A317  A(51,52,53)           101.8008         calculate D2E/DX2 analytically  !
 ! A318  A(51,52,54)            93.3728         calculate D2E/DX2 analytically  !
 ! A319  A(53,52,54)            84.1204         calculate D2E/DX2 analytically  !
 ! A320  A(52,54,56)           126.0555         calculate D2E/DX2 analytically  !
 ! A321  A(51,55,56)            93.9606         calculate D2E/DX2 analytically  !
 ! A322  A(51,55,57)            99.7326         calculate D2E/DX2 analytically  !
 ! A323  A(56,55,57)            92.6776         calculate D2E/DX2 analytically  !
 ! A324  A(54,56,55)           128.8092         calculate D2E/DX2 analytically  !
 ! A325  L(2,1,46,3,-1)        181.6417         calculate D2E/DX2 analytically  !
 ! A326  L(3,1,5,2,-1)         177.3562         calculate D2E/DX2 analytically  !
 ! A327  L(4,1,23,2,-1)        176.3941         calculate D2E/DX2 analytically  !
 ! A328  L(12,1,45,4,-1)       174.4765         calculate D2E/DX2 analytically  !
 ! A329  L(8,6,44,3,-1)        192.7636         calculate D2E/DX2 analytically  !
 ! A330  L(1,12,15,9,-1)       179.1645         calculate D2E/DX2 analytically  !
 ! A331  L(9,12,51,5,-1)       188.5008         calculate D2E/DX2 analytically  !
 ! A332  L(7,13,17,8,-1)       168.9149         calculate D2E/DX2 analytically  !
 ! A333  L(10,24,32,17,-1)     185.0883         calculate D2E/DX2 analytically  !
 ! A334  L(17,24,28,10,-1)     180.4875         calculate D2E/DX2 analytically  !
 ! A335  L(25,24,26,10,-1)     170.8996         calculate D2E/DX2 analytically  !
 ! A336  L(24,36,38,37,-1)     191.4584         calculate D2E/DX2 analytically  !
 ! A337  L(2,1,46,3,-2)        182.4056         calculate D2E/DX2 analytically  !
 ! A338  L(3,1,5,2,-2)         181.117          calculate D2E/DX2 analytically  !
 ! A339  L(4,1,23,2,-2)        185.9688         calculate D2E/DX2 analytically  !
 ! A340  L(12,1,45,4,-2)       181.6848         calculate D2E/DX2 analytically  !
 ! A341  L(8,6,44,3,-2)        187.4547         calculate D2E/DX2 analytically  !
 ! A342  L(1,12,15,9,-2)       182.3997         calculate D2E/DX2 analytically  !
 ! A343  L(9,12,51,5,-2)       169.1623         calculate D2E/DX2 analytically  !
 ! A344  L(7,13,17,8,-2)       178.0524         calculate D2E/DX2 analytically  !
 ! A345  L(10,24,32,17,-2)     171.0825         calculate D2E/DX2 analytically  !
 ! A346  L(17,24,28,10,-2)     185.9663         calculate D2E/DX2 analytically  !
 ! A347  L(25,24,26,10,-2)     181.267          calculate D2E/DX2 analytically  !
 ! A348  L(24,36,38,37,-2)     172.2029         calculate D2E/DX2 analytically  !
 ! D1    D(3,1,2,9)           -106.5579         calculate D2E/DX2 analytically  !
 ! D2    D(4,1,2,9)            -10.7583         calculate D2E/DX2 analytically  !
 ! D3    D(5,1,2,9)             72.3252         calculate D2E/DX2 analytically  !
 ! D4    D(23,1,2,9)           163.2729         calculate D2E/DX2 analytically  !
 ! D5    D(45,1,2,9)          -101.6686         calculate D2E/DX2 analytically  !
 ! D6    D(48,1,2,9)           155.1762         calculate D2E/DX2 analytically  !
 ! D7    D(2,1,3,6)            101.5019         calculate D2E/DX2 analytically  !
 ! D8    D(4,1,3,6)              5.8807         calculate D2E/DX2 analytically  !
 ! D9    D(12,1,3,6)            98.9375         calculate D2E/DX2 analytically  !
 ! D10   D(23,1,3,6)          -178.6472         calculate D2E/DX2 analytically  !
 ! D11   D(46,1,3,6)           -80.9037         calculate D2E/DX2 analytically  !
 ! D12   D(48,1,3,6)          -132.0522         calculate D2E/DX2 analytically  !
 ! D13   D(2,1,4,6)            -86.541          calculate D2E/DX2 analytically  !
 ! D14   D(2,1,4,9)             10.3967         calculate D2E/DX2 analytically  !
 ! D15   D(3,1,4,6)             -5.6533         calculate D2E/DX2 analytically  !
 ! D16   D(3,1,4,9)             91.2844         calculate D2E/DX2 analytically  !
 ! D17   D(5,1,4,6)            177.1091         calculate D2E/DX2 analytically  !
 ! D18   D(5,1,4,9)            -85.9532         calculate D2E/DX2 analytically  !
 ! D19   D(12,1,4,6)          -134.533          calculate D2E/DX2 analytically  !
 ! D20   D(12,1,4,9)           -37.5953         calculate D2E/DX2 analytically  !
 ! D21   D(45,1,4,6)            43.7822         calculate D2E/DX2 analytically  !
 ! D22   D(45,1,4,9)           140.7199         calculate D2E/DX2 analytically  !
 ! D23   D(46,1,4,6)            95.3447         calculate D2E/DX2 analytically  !
 ! D24   D(46,1,4,9)          -167.7176         calculate D2E/DX2 analytically  !
 ! D25   D(48,1,4,6)           109.0025         calculate D2E/DX2 analytically  !
 ! D26   D(48,1,4,9)          -154.0598         calculate D2E/DX2 analytically  !
 ! D27   D(2,1,5,21)            70.1455         calculate D2E/DX2 analytically  !
 ! D28   D(4,1,5,21)           165.95           calculate D2E/DX2 analytically  !
 ! D29   D(23,1,5,21)           -9.7779         calculate D2E/DX2 analytically  !
 ! D30   D(45,1,5,21)         -116.014          calculate D2E/DX2 analytically  !
 ! D31   D(46,1,5,21)         -107.4368         calculate D2E/DX2 analytically  !
 ! D32   D(48,1,5,21)          -56.7549         calculate D2E/DX2 analytically  !
 ! D33   D(3,1,12,9)           -60.3916         calculate D2E/DX2 analytically  !
 ! D34   D(3,1,12,11)         -106.3827         calculate D2E/DX2 analytically  !
 ! D35   D(3,1,12,14)           74.6169         calculate D2E/DX2 analytically  !
 ! D36   D(3,1,12,21)          121.2347         calculate D2E/DX2 analytically  !
 ! D37   D(3,1,12,51)          121.5515         calculate D2E/DX2 analytically  !
 ! D38   D(4,1,12,9)            36.8286         calculate D2E/DX2 analytically  !
 ! D39   D(4,1,12,11)           -9.1625         calculate D2E/DX2 analytically  !
 ! D40   D(4,1,12,14)          171.8371         calculate D2E/DX2 analytically  !
 ! D41   D(4,1,12,21)         -141.5451         calculate D2E/DX2 analytically  !
 ! D42   D(4,1,12,51)         -141.2283         calculate D2E/DX2 analytically  !
 ! D43   D(23,1,12,9)         -144.3956         calculate D2E/DX2 analytically  !
 ! D44   D(23,1,12,11)         169.6134         calculate D2E/DX2 analytically  !
 ! D45   D(23,1,12,14)          -9.3871         calculate D2E/DX2 analytically  !
 ! D46   D(23,1,12,21)          37.2308         calculate D2E/DX2 analytically  !
 ! D47   D(23,1,12,51)          37.5476         calculate D2E/DX2 analytically  !
 ! D48   D(46,1,12,9)          119.4059         calculate D2E/DX2 analytically  !
 ! D49   D(46,1,12,11)          73.4149         calculate D2E/DX2 analytically  !
 ! D50   D(46,1,12,14)        -105.5856         calculate D2E/DX2 analytically  !
 ! D51   D(46,1,12,21)         -58.9677         calculate D2E/DX2 analytically  !
 ! D52   D(46,1,12,51)         -58.6509         calculate D2E/DX2 analytically  !
 ! D53   D(48,1,12,9)          173.5001         calculate D2E/DX2 analytically  !
 ! D54   D(48,1,12,11)         127.509          calculate D2E/DX2 analytically  !
 ! D55   D(48,1,12,14)         -51.4914         calculate D2E/DX2 analytically  !
 ! D56   D(48,1,12,21)          -4.8735         calculate D2E/DX2 analytically  !
 ! D57   D(48,1,12,51)          -4.5567         calculate D2E/DX2 analytically  !
 ! D58   D(2,1,23,21)          -87.6249         calculate D2E/DX2 analytically  !
 ! D59   D(3,1,23,21)         -167.9643         calculate D2E/DX2 analytically  !
 ! D60   D(5,1,23,21)            9.2376         calculate D2E/DX2 analytically  !
 ! D61   D(12,1,23,21)         -38.7854         calculate D2E/DX2 analytically  !
 ! D62   D(45,1,23,21)         142.8043         calculate D2E/DX2 analytically  !
 ! D63   D(46,1,23,21)          90.7162         calculate D2E/DX2 analytically  !
 ! D64   D(2,1,45,6)            54.7007         calculate D2E/DX2 analytically  !
 ! D65   D(2,1,45,44)          100.1532         calculate D2E/DX2 analytically  !
 ! D66   D(2,1,45,47)          -80.1687         calculate D2E/DX2 analytically  !
 ! D67   D(4,1,45,6)           -40.9643         calculate D2E/DX2 analytically  !
 ! D68   D(4,1,45,44)            4.4882         calculate D2E/DX2 analytically  !
 ! D69   D(4,1,45,47)         -175.8337         calculate D2E/DX2 analytically  !
 ! D70   D(5,1,45,6)          -117.2571         calculate D2E/DX2 analytically  !
 ! D71   D(5,1,45,44)          -71.8046         calculate D2E/DX2 analytically  !
 ! D72   D(5,1,45,47)          107.8735         calculate D2E/DX2 analytically  !
 ! D73   D(23,1,45,6)          140.0723         calculate D2E/DX2 analytically  !
 ! D74   D(23,1,45,44)        -174.4752         calculate D2E/DX2 analytically  !
 ! D75   D(23,1,45,47)           5.2029         calculate D2E/DX2 analytically  !
 ! D76   D(48,1,45,6)         -178.4085         calculate D2E/DX2 analytically  !
 ! D77   D(48,1,45,44)        -132.956          calculate D2E/DX2 analytically  !
 ! D78   D(48,1,45,47)          46.7221         calculate D2E/DX2 analytically  !
 ! D79   D(2,1,48,49)          -77.9602         calculate D2E/DX2 analytically  !
 ! D80   D(2,1,48,50)           94.3525         calculate D2E/DX2 analytically  !
 ! D81   D(3,1,48,49)         -165.1008         calculate D2E/DX2 analytically  !
 ! D82   D(3,1,48,50)            7.2119         calculate D2E/DX2 analytically  !
 ! D83   D(4,1,48,49)           82.4466         calculate D2E/DX2 analytically  !
 ! D84   D(4,1,48,50)         -105.2407         calculate D2E/DX2 analytically  !
 ! D85   D(5,1,48,49)           13.4103         calculate D2E/DX2 analytically  !
 ! D86   D(5,1,48,50)         -174.277          calculate D2E/DX2 analytically  !
 ! D87   D(12,1,48,49)         -25.2419         calculate D2E/DX2 analytically  !
 ! D88   D(12,1,48,50)         147.0708         calculate D2E/DX2 analytically  !
 ! D89   D(45,1,48,49)         152.1073         calculate D2E/DX2 analytically  !
 ! D90   D(45,1,48,50)         -35.58           calculate D2E/DX2 analytically  !
 ! D91   D(1,2,9,4)             11.0407         calculate D2E/DX2 analytically  !
 ! D92   D(1,2,9,8)             94.4056         calculate D2E/DX2 analytically  !
 ! D93   D(1,2,9,10)           120.9651         calculate D2E/DX2 analytically  !
 ! D94   D(1,2,9,11)           -82.8005         calculate D2E/DX2 analytically  !
 ! D95   D(1,2,9,26)           175.3539         calculate D2E/DX2 analytically  !
 ! D96   D(1,2,9,27)          -136.9383         calculate D2E/DX2 analytically  !
 ! D97   D(1,3,6,4)             -5.9408         calculate D2E/DX2 analytically  !
 ! D98   D(1,3,6,7)            -77.6157         calculate D2E/DX2 analytically  !
 ! D99   D(1,3,6,8)            -89.4757         calculate D2E/DX2 analytically  !
 ! D100  D(1,3,6,20)          -173.4479         calculate D2E/DX2 analytically  !
 ! D101  D(1,3,6,42)           137.4244         calculate D2E/DX2 analytically  !
 ! D102  D(1,3,6,44)            83.0696         calculate D2E/DX2 analytically  !
 ! D103  D(1,4,6,3)              6.0559         calculate D2E/DX2 analytically  !
 ! D104  D(1,4,6,7)            171.1036         calculate D2E/DX2 analytically  !
 ! D105  D(1,4,6,8)             91.3198         calculate D2E/DX2 analytically  !
 ! D106  D(1,4,6,20)           141.8217         calculate D2E/DX2 analytically  !
 ! D107  D(1,4,6,42)          -121.8293         calculate D2E/DX2 analytically  !
 ! D108  D(1,4,6,44)           -99.8559         calculate D2E/DX2 analytically  !
 ! D109  D(1,4,6,45)           -46.4135         calculate D2E/DX2 analytically  !
 ! D110  D(9,4,6,3)            -72.3551         calculate D2E/DX2 analytically  !
 ! D111  D(9,4,6,7)             92.6926         calculate D2E/DX2 analytically  !
 ! D112  D(9,4,6,8)             12.9088         calculate D2E/DX2 analytically  !
 ! D113  D(9,4,6,20)            63.4107         calculate D2E/DX2 analytically  !
 ! D114  D(9,4,6,42)           159.7597         calculate D2E/DX2 analytically  !
 ! D115  D(9,4,6,44)          -178.2669         calculate D2E/DX2 analytically  !
 ! D116  D(9,4,6,45)          -124.8245         calculate D2E/DX2 analytically  !
 ! D117  D(1,4,9,2)            -11.3452         calculate D2E/DX2 analytically  !
 ! D118  D(1,4,9,8)            -92.2021         calculate D2E/DX2 analytically  !
 ! D119  D(1,4,9,10)          -175.2913         calculate D2E/DX2 analytically  !
 ! D120  D(1,4,9,11)           101.6388         calculate D2E/DX2 analytically  !
 ! D121  D(1,4,9,12)            44.8173         calculate D2E/DX2 analytically  !
 ! D122  D(1,4,9,26)          -122.5802         calculate D2E/DX2 analytically  !
 ! D123  D(1,4,9,27)           110.6813         calculate D2E/DX2 analytically  !
 ! D124  D(6,4,9,2)             67.8711         calculate D2E/DX2 analytically  !
 ! D125  D(6,4,9,8)            -12.9858         calculate D2E/DX2 analytically  !
 ! D126  D(6,4,9,10)           -96.0751         calculate D2E/DX2 analytically  !
 ! D127  D(6,4,9,11)          -179.145          calculate D2E/DX2 analytically  !
 ! D128  D(6,4,9,12)           124.0336         calculate D2E/DX2 analytically  !
 ! D129  D(6,4,9,26)           -43.3639         calculate D2E/DX2 analytically  !
 ! D130  D(6,4,9,27)          -170.1025         calculate D2E/DX2 analytically  !
 ! D131  D(1,5,21,14)          -78.1283         calculate D2E/DX2 analytically  !
 ! D132  D(1,5,21,22)          178.0262         calculate D2E/DX2 analytically  !
 ! D133  D(1,5,21,23)           10.2695         calculate D2E/DX2 analytically  !
 ! D134  D(1,5,21,49)           96.1388         calculate D2E/DX2 analytically  !
 ! D135  D(1,5,21,51)         -131.8514         calculate D2E/DX2 analytically  !
 ! D136  D(3,6,7,13)           -20.5461         calculate D2E/DX2 analytically  !
 ! D137  D(3,6,7,18)           -98.9847         calculate D2E/DX2 analytically  !
 ! D138  D(4,6,7,13)           -95.5647         calculate D2E/DX2 analytically  !
 ! D139  D(4,6,7,18)          -174.0033         calculate D2E/DX2 analytically  !
 ! D140  D(8,6,7,13)            -8.4717         calculate D2E/DX2 analytically  !
 ! D141  D(8,6,7,18)           -86.9103         calculate D2E/DX2 analytically  !
 ! D142  D(20,6,7,13)           75.7187         calculate D2E/DX2 analytically  !
 ! D143  D(20,6,7,18)           -2.7199         calculate D2E/DX2 analytically  !
 ! D144  D(42,6,7,13)          126.1655         calculate D2E/DX2 analytically  !
 ! D145  D(42,6,7,18)           47.7269         calculate D2E/DX2 analytically  !
 ! D146  D(44,6,7,13)          177.9699         calculate D2E/DX2 analytically  !
 ! D147  D(44,6,7,18)           99.5313         calculate D2E/DX2 analytically  !
 ! D148  D(45,6,7,13)         -166.0486         calculate D2E/DX2 analytically  !
 ! D149  D(45,6,7,18)          115.5128         calculate D2E/DX2 analytically  !
 ! D150  D(3,6,8,9)             88.4795         calculate D2E/DX2 analytically  !
 ! D151  D(3,6,8,13)          -174.3874         calculate D2E/DX2 analytically  !
 ! D152  D(4,6,8,9)            -12.606          calculate D2E/DX2 analytically  !
 ! D153  D(4,6,8,13)            84.5272         calculate D2E/DX2 analytically  !
 ! D154  D(7,6,8,9)            -88.3667         calculate D2E/DX2 analytically  !
 ! D155  D(7,6,8,13)             8.7665         calculate D2E/DX2 analytically  !
 ! D156  D(20,6,8,9)          -178.7005         calculate D2E/DX2 analytically  !
 ! D157  D(20,6,8,13)          -81.5673         calculate D2E/DX2 analytically  !
 ! D158  D(42,6,8,9)          -160.6613         calculate D2E/DX2 analytically  !
 ! D159  D(42,6,8,13)          -63.5281         calculate D2E/DX2 analytically  !
 ! D160  D(45,6,8,9)            70.3096         calculate D2E/DX2 analytically  !
 ! D161  D(45,6,8,13)          167.4428         calculate D2E/DX2 analytically  !
 ! D162  D(3,6,20,18)          167.2577         calculate D2E/DX2 analytically  !
 ! D163  D(4,6,20,18)           30.5878         calculate D2E/DX2 analytically  !
 ! D164  D(7,6,20,18)            2.3968         calculate D2E/DX2 analytically  !
 ! D165  D(8,6,20,18)           81.112          calculate D2E/DX2 analytically  !
 ! D166  D(44,6,20,18)         -85.4404         calculate D2E/DX2 analytically  !
 ! D167  D(45,6,20,18)        -140.7277         calculate D2E/DX2 analytically  !
 ! D168  D(3,6,42,19)          168.1535         calculate D2E/DX2 analytically  !
 ! D169  D(3,6,42,43)           -6.6206         calculate D2E/DX2 analytically  !
 ! D170  D(4,6,42,19)          -66.4104         calculate D2E/DX2 analytically  !
 ! D171  D(4,6,42,43)          118.8155         calculate D2E/DX2 analytically  !
 ! D172  D(7,6,42,19)           -3.1421         calculate D2E/DX2 analytically  !
 ! D173  D(7,6,42,43)         -177.9162         calculate D2E/DX2 analytically  !
 ! D174  D(8,6,42,19)           66.5774         calculate D2E/DX2 analytically  !
 ! D175  D(8,6,42,43)         -108.1967         calculate D2E/DX2 analytically  !
 ! D176  D(45,6,42,19)        -145.741          calculate D2E/DX2 analytically  !
 ! D177  D(45,6,42,43)          39.4849         calculate D2E/DX2 analytically  !
 ! D178  D(4,6,45,1)            40.8601         calculate D2E/DX2 analytically  !
 ! D179  D(4,6,45,46)           -2.2916         calculate D2E/DX2 analytically  !
 ! D180  D(4,6,45,47)         -175.5577         calculate D2E/DX2 analytically  !
 ! D181  D(7,6,45,1)           106.4114         calculate D2E/DX2 analytically  !
 ! D182  D(7,6,45,46)           63.2597         calculate D2E/DX2 analytically  !
 ! D183  D(7,6,45,47)         -110.0064         calculate D2E/DX2 analytically  !
 ! D184  D(8,6,45,1)           -40.0909         calculate D2E/DX2 analytically  !
 ! D185  D(8,6,45,46)          -83.2427         calculate D2E/DX2 analytically  !
 ! D186  D(8,6,45,47)          103.4913         calculate D2E/DX2 analytically  !
 ! D187  D(20,6,45,1)         -141.8213         calculate D2E/DX2 analytically  !
 ! D188  D(20,6,45,46)         175.027          calculate D2E/DX2 analytically  !
 ! D189  D(20,6,45,47)           1.7609         calculate D2E/DX2 analytically  !
 ! D190  D(42,6,45,1)          175.8397         calculate D2E/DX2 analytically  !
 ! D191  D(42,6,45,46)         132.6879         calculate D2E/DX2 analytically  !
 ! D192  D(42,6,45,47)         -40.5782         calculate D2E/DX2 analytically  !
 ! D193  D(6,7,13,8)             8.2885         calculate D2E/DX2 analytically  !
 ! D194  D(6,7,13,10)           93.5034         calculate D2E/DX2 analytically  !
 ! D195  D(6,7,13,16)          -71.7263         calculate D2E/DX2 analytically  !
 ! D196  D(6,7,13,36)         -179.9832         calculate D2E/DX2 analytically  !
 ! D197  D(6,7,13,37)         -174.8686         calculate D2E/DX2 analytically  !
 ! D198  D(6,7,13,39)         -121.3475         calculate D2E/DX2 analytically  !
 ! D199  D(6,7,18,16)           85.3507         calculate D2E/DX2 analytically  !
 ! D200  D(6,7,18,19)          -87.201          calculate D2E/DX2 analytically  !
 ! D201  D(6,7,18,20)            2.7406         calculate D2E/DX2 analytically  !
 ! D202  D(6,7,18,39)          138.1181         calculate D2E/DX2 analytically  !
 ! D203  D(6,7,18,40)         -169.0662         calculate D2E/DX2 analytically  !
 ! D204  D(6,8,9,2)            -90.2097         calculate D2E/DX2 analytically  !
 ! D205  D(6,8,9,4)             12.7174         calculate D2E/DX2 analytically  !
 ! D206  D(6,8,9,10)            97.37           calculate D2E/DX2 analytically  !
 ! D207  D(6,8,9,11)            79.8172         calculate D2E/DX2 analytically  !
 ! D208  D(6,8,9,12)           -84.0508         calculate D2E/DX2 analytically  !
 ! D209  D(6,8,9,26)          -175.7995         calculate D2E/DX2 analytically  !
 ! D210  D(6,8,9,27)           174.6477         calculate D2E/DX2 analytically  !
 ! D211  D(13,8,9,2)           166.2906         calculate D2E/DX2 analytically  !
 ! D212  D(13,8,9,4)           -90.7822         calculate D2E/DX2 analytically  !
 ! D213  D(13,8,9,10)           -6.1296         calculate D2E/DX2 analytically  !
 ! D214  D(13,8,9,11)          -23.6825         calculate D2E/DX2 analytically  !
 ! D215  D(13,8,9,12)          172.4495         calculate D2E/DX2 analytically  !
 ! D216  D(13,8,9,26)           80.7008         calculate D2E/DX2 analytically  !
 ! D217  D(13,8,9,27)           71.148          calculate D2E/DX2 analytically  !
 ! D218  D(6,8,13,7)            -9.0768         calculate D2E/DX2 analytically  !
 ! D219  D(6,8,13,10)          -87.825          calculate D2E/DX2 analytically  !
 ! D220  D(6,8,13,16)           86.4301         calculate D2E/DX2 analytically  !
 ! D221  D(6,8,13,17)          172.8708         calculate D2E/DX2 analytically  !
 ! D222  D(6,8,13,18)           35.8936         calculate D2E/DX2 analytically  !
 ! D223  D(6,8,13,36)         -179.538          calculate D2E/DX2 analytically  !
 ! D224  D(6,8,13,37)          -18.8793         calculate D2E/DX2 analytically  !
 ! D225  D(6,8,13,39)           74.1275         calculate D2E/DX2 analytically  !
 ! D226  D(9,8,13,7)            85.1034         calculate D2E/DX2 analytically  !
 ! D227  D(9,8,13,10)            6.3552         calculate D2E/DX2 analytically  !
 ! D228  D(9,8,13,16)         -179.3897         calculate D2E/DX2 analytically  !
 ! D229  D(9,8,13,17)          -92.949          calculate D2E/DX2 analytically  !
 ! D230  D(9,8,13,18)          130.0737         calculate D2E/DX2 analytically  !
 ! D231  D(9,8,13,36)          -85.3578         calculate D2E/DX2 analytically  !
 ! D232  D(9,8,13,37)           75.3009         calculate D2E/DX2 analytically  !
 ! D233  D(9,8,13,39)          168.3077         calculate D2E/DX2 analytically  !
 ! D234  D(2,9,10,13)          -20.1499         calculate D2E/DX2 analytically  !
 ! D235  D(2,9,10,24)           60.4059         calculate D2E/DX2 analytically  !
 ! D236  D(4,9,10,13)           92.3035         calculate D2E/DX2 analytically  !
 ! D237  D(4,9,10,24)          172.8592         calculate D2E/DX2 analytically  !
 ! D238  D(8,9,10,13)            6.3725         calculate D2E/DX2 analytically  !
 ! D239  D(8,9,10,24)           86.9282         calculate D2E/DX2 analytically  !
 ! D240  D(11,9,10,13)        -178.1525         calculate D2E/DX2 analytically  !
 ! D241  D(11,9,10,24)         -97.5968         calculate D2E/DX2 analytically  !
 ! D242  D(12,9,10,13)        -172.1205         calculate D2E/DX2 analytically  !
 ! D243  D(12,9,10,24)         -91.5648         calculate D2E/DX2 analytically  !
 ! D244  D(26,9,10,13)         -74.3804         calculate D2E/DX2 analytically  !
 ! D245  D(26,9,10,24)           6.1754         calculate D2E/DX2 analytically  !
 ! D246  D(27,9,10,13)        -124.2995         calculate D2E/DX2 analytically  !
 ! D247  D(27,9,10,24)         -43.7438         calculate D2E/DX2 analytically  !
 ! D248  D(4,9,12,1)           -37.6746         calculate D2E/DX2 analytically  !
 ! D249  D(4,9,12,5)             8.0304         calculate D2E/DX2 analytically  !
 ! D250  D(4,9,12,14)         -117.1293         calculate D2E/DX2 analytically  !
 ! D251  D(4,9,12,15)          139.9257         calculate D2E/DX2 analytically  !
 ! D252  D(4,9,12,21)          -35.5435         calculate D2E/DX2 analytically  !
 ! D253  D(8,9,12,1)            54.0409         calculate D2E/DX2 analytically  !
 ! D254  D(8,9,12,5)            99.746          calculate D2E/DX2 analytically  !
 ! D255  D(8,9,12,14)          -25.4137         calculate D2E/DX2 analytically  !
 ! D256  D(8,9,12,15)         -128.3587         calculate D2E/DX2 analytically  !
 ! D257  D(8,9,12,21)           56.1721         calculate D2E/DX2 analytically  !
 ! D258  D(10,9,12,1)         -128.1583         calculate D2E/DX2 analytically  !
 ! D259  D(10,9,12,5)          -82.4532         calculate D2E/DX2 analytically  !
 ! D260  D(10,9,12,14)         152.387          calculate D2E/DX2 analytically  !
 ! D261  D(10,9,12,15)          49.442          calculate D2E/DX2 analytically  !
 ! D262  D(10,9,12,21)        -126.0272         calculate D2E/DX2 analytically  !
 ! D263  D(26,9,12,1)          138.6761         calculate D2E/DX2 analytically  !
 ! D264  D(26,9,12,5)         -175.6188         calculate D2E/DX2 analytically  !
 ! D265  D(26,9,12,14)          59.2214         calculate D2E/DX2 analytically  !
 ! D266  D(26,9,12,15)         -43.7236         calculate D2E/DX2 analytically  !
 ! D267  D(26,9,12,21)         140.8073         calculate D2E/DX2 analytically  !
 ! D268  D(27,9,12,1)          179.5184         calculate D2E/DX2 analytically  !
 ! D269  D(27,9,12,5)         -134.7766         calculate D2E/DX2 analytically  !
 ! D270  D(27,9,12,14)         100.0637         calculate D2E/DX2 analytically  !
 ! D271  D(27,9,12,15)          -2.8813         calculate D2E/DX2 analytically  !
 ! D272  D(27,9,12,21)        -178.3505         calculate D2E/DX2 analytically  !
 ! D273  D(2,9,26,24)         -172.1317         calculate D2E/DX2 analytically  !
 ! D274  D(4,9,26,24)          -58.4611         calculate D2E/DX2 analytically  !
 ! D275  D(8,9,26,24)          -89.2097         calculate D2E/DX2 analytically  !
 ! D276  D(10,9,26,24)          -5.9329         calculate D2E/DX2 analytically  !
 ! D277  D(11,9,26,24)          75.8268         calculate D2E/DX2 analytically  !
 ! D278  D(12,9,26,24)         134.1475         calculate D2E/DX2 analytically  !
 ! D279  D(2,9,27,15)           49.7962         calculate D2E/DX2 analytically  !
 ! D280  D(2,9,27,28)         -173.2484         calculate D2E/DX2 analytically  !
 ! D281  D(2,9,27,29)          -42.8761         calculate D2E/DX2 analytically  !
 ! D282  D(2,9,27,30)         -124.854          calculate D2E/DX2 analytically  !
 ! D283  D(4,9,27,15)          -73.1436         calculate D2E/DX2 analytically  !
 ! D284  D(4,9,27,28)           63.8119         calculate D2E/DX2 analytically  !
 ! D285  D(4,9,27,29)         -165.8158         calculate D2E/DX2 analytically  !
 ! D286  D(4,9,27,30)          112.2063         calculate D2E/DX2 analytically  !
 ! D287  D(8,9,27,15)          136.8785         calculate D2E/DX2 analytically  !
 ! D288  D(8,9,27,28)          -86.166          calculate D2E/DX2 analytically  !
 ! D289  D(8,9,27,29)           44.2063         calculate D2E/DX2 analytically  !
 ! D290  D(8,9,27,30)          -37.7716         calculate D2E/DX2 analytically  !
 ! D291  D(10,9,27,15)        -146.8952         calculate D2E/DX2 analytically  !
 ! D292  D(10,9,27,28)          -9.9397         calculate D2E/DX2 analytically  !
 ! D293  D(10,9,27,29)         120.4326         calculate D2E/DX2 analytically  !
 ! D294  D(10,9,27,30)          38.4547         calculate D2E/DX2 analytically  !
 ! D295  D(12,9,27,15)           2.4937         calculate D2E/DX2 analytically  !
 ! D296  D(12,9,27,28)         139.4492         calculate D2E/DX2 analytically  !
 ! D297  D(12,9,27,29)         -90.1785         calculate D2E/DX2 analytically  !
 ! D298  D(12,9,27,30)        -172.1564         calculate D2E/DX2 analytically  !
 ! D299  D(9,10,13,7)          -87.1698         calculate D2E/DX2 analytically  !
 ! D300  D(9,10,13,8)           -6.2044         calculate D2E/DX2 analytically  !
 ! D301  D(9,10,13,16)         -26.0844         calculate D2E/DX2 analytically  !
 ! D302  D(9,10,13,17)          81.8142         calculate D2E/DX2 analytically  !
 ! D303  D(9,10,13,18)         -84.9448         calculate D2E/DX2 analytically  !
 ! D304  D(9,10,13,36)         136.726          calculate D2E/DX2 analytically  !
 ! D305  D(9,10,13,37)        -168.8187         calculate D2E/DX2 analytically  !
 ! D306  D(9,10,13,39)        -162.2342         calculate D2E/DX2 analytically  !
 ! D307  D(24,10,13,7)        -179.2647         calculate D2E/DX2 analytically  !
 ! D308  D(24,10,13,8)         -98.2993         calculate D2E/DX2 analytically  !
 ! D309  D(24,10,13,16)       -118.1794         calculate D2E/DX2 analytically  !
 ! D310  D(24,10,13,17)        -10.2807         calculate D2E/DX2 analytically  !
 ! D311  D(24,10,13,18)       -177.0398         calculate D2E/DX2 analytically  !
 ! D312  D(24,10,13,36)         44.631          calculate D2E/DX2 analytically  !
 ! D313  D(24,10,13,37)         99.0864         calculate D2E/DX2 analytically  !
 ! D314  D(24,10,13,39)        105.6709         calculate D2E/DX2 analytically  !
 ! D315  D(9,10,24,17)         -86.6107         calculate D2E/DX2 analytically  !
 ! D316  D(9,10,24,25)         175.2386         calculate D2E/DX2 analytically  !
 ! D317  D(9,10,24,26)          -6.0284         calculate D2E/DX2 analytically  !
 ! D318  D(9,10,24,28)          87.4229         calculate D2E/DX2 analytically  !
 ! D319  D(9,10,24,33)         173.7725         calculate D2E/DX2 analytically  !
 ! D320  D(9,10,24,36)        -134.6301         calculate D2E/DX2 analytically  !
 ! D321  D(13,10,24,17)         10.0223         calculate D2E/DX2 analytically  !
 ! D322  D(13,10,24,25)        -88.1283         calculate D2E/DX2 analytically  !
 ! D323  D(13,10,24,26)         90.6046         calculate D2E/DX2 analytically  !
 ! D324  D(13,10,24,28)       -175.944          calculate D2E/DX2 analytically  !
 ! D325  D(13,10,24,33)        -89.5944         calculate D2E/DX2 analytically  !
 ! D326  D(13,10,24,36)        -37.997          calculate D2E/DX2 analytically  !
 ! D327  D(27,11,12,1)         128.1757         calculate D2E/DX2 analytically  !
 ! D328  D(27,11,12,2)          73.6045         calculate D2E/DX2 analytically  !
 ! D329  D(27,11,12,5)         179.2883         calculate D2E/DX2 analytically  !
 ! D330  D(27,11,12,14)        -54.8362         calculate D2E/DX2 analytically  !
 ! D331  D(27,11,12,15)        -52.7862         calculate D2E/DX2 analytically  !
 ! D332  D(27,11,12,21)       -162.1717         calculate D2E/DX2 analytically  !
 ! D333  D(27,11,12,51)        -92.1534         calculate D2E/DX2 analytically  !
 ! D334  D(12,11,27,15)         48.2594         calculate D2E/DX2 analytically  !
 ! D335  D(12,11,27,26)        -73.8835         calculate D2E/DX2 analytically  !
 ! D336  D(12,11,27,28)       -178.2136         calculate D2E/DX2 analytically  !
 ! D337  D(12,11,27,29)         76.3791         calculate D2E/DX2 analytically  !
 ! D338  D(12,11,27,30)        169.9515         calculate D2E/DX2 analytically  !
 ! D339  D(2,12,15,27)         -60.4017         calculate D2E/DX2 analytically  !
 ! D340  D(5,12,15,27)         119.105          calculate D2E/DX2 analytically  !
 ! D341  D(9,12,15,27)           3.0215         calculate D2E/DX2 analytically  !
 ! D342  D(11,12,15,27)         47.8731         calculate D2E/DX2 analytically  !
 ! D343  D(14,12,15,27)       -132.8035         calculate D2E/DX2 analytically  !
 ! D344  D(21,12,15,27)        179.5474         calculate D2E/DX2 analytically  !
 ! D345  D(1,12,21,22)         146.3623         calculate D2E/DX2 analytically  !
 ! D346  D(1,12,21,23)         -38.7518         calculate D2E/DX2 analytically  !
 ! D347  D(1,12,21,49)          51.3026         calculate D2E/DX2 analytically  !
 ! D348  D(2,12,21,22)        -167.6006         calculate D2E/DX2 analytically  !
 ! D349  D(2,12,21,23)           7.2854         calculate D2E/DX2 analytically  !
 ! D350  D(2,12,21,49)          97.3398         calculate D2E/DX2 analytically  !
 ! D351  D(9,12,21,22)         144.2776         calculate D2E/DX2 analytically  !
 ! D352  D(9,12,21,23)         -40.8364         calculate D2E/DX2 analytically  !
 ! D353  D(9,12,21,49)          49.218          calculate D2E/DX2 analytically  !
 ! D354  D(11,12,21,22)         63.4427         calculate D2E/DX2 analytically  !
 ! D355  D(11,12,21,23)       -121.6713         calculate D2E/DX2 analytically  !
 ! D356  D(11,12,21,49)        -31.6169         calculate D2E/DX2 analytically  !
 ! D357  D(15,12,21,22)        -31.2393         calculate D2E/DX2 analytically  !
 ! D358  D(15,12,21,23)        143.6467         calculate D2E/DX2 analytically  !
 ! D359  D(15,12,21,49)       -126.2989         calculate D2E/DX2 analytically  !
 ! D360  D(1,12,51,22)          35.0348         calculate D2E/DX2 analytically  !
 ! D361  D(1,12,51,52)         132.3535         calculate D2E/DX2 analytically  !
 ! D362  D(1,12,51,55)         -84.9863         calculate D2E/DX2 analytically  !
 ! D363  D(2,12,51,22)         106.8686         calculate D2E/DX2 analytically  !
 ! D364  D(2,12,51,52)        -155.8127         calculate D2E/DX2 analytically  !
 ! D365  D(2,12,51,55)         -13.1525         calculate D2E/DX2 analytically  !
 ! D366  D(5,12,51,22)          -9.2913         calculate D2E/DX2 analytically  !
 ! D367  D(5,12,51,52)          88.0274         calculate D2E/DX2 analytically  !
 ! D368  D(5,12,51,55)        -129.3124         calculate D2E/DX2 analytically  !
 ! D369  D(11,12,51,22)        -90.9692         calculate D2E/DX2 analytically  !
 ! D370  D(11,12,51,52)          6.3495         calculate D2E/DX2 analytically  !
 ! D371  D(11,12,51,55)        149.0097         calculate D2E/DX2 analytically  !
 ! D372  D(8,13,17,24)          93.0815         calculate D2E/DX2 analytically  !
 ! D373  D(10,13,17,24)         10.0733         calculate D2E/DX2 analytically  !
 ! D374  D(16,13,17,24)        173.9842         calculate D2E/DX2 analytically  !
 ! D375  D(18,13,17,24)        173.7565         calculate D2E/DX2 analytically  !
 ! D376  D(37,13,17,24)        -82.961          calculate D2E/DX2 analytically  !
 ! D377  D(39,13,17,24)       -137.5127         calculate D2E/DX2 analytically  !
 ! D378  D(8,13,18,19)         -92.7003         calculate D2E/DX2 analytically  !
 ! D379  D(8,13,18,20)          14.9511         calculate D2E/DX2 analytically  !
 ! D380  D(8,13,18,40)         179.2483         calculate D2E/DX2 analytically  !
 ! D381  D(10,13,18,19)        -14.4976         calculate D2E/DX2 analytically  !
 ! D382  D(10,13,18,20)         93.1539         calculate D2E/DX2 analytically  !
 ! D383  D(10,13,18,40)       -102.5489         calculate D2E/DX2 analytically  !
 ! D384  D(17,13,18,19)       -175.3059         calculate D2E/DX2 analytically  !
 ! D385  D(17,13,18,20)        -67.6545         calculate D2E/DX2 analytically  !
 ! D386  D(17,13,18,40)         96.6427         calculate D2E/DX2 analytically  !
 ! D387  D(36,13,18,19)        112.2273         calculate D2E/DX2 analytically  !
 ! D388  D(36,13,18,20)       -140.1213         calculate D2E/DX2 analytically  !
 ! D389  D(36,13,18,40)         24.176          calculate D2E/DX2 analytically  !
 ! D390  D(37,13,18,19)         72.0767         calculate D2E/DX2 analytically  !
 ! D391  D(37,13,18,20)        179.7281         calculate D2E/DX2 analytically  !
 ! D392  D(37,13,18,40)        -15.9746         calculate D2E/DX2 analytically  !
 ! D393  D(7,13,36,24)        -115.992          calculate D2E/DX2 analytically  !
 ! D394  D(7,13,36,25)         -72.073          calculate D2E/DX2 analytically  !
 ! D395  D(7,13,36,38)          79.1393         calculate D2E/DX2 analytically  !
 ! D396  D(8,13,36,24)          50.3414         calculate D2E/DX2 analytically  !
 ! D397  D(8,13,36,25)          94.2604         calculate D2E/DX2 analytically  !
 ! D398  D(8,13,36,38)        -114.5273         calculate D2E/DX2 analytically  !
 ! D399  D(10,13,36,24)        -36.9591         calculate D2E/DX2 analytically  !
 ! D400  D(10,13,36,25)          6.9599         calculate D2E/DX2 analytically  !
 ! D401  D(10,13,36,38)        158.1721         calculate D2E/DX2 analytically  !
 ! D402  D(16,13,36,24)        138.0417         calculate D2E/DX2 analytically  !
 ! D403  D(16,13,36,25)       -178.0393         calculate D2E/DX2 analytically  !
 ! D404  D(16,13,36,38)        -26.827          calculate D2E/DX2 analytically  !
 ! D405  D(18,13,36,24)       -174.0674         calculate D2E/DX2 analytically  !
 ! D406  D(18,13,36,25)       -130.1484         calculate D2E/DX2 analytically  !
 ! D407  D(18,13,36,38)         21.0639         calculate D2E/DX2 analytically  !
 ! D408  D(39,13,36,24)        176.9614         calculate D2E/DX2 analytically  !
 ! D409  D(39,13,36,25)       -139.1197         calculate D2E/DX2 analytically  !
 ! D410  D(39,13,36,38)         12.0926         calculate D2E/DX2 analytically  !
 ! D411  D(7,13,39,38)        -149.5793         calculate D2E/DX2 analytically  !
 ! D412  D(7,13,39,40)          -3.7259         calculate D2E/DX2 analytically  !
 ! D413  D(7,13,39,41)         132.8765         calculate D2E/DX2 analytically  !
 ! D414  D(8,13,39,38)         132.6065         calculate D2E/DX2 analytically  !
 ! D415  D(8,13,39,40)         -81.5401         calculate D2E/DX2 analytically  !
 ! D416  D(8,13,39,41)          55.0622         calculate D2E/DX2 analytically  !
 ! D417  D(10,13,39,38)        -78.7464         calculate D2E/DX2 analytically  !
 ! D418  D(10,13,39,40)         67.107          calculate D2E/DX2 analytically  !
[...]
 00004004,0.00000110,-0.00005463,-0.00010277,0.00001763,0.00064732,0.00
 041217,0.00033974,0.00001038,0.00007734,0.00001643,-0.00026365,0.00029
 276,0.00017924,-0.00139472,-0.00035619,-0.00073362,0.00006529,-0.00011
 566,-0.00000451,-0.00541133,0.00117227,-0.00423346,0.00064459,0.001105
 20,-0.00007570,-0.00007401,0.00000841,-0.00005047,-0.00003007,-0.00000
 100,-0.00007062,-0.00014393,0.00008533,-0.00008938,0.00001825,0.000004
 56,0.00008088,0.00003927,-0.00005154,-0.00001231,-0.00146579,-0.000463
 91,0.00054549,-0.00027577,-0.00294168,0.00173190,0.00017665,0.00003891
 ,-0.00003685,-0.00008041,-0.00019011,0.00026705,0.00003775,0.00007973,
 0.00001538,0.00013683,-0.00000498,0.00001967,-0.00029264,0.00022368,-0
 .00131411,0.00009064,0.00011248,-0.00000028,-0.00009390,-0.00024366,0.
 00019350,0.00034425,-0.00021359,-0.00012849,-0.00025206,0.00001453,0.0
 0018958,-0.00006310,-0.00000547,-0.00006591,0.00019588,-0.00001226,-0.
 00012548,-0.00017381,0.00004655,0.00011490,0.00000687,-0.00003052,-0.0
 0000489,-0.00013880,0.00007732,-0.00005542,0.00000517,-0.00000412,0.00
 004054,0.00007631,-0.00002016,0.00002762,-0.00008605,0.00016883,0.0000
 3639,0.00004997,-0.00000833,0.00005211,0.00009949,-0.00011678,0.000019
 78,-0.00015816,-0.00001156,0.00001262,0.00009363,0.00001358,-0.0001162
 1,-0.00001369,0.00003776,0.00005491,-0.00022321,-0.00033579,0.00008860
 ,-0.00000248,0.00012605,0.00016175,0.00012787,0.00005898,-0.00014001,-
 0.00055449,-0.00036007,0.00018760,0.00001544,0.00037434,-0.00007861,0.
 00018063,0.00002490,-0.00020041,-0.04391961,-0.01067173,-0.03935813,-0
 .01875149,-0.00793498,-0.01515754,-0.00049006,0.00056380,0.00126701,0.
 00444160,0.03040182,0.05339369,0.08255863,-0.00023278,-0.00062962,0.00
 168003,0.00014726,-0.00010917,-0.00034210,-0.00001957,0.00011599,-0.00
 030342,-0.00010016,-0.00004271,-0.00005635,0.00002986,0.00030133,-0.00
 008057,-0.00000165,0.00026563,-0.00001282,0.00009147,-0.00001743,0.000
 00519,-0.00018247,0.00022748,0.00020594,-0.00006391,-0.00027773,0.0008
 2630,0.00018538,0.00002171,0.00004110,0.00016273,0.00043520,0.00063725
 ,-0.00267998,0.00158345,-0.00538408,-0.00026349,-0.00018004,-0.0000135
 9,0.00332008,0.00036384,0.00204067,-0.00108900,0.00239920,0.00012678,0
 .00004851,0.00003287,0.00002850,0.00008177,-0.00001642,0.00002729,-0.0
 0003991,0.00009766,-0.00004378,0.00000026,-0.00001352,0.00003070,0.000
 05100,-0.00001878,-0.00003734,0.00161529,-0.00117638,-0.00217383,-0.00
 481782,-0.00317085,-0.00057949,0.00000243,-0.00011227,-0.00004852,-0.0
 0037884,0.00020576,-0.00021185,0.00002623,-0.00005056,-0.00001569,-0.0
 0003669,-0.00003596,-0.00005203,0.00082496,0.00056573,-0.00063023,-0.0
 0008056,-0.00017231,0.00002344,-0.00019610,-0.00067343,0.00010674,-0.0
 0035196,0.00001715,0.00005202,0.00020689,-0.00002974,-0.00005720,-0.00
 002825,-0.00000586,0.00000228,-0.00001488,-0.00002898,0.00007676,0.000
 04942,-0.00001153,-0.00002925,-0.00004227,0.00002716,-0.00001342,0.000
 18221,-0.00009200,0.00011707,0.00000377,0.00002350,0.00002862,-0.00010
 571,0.00004007,-0.00003836,0.00007029,0.00000647,-0.00005581,0.0000093
 5,-0.00001484,-0.00000911,-0.00005054,0.00004426,0.00000051,0.00002717
 ,-0.00002963,-0.00006511,-0.00005458,0.00000428,0.00003850,-0.00000129
 ,-0.00003138,-0.00000150,0.00029672,-0.00005031,-0.00007673,0.00006470
 ,-0.00011432,-0.00005966,-0.00003299,0.00002054,0.00010060,-0.00061845
 ,-0.00032361,-0.00017224,-0.00015440,0.00025167,-0.00001446,-0.0000036
 8,0.00003340,-0.00000060,-0.00464008,-0.02108648,-0.00477014,0.0089982
 0,0.00079331,-0.00916050,-0.00101195,-0.00174479,-0.00198831,-0.004999
 06,-0.00710014,-0.01823674,0.03425272,0.27023421,-0.00110249,0.0010217
 5,-0.00202341,0.00004130,-0.00013102,0.00041157,0.00005920,-0.00021562
 ,0.00040220,0.00022592,-0.00007795,0.00015234,0.00044378,0.00015794,0.
 00027579,-0.00000002,-0.00039176,-0.00001977,-0.00009980,0.00004622,0.
 00000326,0.00016702,-0.00022745,-0.00013180,0.00021392,-0.00022770,-0.
 00043970,-0.00011577,0.00001959,-0.00006429,-0.00044407,0.00017204,-0.
 00035054,0.00088761,-0.00095567,0.00172031,0.00027003,0.00015807,0.000
 04658,-0.00139132,0.00148781,0.00013833,-0.00121027,-0.00018499,-0.000
 80547,-0.00004822,-0.00004224,-0.00002091,-0.00004377,-0.00000716,0.00
 000654,0.00016611,-0.00014054,0.00013331,-0.00001331,0.00001329,-0.000
 08201,-0.00009497,0.00007679,0.00007092,-0.00013098,-0.00100845,0.0027
 7007,-0.00122406,-0.00323305,0.00452424,-0.00013944,0.00016737,-0.0001
 7329,-0.00007653,0.00005962,-0.00003181,0.00001672,-0.00001592,-0.0000
 1349,0.00008790,0.00002933,-0.00005640,0.00032040,0.00053756,-0.000747
 59,0.00001433,0.00002027,0.00008163,0.00007378,0.00028683,0.00020639,-
 0.00020525,-0.00011186,0.00011977,0.00014472,-0.00002140,-0.00008560,0
 .00000858,0.00003151,0.00000257,-0.00005000,-0.00001110,0.00004147,0.0
 0004331,-0.00000903,-0.00004502,-0.00000901,0.00001573,-0.00000088,0.0
 0004216,-0.00001214,0.00002552,-0.00001407,0.00001124,-0.00002090,-0.0
 0000417,0.00001787,-0.00001165,-0.00001062,-0.00008362,0.00003271,-0.0
 0004945,0.00001983,-0.00003780,-0.00003831,0.00004994,-0.00002171,0.00
 011004,0.00003690,0.00002217,-0.00003549,-0.00001298,0.00006367,0.0000
 1596,0.00002339,-0.00003065,-0.00016703,0.00019141,-0.00004233,0.00000
 366,0.00018731,0.00007951,-0.00006140,-0.00003123,0.00002428,0.0008621
 3,0.00002266,0.00001794,0.00005891,-0.00005092,-0.00014420,-0.00012711
 ,-0.00006455,0.00021886,-0.02418912,-0.00711063,-0.04984101,0.01277281
 ,-0.00705414,-0.00944087,-0.00016340,-0.00116680,-0.00124405,-0.006488
 78,-0.02004399,-0.03240239,0.01087205,-0.04694188,0.11837103,-0.000610
 67,0.00015422,-0.00041437,0.00035059,-0.00028783,-0.00020150,0.0001096
 5,-0.00003791,0.00012612,0.00007781,0.00002436,0.00005747,-0.00006244,
 -0.00024833,-0.00001132,-0.00004384,-0.00011333,-0.00006715,-0.0000172
 0,0.00002676,0.00000502,-0.00011736,0.00014498,-0.00004574,0.00019051,
 0.00005599,0.00043481,0.00000775,-0.00010943,-0.00013117,0.00056273,-0
 .00051133,-0.00023130,-0.00246525,0.00186245,0.00171914,0.00005514,-0.
 00000358,0.00005402,-0.00070851,0.00080190,0.00152914,0.00142110,-0.00
 137606,0.00072888,0.00003278,-0.00003484,0.00004147,0.00001120,-0.0000
 1359,0.00005903,0.00013727,-0.00005658,0.00011558,-0.00001690,-0.00000
 479,-0.00007992,-0.00002963,0.00005045,0.00000874,-0.00051199,0.000948
 43,0.00016114,0.00018903,-0.00061434,-0.00005305,-0.00018722,-0.000190
 54,0.00006849,-0.00003639,0.00012827,-0.00021456,-0.00001562,-0.000066
 16,-0.00000868,-0.00007016,-0.00000860,0.00000557,0.00006504,-0.000235
 28,0.00001317,0.00002814,0.00007053,0.00002254,-0.00000100,0.00013612,
 0.00011931,-0.00043301,0.00002913,0.00009199,0.00034592,-0.00003825,-0
 .00021365,0.00005267,0.00001477,0.00004899,-0.00015567,0.00002078,0.00
 013301,0.00016132,-0.00004396,-0.00011531,-0.00001584,0.00003956,-0.00
 000111,0.00015098,-0.00010322,0.00008765,-0.00001351,0.00003899,-0.000
 01860,-0.00010180,0.00002670,-0.00004434,0.00007926,-0.00012987,-0.000
 05164,-0.00004905,0.00000666,-0.00006178,-0.00011229,0.00012528,-0.000
 02044,0.00016714,-0.00000059,-0.00002405,-0.00010947,-0.00001191,0.000
 12622,0.00000260,-0.00002096,-0.00003641,0.00019964,0.00017183,-0.0001
 3113,0.00000083,-0.00002164,-0.00005521,-0.00013329,-0.00003149,0.0001
 4087,0.00043473,0.00035554,-0.00021312,0.00021058,-0.00037848,-0.00006
 717,-0.00019063,-0.00004614,0.00028139,-0.02358784,-0.00547001,-0.0132
 7645,0.01146206,0.00652870,0.01373505,0.00062349,0.00041035,-0.0001027
 5,-0.01606145,-0.01857896,-0.03152766,0.00336955,-0.00133477,-0.001496
 51,0.02434989,0.00033655,-0.00008295,0.00013452,-0.00020969,0.00018078
 ,0.00006522,-0.00003402,0.00003553,-0.00002476,-0.00003898,-0.00001532
 ,-0.00003012,0.00004083,0.00010066,0.00000923,0.00002497,0.00003353,0.
 00002845,0.00001098,-0.00001711,-0.00000187,0.00004879,-0.00007463,-0.
 00000278,-0.00004888,0.00008596,-0.00019289,-0.00001067,0.00005233,0.0
 0006355,-0.00031560,0.00027497,0.00024433,0.00167607,-0.00114838,-0.00
 082399,-0.00002022,-0.00000230,-0.00001719,0.00055549,-0.00046589,-0.0
 0049044,-0.00061844,0.00071666,-0.00035835,-0.00001901,0.00001285,-0.0
 0002318,-0.00000901,0.00000773,-0.00003772,-0.00006523,0.00003023,-0.0
 0005078,0.00000801,0.00000231,0.00003723,0.00001567,-0.00002605,-0.000
 00410,0.00012602,-0.00040900,0.00023547,0.00012621,0.00037885,0.000043
 57,0.00006057,0.00000994,0.00001747,0.00001462,-0.00007858,0.00014139,
 0.00001462,0.00003274,0.00000248,0.00004625,-0.00000221,-0.00000023,-0
 .00017575,0.00009623,-0.00009818,0.00002460,0.00001961,-0.00005883,-0.
 00002502,-0.00002430,-0.00002209,0.00021194,-0.00007593,-0.00003543,-0
 .00015298,0.00001672,0.00009516,-0.00002483,-0.00000630,-0.00002926,0.
 00007461,-0.00001040,-0.00006627,-0.00008137,0.00002380,0.00005635,0.0
 0000976,-0.00001811,0.00000023,-0.00007776,0.00005164,-0.00003827,0.00
 000581,-0.00001537,0.00000994,0.00004789,-0.00001360,0.00001985,-0.000
 03984,0.00006424,0.00002498,0.00002412,-0.00000315,0.00002841,0.000053
 65,-0.00005926,0.00000953,-0.00007832,0.00000012,0.00001278,0.00005204
 ,0.00000539,-0.00006063,-0.00000287,0.00001089,0.00001872,-0.00010563,
 -0.00008361,0.00005490,-0.00000024,0.00000918,0.00003341,0.00006319,0.
 00001395,-0.00007055,-0.00021572,-0.00013395,0.00011545,-0.00008218,0.
 00014634,0.00000731,0.00009433,0.00001807,-0.00014170,0.00737850,0.001
 77338,-0.00174329,-0.03270513,-0.01265146,-0.02360488,0.00089313,0.001
 16839,0.00127010,0.01842213,-0.01045196,0.01480629,-0.02063790,-0.0110
 4873,0.01605844,0.01734197,0.03501073,0.00069428,-0.00015004,0.0003471
 0,-0.00045996,0.00039832,0.00014776,-0.00007884,0.00005084,-0.00008983
 ,-0.00008218,-0.00002310,-0.00006591,0.00012070,0.00017356,-0.00003859
 ,0.00003923,0.00008854,0.00006900,0.00001742,-0.00003424,-0.00000422,0
 .00009339,-0.00013671,-0.00000028,-0.00008985,0.00013053,-0.00038306,-
 0.00002399,0.00011390,0.00014551,-0.00061407,0.00050868,0.00043143,0.0
 0323862,-0.00229335,-0.00145655,-0.00003926,0.00000179,-0.00003578,0.0
 0133488,-0.00121373,-0.00068552,-0.00111859,0.00111497,-0.00074997,-0.
 00003507,0.00002911,-0.00004341,-0.00001585,0.00001418,-0.00006713,-0.
 00013743,0.00005690,-0.00010881,0.00001663,0.00000536,0.00007716,0.000
 03141,-0.00005283,-0.00001070,-0.00007280,-0.00026624,0.00029640,0.000
 44304,0.00083575,-0.00072074,0.00012228,-0.00001371,0.00004072,0.00005
 891,-0.00017111,0.00026294,0.00002059,0.00007463,0.00001090,0.00008255
 ,0.00000328,0.00001428,-0.00025852,0.00021671,-0.00014346,0.00000881,-
 0.00000292,-0.00007525,-0.00002006,-0.00008042,-0.00007124,0.00043258,
 -0.00010172,-0.00008614,-0.00033134,0.00003619,0.00020409,-0.00005280,
 -0.00001600,-0.00005472,0.00015942,-0.00001814,-0.00014129,-0.00016816
 ,0.00004789,0.00011679,0.00002100,-0.00004021,0.00000186,-0.00017365,0
 .00010990,-0.00009514,0.00001097,-0.00003610,0.00001620,0.00010760,-0.
 00003073,0.00004499,-0.00008280,0.00012946,0.00005235,0.00004960,-0.00
 000642,0.00006100,0.00011339,-0.00012551,0.00002062,-0.00016697,-0.000
 00069,0.00002703,0.00010989,0.00001119,-0.00012675,-0.00000455,0.00002
 303,0.00003720,-0.00021210,-0.00017497,0.00012293,-0.00000447,0.000008
 22,0.00006836,0.00013132,0.00002923,-0.00014780,-0.00044423,-0.0002499
 5,0.00023730,-0.00016526,0.00028448,0.00002322,0.00018697,0.00003493,-
 0.00027993,0.01049700,-0.00043392,0.00291118,-0.05009435,-0.02420938,-
 0.03452787,0.00101895,0.00136754,0.00247979,0.02879009,0.01532855,0.00
 653902,-0.01754603,0.00703162,-0.00060269,0.02835489,0.00083076,0.0256
 9185,-0.00027444,-0.00013418,0.00042503,-0.00000256,-0.00002438,-0.000
 04340,-0.00000429,0.00004280,-0.00004592,0.00000824,0.00002977,-0.0000
 3817,-0.00002927,0.00011931,-0.00003778,0.00001203,0.00005308,-0.00000
 193,0.00001237,-0.00000063,0.00000243,-0.00001034,0.00008166,0.0000610
 7,-0.00029183,-0.00020793,0.00002033,0.00002794,0.00001146,0.00004472,
 -0.00004619,0.00018035,0.00023328,0.00074290,0.00018143,-0.00148706,-0
 .00007977,-0.00001007,-0.00001642,0.00015687,-0.00052486,0.00064979,-0
 .00027266,0.00032865,-0.00001274,0.00003053,0.00001485,0.00001438,0.00
 002186,0.00000304,0.00000538,-0.00000138,0.00001120,-0.00001557,-0.000
 00126,-0.00000267,0.00000258,0.00000923,-0.00000497,-0.00000782,0.0002
 6002,-0.00008840,0.00037468,-0.00069883,0.00002557,-0.00181821,-0.0000
 4609,0.00000671,0.00004565,-0.00001325,0.00003041,-0.00002747,-0.00000
 385,-0.00001021,-0.00000246,-0.00004699,-0.00000887,-0.00001864,0.0001
 0545,0.00026205,-0.00004181,-0.00005775,-0.00008190,-0.00000472,-0.000
 04361,-0.00013392,-0.00001293,-0.00009114,0.00003620,0.00000316,0.0000
 2861,-0.00000625,-0.00000375,-0.00000426,-0.00000056,0.00000438,-0.000
 01225,-0.00000687,0.00001223,0.00001423,-0.00000251,-0.00000581,-0.000
 00477,0.00000395,-0.00000060,0.00002151,-0.00000624,0.00000462,-0.0000
 0149,-0.00000205,-0.00000245,-0.00001297,0.00000258,-0.00000207,0.0000
 1892,-0.00002117,-0.00001248,-0.00000030,-0.00000258,-0.00000067,-0.00
 001102,0.00001232,0.00000055,0.00000892,-0.00000377,-0.00001016,-0.000
 01153,-0.00000032,0.00000997,0.00000225,-0.00001314,-0.00000799,0.0001
 2126,0.00006466,-0.00001646,0.00003288,-0.00008801,-0.00006387,-0.0000
 1205,-0.00000601,0.00003503,-0.00005681,0.00007999,-0.00006606,0.00005
 180,-0.00002565,-0.00004921,-0.00000977,0.00000279,-0.00000279,-0.0009
 3079,-0.00777379,0.00239105,-0.00101136,-0.00065075,0.00067380,0.00032
 294,0.00035501,0.00035027,0.00115534,-0.00025809,-0.00009512,-0.019906
 40,-0.02712087,0.01132239,0.00100865,0.00799196,-0.00381324,0.01982650
 ,0.00022407,-0.00011533,0.00011168,0.00002367,-0.00004488,-0.00002041,
 0.00001054,0.00004325,-0.00002530,-0.00004888,-0.00000456,-0.00001451,
 -0.00001720,0.00011060,0.00009200,0.00000361,0.00004197,-0.00001739,0.
 00001187,-0.00000588,-0.00000085,-0.00002627,0.00003273,0.00004638,0.0
 0004473,-0.00003691,0.00015502,0.00001815,-0.00001820,0.00001187,0.000
 08280,0.00000064,0.00005700,-0.00088557,0.00034846,-0.00065702,-0.0000
 2343,-0.00002637,-0.00002072,0.00025427,0.00038523,-0.00029281,0.00061
 536,-0.00005486,0.00077850,0.00000530,0.00000136,0.00000561,0.00000295
 ,0.00000537,0.00000216,-0.00002357,0.00002160,-0.00001873,0.00000213,-
 0.00000141,0.00001265,0.00001334,-0.00001144,-0.00000506,0.00041471,-0
 .00023794,-0.00048351,-0.00012066,0.00073074,-0.00034964,0.00000512,0.
 00004662,0.00008760,0.00007729,-0.00002385,0.00001664,-0.00001120,-0.0
 0000085,0.00000473,-0.00000272,-0.00003003,-0.00000296,-0.00006603,0.0
 0015362,-0.00011349,-0.00001031,-0.00000193,0.00001357,-0.00002129,-0.
 00007484,-0.00003692,0.00001487,0.00002018,-0.00002192,-0.00002839,0.0
 0000364,0.00001955,-0.00000069,-0.00000340,0.00000433,0.00000930,0.000
 00857,-0.00000773,-0.00000812,0.00000047,0.00000989,0.00000449,-0.0000
 0540,0.00000128,-0.00001836,0.00000865,-0.00000940,0.00000395,-0.00000
 390,0.00000697,0.00000729,-0.00000779,0.00000485,-0.00000520,0.0000155
 0,-0.00000423,0.00000834,-0.00000279,0.00000525,0.00001019,-0.00001091
 ,0.00000426,-0.00002108,-0.00000446,0.00000079,0.00000953,0.00000225,-
 0.00001412,-0.00000448,0.00000090,0.00000854,-0.00000194,-0.00005414,0
 .00001010,-0.00000956,-0.00000406,0.00000018,0.00001712,0.00000789,-0.
 00001433,-0.00008088,-0.00003821,0.00001906,-0.00002540,0.00002835,0.0
 0002203,0.00002297,0.00000953,-0.00003162,-0.00253018,-0.00448262,-0.0
 0025091,-0.00052437,0.00006351,-0.00061141,-0.00003427,-0.00020127,-0.
 00021260,-0.00014480,0.00069545,0.00041932,-0.02512095,-0.22970236,0.0
 6866509,0.00060802,-0.00346518,0.00079212,0.02728982,0.23588872,0.0002
 2043,-0.00033553,0.00085358,0.00013202,-0.00010642,-0.00012728,-0.0000
 2807,0.00005182,-0.00016933,-0.00006487,0.00001520,-0.00004837,-0.0000
 6737,0.00005115,-0.00005036,0.00000940,0.00015301,0.00000776,0.0000452
 6,-0.00001307,0.00000140,-0.00007601,0.00011389,0.00011143,-0.00004502
 ,-0.00012371,0.00022617,0.00007038,-0.00000718,0.00001277,0.00023281,0
 .00016094,0.00020358,-0.00207322,0.00063331,-0.00182404,-0.00010735,-0
 .00007346,-0.00003147,-0.00011053,-0.00003457,-0.00029999,0.00044606,0
 .00061836,0.00040035,0.00002425,0.00001853,0.00001793,0.00002163,-0.00
 000302,0.00000312,-0.00004549,0.00005335,-0.00003751,0.00000268,-0.000
 00706,0.00002433,0.00002914,-0.00002171,-0.00002743,0.00016472,0.00021
 416,-0.00083169,0.00044879,0.00100468,0.00051505,0.00003488,-0.0000510
 6,-0.00005401,-0.00002693,0.00002268,-0.00003503,-0.00000295,-0.000006
 62,0.00000699,-0.00005017,0.00000548,0.00001376,0.00002502,-0.00005767
 ,-0.00014977,-0.00002538,-0.00004368,0.00001248,-0.00003535,-0.0002054
 6,0.00004480,-0.00007608,0.00004588,-0.00002933,0.00003900,-0.00001173
 ,-0.00001079,0.00000081,-0.00001363,0.00000616,-0.00000024,0.00000120,
 0.00001144,0.00001042,-0.00000463,-0.00000294,-0.00000705,0.00000242,-
 0.00000172,0.00002326,-0.00001680,0.00001899,0.00000553,0.00000454,0.0
 0001328,-0.00002451,0.00000189,-0.00000598,0.00002080,0.00001596,-0.00
 002406,0.00001174,-0.00000745,0.00000517,-0.00000522,0.00000215,0.0000
 0566,-0.00001744,-0.00001251,-0.00002211,-0.00000600,0.00000308,-0.000
 00235,-0.00000250,-0.00001413,0.00000611,0.00009348,-0.00004097,0.0000
 1145,0.00001843,-0.00005470,-0.00003559,0.00000598,0.00000932,0.000014
 27,-0.00033123,-0.00004006,-0.00004952,0.00002533,0.00003660,0.0000118
 6,0.00002470,0.00002495,-0.00004060,0.00121554,-0.00668723,0.00262712,
 -0.00075084,0.00035711,-0.00225952,-0.00030541,-0.00055208,-0.00068026
 ,-0.00036623,0.00107486,0.00173926,0.00950358,0.07844880,-0.03103075,0
 .00064640,-0.00644776,0.00031381,-0.00890101,-0.06815141,0.03064170\\0
 .00000265,-0.00000263,0.00000534,0.00000169,0.00000275,-0.00000301,-0.
 00000055,0.00000088,-0.00000064,0.00000081,-0.00000043,0.00000185,0.00
 000311,0.00000033,0.00000102,0.00000305,-0.00000266,0.00000223,-0.0000
 0152,0.00000140,0.00000056,-0.00000038,-0.00000084,-0.00000038,-0.0000
 0568,-0.00000315,0.00000588,0.00000079,0.00000114,-0.00000057,-0.00000
 303,0.00000208,0.00000145,0.00000745,0.00000165,0.00000753,0.00000295,
 0.00000250,-0.00000044,-0.00000581,-0.00000029,-0.00002095,0.00000817,
 -0.00001240,0.00001703,-0.00000193,-0.00000212,-0.00000017,0.00000020,
 -0.00000094,0.00000020,0.00000037,-0.00000202,0.00000116,0.00000002,-0
 .00000034,0.00000101,-0.00000019,0.00000088,0.00000084,-0.00001143,0.0
 0000157,0.00000049,0.00000828,0.00001240,-0.00000401,0.00000333,0.0000
 0082,-0.00000125,-0.00000099,0.00000012,-0.00000281,-0.00000129,-0.000
 00036,0.00000034,0.00000010,-0.00000131,-0.00000254,0.00000173,0.00000
 281,0.00000229,-0.00000231,0.00000075,0.00000229,-0.00000055,0.0000011
 4,-0.00000367,-0.00000045,0.00000045,0.00000191,-0.00000151,0.00000093
 ,-0.00000099,-0.00000117,-0.00000015,-0.00000023,-0.00000246,0.0000000
 6,0.00000023,-0.00000118,0.00000009,-0.00000075,-0.00000114,-0.0000004
 0,0.00000006,0.00000018,-0.00000091,0.00000120,-0.00000117,-0.00000019
 ,0.00000065,-0.00000083,-0.00000045,0.00000050,-0.00000120,-0.00000149
 ,0.00000148,-0.00000037,-0.00000038,0.00000095,-0.00000073,-0.00000072
 ,0.00000050,0.00000045,-0.00000028,0.00000093,0.00000059,-0.00000083,0
 .00000103,-0.00000003,0.00000002,0.00000129,0.00000202,-0.00000190,-0.
 00000059,0.00000208,0.00000084,0.00000206,0.00000147,0.00000007,0.0000
 0054,-0.00000250,-0.00000153,-0.00000255,-0.00000017,0.00000118,-0.000
 00109,0.00000303,0.00000002,-0.00000050,0.00000854,-0.00000850,-0.0000
 0775,-0.00000543,0.00000495,-0.00000880,-0.00000017,-0.00000107,-0.000
 00234,-0.00000124,-0.00000077,-0.00001646,-0.00000438,-0.00000003,0.00
 000262,-0.00000447,0.00000773,0.00001833,0.00000321,-0.00000048,-0.000
 00327\\\@
 The archive entry for this job was punched.


 Any fool can criticize, condemn, and complain -- and most do.
 -- Dale Carnegie
 Job cpu time:       3 days 17 hours 24 minutes 29.9 seconds.
 Elapsed time:       0 days  1 hours 52 minutes  2.9 seconds.
 File lengths (MBytes):  RWF=   9280 Int=      0 D2E=      0 Chk=    102 Scr=      2
 Normal termination of Gaussian 16 at Mon Dec 26 14:48:49 2022.
