 Entering Gaussian System, Link 0=/apps/GAU16/avx2/g16/g16
 Initial command:
 /apps/GAU16/avx2//g16/l1.exe "/localscratch/chegho/Gau-153304.inp" -scrdir="/localscratch/chegho/"
 Entering Link 1 = /apps/GAU16/avx2//g16/l1.exe PID=    153305.
  
 Copyright (c) 1988-2019, Gaussian, Inc.  All Rights Reserved.
  
 This is part of the Gaussian(R) 16 program.  It is based on
 the Gaussian(R) 09 system (copyright 2009, Gaussian, Inc.),
 the Gaussian(R) 03 system (copyright 2003, Gaussian, Inc.),
 the Gaussian(R) 98 system (copyright 1998, Gaussian, Inc.),
 the Gaussian(R) 94 system (copyright 1995, Gaussian, Inc.),
 the Gaussian 92(TM) system (copyright 1992, Gaussian, Inc.),
 the Gaussian 90(TM) system (copyright 1990, Gaussian, Inc.),
 the Gaussian 88(TM) system (copyright 1988, Gaussian, Inc.),
 the Gaussian 86(TM) system (copyright 1986, Carnegie Mellon
 University), and the Gaussian 82(TM) system (copyright 1983,
 Carnegie Mellon University). Gaussian is a federally registered
 trademark of Gaussian, Inc.
  
 This software contains proprietary and confidential information,
 including trade secrets, belonging to Gaussian, Inc.
  
 This software is provided under written license and may be
 used, copied, transmitted, or stored only in accord with that
 written license.
  
 The following legend is applicable only to US Government
 contracts under FAR:
  
                    RESTRICTED RIGHTS LEGEND
  
 Use, reproduction and disclosure by the US Government is
 subject to restrictions as set forth in subparagraphs (a)
 and (c) of the Commercial Computer Software - Restricted
 Rights clause in FAR 52.227-19.
  
 Gaussian, Inc.
 340 Quinnipiac St., Bldg. 40, Wallingford CT 06492
  
  
 ---------------------------------------------------------------
 Warning -- This program may not be used in any manner that
 competes with the business of Gaussian, Inc. or will provide
 assistance to any competitor of Gaussian, Inc.  The licensee
 of this program is prohibited from giving any competitor of
 Gaussian, Inc. access to this program.  By using this program,
 the user acknowledges that Gaussian, Inc. is engaged in the
 business of creating and licensing software in the field of
 computational chemistry and represents and warrants to the
 licensee that it is not a competitor of Gaussian, Inc. and that
 it will not use this program in any manner prohibited above.
 ---------------------------------------------------------------
  

 Cite this work as:
 Gaussian 16, Revision C.01,
 M. J. Frisch, G. W. Trucks, H. B. Schlegel, G. E. Scuseria, 
 M. A. Robb, J. R. Cheeseman, G. Scalmani, V. Barone, 
 G. A. Petersson, H. Nakatsuji, X. Li, M. Caricato, A. V. Marenich, 
 J. Bloino, B. G. Janesko, R. Gomperts, B. Mennucci, H. P. Hratchian, 
 J. V. Ortiz, A. F. Izmaylov, J. L. Sonnenberg, D. Williams-Young, 
 F. Ding, F. Lipparini, F. Egidi, J. Goings, B. Peng, A. Petrone, 
 T. Henderson, D. Ranasinghe, V. G. Zakrzewski, J. Gao, N. Rega, 
 G. Zheng, W. Liang, M. Hada, M. Ehara, K. Toyota, R. Fukuda, 
 J. Hasegawa, M. Ishida, T. Nakajima, Y. Honda, O. Kitao, H. Nakai, 
 T. Vreven, K. Throssell, J. A. Montgomery, Jr., J. E. Peralta, 
 F. Ogliaro, M. J. Bearpark, J. J. Heyd, E. N. Brothers, K. N. Kudin, 
 V. N. Staroverov, T. A. Keith, R. Kobayashi, J. Normand, 
 K. Raghavachari, A. P. Rendell, J. C. Burant, S. S. Iyengar, 
 J. Tomasi, M. Cossi, J. M. Millam, M. Klene, C. Adamo, R. Cammi, 
 J. W. Ochterski, R. L. Martin, K. Morokuma, O. Farkas, 
 J. B. Foresman, and D. J. Fox, Gaussian, Inc., Wallingford CT, 2019.
 
 ******************************************
 Gaussian 16:  ES64L-G16RevC.01  3-Jul-2019
                26-Dec-2022 
 ******************************************
 %nprocshared=48
 Will use up to   48 processors via shared memory.
 %mem=100GB
 -----------------------------------------------------------
 # opt=(calcfc,ts,noeigen) freq b3lyp/gen nosymm pseudo=read
 -----------------------------------------------------------
 1/5=1,10=4,11=1,18=20,26=3,38=1/1,3;
 2/9=110,12=2,15=1,17=6,18=5,40=1/2;
 3/5=7,11=2,16=1,17=8,25=1,30=1,71=2,74=-5,140=1/1,2,3;
 4//1;
 5/5=2,38=5/2;
 8/6=4,10=90,11=11/1;
 11/6=1,8=1,9=11,15=111,16=1,31=1/1,2,10;
 10/6=1,13=1,31=1/2;
 6/7=2,8=2,9=2,10=2,28=1/1;
 7/10=1,25=1,30=1/1,2,3,16;
 1/5=1,10=4,11=1,18=20,26=3/3(2);
 2/9=110,15=1/2;
 99//99;
 2/9=110,15=1/2;
 3/5=7,6=1,11=2,16=1,17=8,25=1,30=1,71=1,74=-5,82=7/1,2,3;
 4/5=5,16=3,69=1/1;
 5/5=2,38=5/2;
 7/30=1/1,2,3,16;
 1/5=1,11=1,18=20,26=3/3(-5);
 2/9=110,15=1/2;
 6/7=2,8=2,9=2,10=2,19=2,28=1/1;
 99/9=1/99;
 -------------------
 Title Card Required
 -------------------
 Symbolic Z-matrix:
 Charge =  0 Multiplicity = 1
 42                    0.0425    1.54646   12.8734 
 16                    1.34302   3.74116   12.61247 
 16                   -1.83537   3.17198   13.58479 
 16                   -0.66259   1.42549   10.47925 
 16                    1.81715  -0.03355   12.08243 
 42                   -2.58145   2.69338   11.3907 
 16                   -2.91496   2.64055   8.69696 
 16                   -1.16315   4.6613    10.66977 
 42                    0.91995   3.25828   10.33566 
 16                    0.06533   3.30069   7.89952 
 16                    2.66567   1.79782   9.53044 
 42                    2.88914   2.07283   11.97114 
 42                   -1.81943   4.90106   8.17299 
 16                    3.87384   2.44514   14.32564 
 16                    4.85672   3.58417   11.13644 
 16                   -3.61333   6.2545    9.15468 
 16                   -0.55318   6.97848   8.04385 
 42                   -4.59655   4.0393    9.05174 
 16                   -6.28359   2.14785   9.30065 
 16                   -4.4656    4.30546   11.51829 
 42                    2.52307   0.42458   14.26048 
 16                    4.02912  -0.97615   14.83369 
 16                    0.83495   1.90443   15.23981 
 42                    1.15557   5.37022   7.30892 
 16                    0.33333   4.85565   5.00944 
 16                    1.76841   5.50399   9.78701 
 42                    3.43565   4.11681   9.09452 
 16                    3.05557   3.69829   6.79108 
 16                    5.11289   5.82903   8.94941 
 42                    4.29992   5.67165   6.86749 
 16                    5.99534   5.58652   5.59386 
 16                    2.71766   7.42074   6.9714 
 42                    1.62616   6.82983   4.92214 
 16                    3.09524   6.49797   3.41874 
 16                    0.10297   8.34301   4.62054 
 42                   -1.34136   6.33486   5.92516 
 16                   -2.67075   4.36864   5.90063 
 16                   -3.05881   7.51539   5.17285 
 42                   -4.31193   6.00311   6.93702 
 16                   -5.72134   4.16087   7.01562 
 16                   -5.74818   7.59135   6.76542 
 42                   -5.53249   2.23563   11.36471 
 16                   -7.19885   2.01511   12.66882 
 16                   -3.85251   0.547     11.43827 
 42                   -2.95792   1.11354   13.64007 
 16                   -1.32532  -0.5779    13.02647 
 16                   -4.76037   1.26218   14.75805 
 42                   -0.43522  -0.06974   15.14267 
 16                    0.99315  -1.63771   15.56672 
 16                   -2.14401   0.40731   16.37231 
 42                    5.72533   2.41782   12.88402 
 16                    5.93213   0.39129   12.25989 
 16                    7.48569   3.18799   13.79358 
 

 GradGradGradGradGradGradGradGradGradGradGradGradGradGradGradGradGradGrad
 Berny optimization.
 Initialization pass.
                           ----------------------------
                           !    Initial Parameters    !
                           ! (Angstroms and Degrees)  !
 --------------------------                            --------------------------
 ! Name  Definition              Value          Derivative Info.                !
 --------------------------------------------------------------------------------
 ! R1    R(1,2)                  2.5644         calculate D2E/DX2 analytically  !
 ! R2    R(1,3)                  2.5836         calculate D2E/DX2 analytically  !
 ! R3    R(1,4)                  2.4987         calculate D2E/DX2 analytically  !
 ! R4    R(1,5)                  2.5043         calculate D2E/DX2 analytically  !
 ! R5    R(1,12)                 3.0322         calculate D2E/DX2 analytically  !
 ! R6    R(1,21)                 3.0555         calculate D2E/DX2 analytically  !
 ! R7    R(1,23)                 2.5211         calculate D2E/DX2 analytically  !
 ! R8    R(1,46)                 2.5313         calculate D2E/DX2 analytically  !
 ! R9    R(1,48)                 2.8266         calculate D2E/DX2 analytically  !
 ! R10   R(2,9)                  2.3656         calculate D2E/DX2 analytically  !
 ! R11   R(2,12)                 2.3633         calculate D2E/DX2 analytically  !
 ! R12   R(3,6)                  2.3664         calculate D2E/DX2 analytically  !
 ! R13   R(3,45)                 2.3453         calculate D2E/DX2 analytically  !
 ! R14   R(4,6)                  2.4739         calculate D2E/DX2 analytically  !
 ! R15   R(4,9)                  2.4257         calculate D2E/DX2 analytically  !
 ! R16   R(5,12)                 2.3661         calculate D2E/DX2 analytically  !
 ! R17   R(5,21)                 2.335          calculate D2E/DX2 analytically  !
 ! R18   R(6,7)                  2.7148         calculate D2E/DX2 analytically  !
 ! R19   R(6,8)                  2.5306         calculate D2E/DX2 analytically  !
 ! R20   R(6,20)                 2.483          calculate D2E/DX2 analytically  !
 ! R21   R(6,42)                 2.9864         calculate D2E/DX2 analytically  !
 ! R22   R(6,44)                 2.495          calculate D2E/DX2 analytically  !
 ! R23   R(6,45)                 2.7744         calculate D2E/DX2 analytically  !
 ! R24   R(7,13)                 2.5661         calculate D2E/DX2 analytically  !
 ! R25   R(7,18)                 2.2159         calculate D2E/DX2 analytically  !
 ! R26   R(8,9)                  2.5337         calculate D2E/DX2 analytically  !
 ! R27   R(8,13)                 2.5927         calculate D2E/DX2 analytically  !
 ! R28   R(9,10)                 2.582          calculate D2E/DX2 analytically  !
 ! R29   R(9,11)                 2.4143         calculate D2E/DX2 analytically  !
 ! R30   R(9,12)                 2.821          calculate D2E/DX2 analytically  !
 ! R31   R(9,26)                 2.4625         calculate D2E/DX2 analytically  !
 ! R32   R(9,27)                 2.9336         calculate D2E/DX2 analytically  !
 ! R33   R(10,13)                2.4876         calculate D2E/DX2 analytically  !
 ! R34   R(10,24)                2.4125         calculate D2E/DX2 analytically  !
 ! R35   R(11,12)                2.4663         calculate D2E/DX2 analytically  !
 ! R36   R(11,27)                2.4821         calculate D2E/DX2 analytically  !
 ! R37   R(12,14)                2.5791         calculate D2E/DX2 analytically  !
 ! R38   R(12,15)                2.6177         calculate D2E/DX2 analytically  !
 ! R39   R(12,21)                2.8446         calculate D2E/DX2 analytically  !
 ! R40   R(12,51)                2.9994         calculate D2E/DX2 analytically  !
 ! R41   R(13,16)                2.4523         calculate D2E/DX2 analytically  !
 ! R42   R(13,17)                2.4363         calculate D2E/DX2 analytically  !
 ! R43   R(13,18)                3.0376         calculate D2E/DX2 analytically  !
 ! R44   R(13,36)                2.7087         calculate D2E/DX2 analytically  !
 ! R45   R(13,37)                2.4843         calculate D2E/DX2 analytically  !
 ! R46   R(13,39)                2.9924         calculate D2E/DX2 analytically  !
 ! R47   R(14,21)                2.4314         calculate D2E/DX2 analytically  !
 ! R48   R(14,51)                2.3467         calculate D2E/DX2 analytically  !
 ! R49   R(15,27)                2.5441         calculate D2E/DX2 analytically  !
 ! R50   R(15,51)                2.2735         calculate D2E/DX2 analytically  !
 ! R51   R(16,18)                2.4258         calculate D2E/DX2 analytically  !
 ! R52   R(16,39)                2.3386         calculate D2E/DX2 analytically  !
 ! R53   R(17,24)                2.459          calculate D2E/DX2 analytically  !
 ! R54   R(17,36)                2.3504         calculate D2E/DX2 analytically  !
 ! R55   R(18,19)                2.5467         calculate D2E/DX2 analytically  !
 ! R56   R(18,20)                2.4843         calculate D2E/DX2 analytically  !
 ! R57   R(18,39)                2.8999         calculate D2E/DX2 analytically  !
 ! R58   R(18,40)                2.3293         calculate D2E/DX2 analytically  !
 ! R59   R(18,42)                3.0788         calculate D2E/DX2 analytically  !
 ! R60   R(19,42)                2.1982         calculate D2E/DX2 analytically  !
 ! R61   R(20,42)                2.3337         calculate D2E/DX2 analytically  !
 ! R62   R(21,22)                2.1351         calculate D2E/DX2 analytically  !
 ! R63   R(21,23)                2.4492         calculate D2E/DX2 analytically  !
 ! R64   R(23,48)                2.3495         calculate D2E/DX2 analytically  !
 ! R65   R(24,25)                2.4957         calculate D2E/DX2 analytically  !
 ! R66   R(24,26)                2.5563         calculate D2E/DX2 analytically  !
 ! R67   R(24,28)                2.5833         calculate D2E/DX2 analytically  !
 ! R68   R(24,32)                2.5997         calculate D2E/DX2 analytically  !
 ! R69   R(24,33)                2.837          calculate D2E/DX2 analytically  !
 ! R70   R(24,36)                3.0133         calculate D2E/DX2 analytically  !
 ! R71   R(25,33)                2.3614         calculate D2E/DX2 analytically  !
 ! R72   R(25,36)                2.4148         calculate D2E/DX2 analytically  !
 ! R73   R(26,27)                2.2767         calculate D2E/DX2 analytically  !
 ! R74   R(27,28)                2.3718         calculate D2E/DX2 analytically  !
 ! R75   R(27,29)                2.4012         calculate D2E/DX2 analytically  !
 ! R76   R(27,30)                2.8503         calculate D2E/DX2 analytically  !
 ! R77   R(28,30)                2.3342         calculate D2E/DX2 analytically  !
 ! R78   R(29,30)                2.2406         calculate D2E/DX2 analytically  !
 ! R79   R(30,31)                2.1222         calculate D2E/DX2 analytically  !
 ! R80   R(30,32)                2.3609         calculate D2E/DX2 analytically  !
 ! R81   R(32,33)                2.3958         calculate D2E/DX2 analytically  !
 ! R82   R(33,34)                2.128          calculate D2E/DX2 analytically  !
 ! R83   R(33,35)                2.1681         calculate D2E/DX2 analytically  !
 ! R84   R(36,37)                2.3736         calculate D2E/DX2 analytically  !
 ! R85   R(36,38)                2.2157         calculate D2E/DX2 analytically  !
 ! R86   R(37,39)                2.5375         calculate D2E/DX2 analytically  !
 ! R87   R(38,39)                2.64           calculate D2E/DX2 analytically  !
 ! R88   R(39,40)                2.3209         calculate D2E/DX2 analytically  !
 ! R89   R(39,41)                2.1482         calculate D2E/DX2 analytically  !
 ! R90   R(42,43)                2.1275         calculate D2E/DX2 analytically  !
 ! R91   R(42,44)                2.3831         calculate D2E/DX2 analytically  !
 ! R92   R(44,45)                2.4432         calculate D2E/DX2 analytically  !
 ! R93   R(45,46)                2.4296         calculate D2E/DX2 analytically  !
 ! R94   R(45,47)                2.1262         calculate D2E/DX2 analytically  !
 ! R95   R(46,48)                2.3513         calculate D2E/DX2 analytically  !
 ! R96   R(48,49)                2.163          calculate D2E/DX2 analytically  !
 ! R97   R(48,50)                2.1586         calculate D2E/DX2 analytically  !
 ! R98   R(51,52)                2.1305         calculate D2E/DX2 analytically  !
 ! R99   R(51,53)                2.1259         calculate D2E/DX2 analytically  !
 ! A1    A(2,1,3)               81.8459         calculate D2E/DX2 analytically  !
 ! A2    A(2,1,4)               94.9938         calculate D2E/DX2 analytically  !
 ! A3    A(2,1,5)               98.5366         calculate D2E/DX2 analytically  !
 ! A4    A(2,1,21)              87.0598         calculate D2E/DX2 analytically  !
 ! A5    A(2,1,23)              79.3143         calculate D2E/DX2 analytically  !
 ! A6    A(2,1,48)             131.0516         calculate D2E/DX2 analytically  !
 ! A7    A(3,1,4)               95.1168         calculate D2E/DX2 analytically  !
 ! A8    A(3,1,12)             130.9254         calculate D2E/DX2 analytically  !
 ! A9    A(3,1,21)             134.1157         calculate D2E/DX2 analytically  !
 ! A10   A(3,1,23)              83.1468         calculate D2E/DX2 analytically  !
 ! A11   A(3,1,46)              96.8122         calculate D2E/DX2 analytically  !
 ! A12   A(3,1,48)              90.908          calculate D2E/DX2 analytically  !
 ! A13   A(4,1,5)               82.3452         calculate D2E/DX2 analytically  !
 ! A14   A(4,1,12)              89.3244         calculate D2E/DX2 analytically  !
 ! A15   A(4,1,21)             130.2613         calculate D2E/DX2 analytically  !
 ! A16   A(4,1,46)              82.2316         calculate D2E/DX2 analytically  !
 ! A17   A(4,1,48)             133.9349         calculate D2E/DX2 analytically  !
 ! A18   A(5,1,23)              99.3987         calculate D2E/DX2 analytically  !
 ! A19   A(5,1,46)              82.6767         calculate D2E/DX2 analytically  !
 ! A20   A(5,1,48)              90.7212         calculate D2E/DX2 analytically  !
 ! A21   A(12,1,23)             87.6825         calculate D2E/DX2 analytically  !
 ! A22   A(12,1,46)            132.1425         calculate D2E/DX2 analytically  !
 ! A23   A(12,1,48)            119.7883         calculate D2E/DX2 analytically  !
 ! A24   A(21,1,46)             95.9176         calculate D2E/DX2 analytically  !
 ! A25   A(21,1,48)             64.0755         calculate D2E/DX2 analytically  !
 ! A26   A(23,1,46)            103.4298         calculate D2E/DX2 analytically  !
 ! A27   A(1,2,9)               80.3595         calculate D2E/DX2 analytically  !
 ! A28   A(1,3,6)               81.1764         calculate D2E/DX2 analytically  !
 ! A29   A(1,3,45)              78.5898         calculate D2E/DX2 analytically  !
 ! A30   A(1,4,6)               80.8542         calculate D2E/DX2 analytically  !
 ! A31   A(1,4,9)               80.5635         calculate D2E/DX2 analytically  !
 ! A32   A(6,4,9)               98.0827         calculate D2E/DX2 analytically  !
 ! A33   A(3,6,4)              101.5784         calculate D2E/DX2 analytically  !
 ! A34   A(3,6,7)              164.2938         calculate D2E/DX2 analytically  !
 ! A35   A(3,6,8)               85.9951         calculate D2E/DX2 analytically  !
 ! A36   A(3,6,20)              93.4565         calculate D2E/DX2 analytically  !
 ! A37   A(3,6,42)             110.525          calculate D2E/DX2 analytically  !
 ! A38   A(3,6,44)             108.4779         calculate D2E/DX2 analytically  !
 ! A39   A(4,6,7)               73.725          calculate D2E/DX2 analytically  !
 ! A40   A(4,6,8)               81.8872         calculate D2E/DX2 analytically  !
 ! A41   A(4,6,20)             160.0937         calculate D2E/DX2 analytically  !
 ! A42   A(4,6,42)             133.2104         calculate D2E/DX2 analytically  !
 ! A43   A(4,6,44)              87.7809         calculate D2E/DX2 analytically  !
 ! A44   A(4,6,45)              96.4375         calculate D2E/DX2 analytically  !
 ! A45   A(7,6,8)               78.5399         calculate D2E/DX2 analytically  !
 ! A46   A(7,6,20)              88.3036         calculate D2E/DX2 analytically  !
 ! A47   A(7,6,42)              82.3564         calculate D2E/DX2 analytically  !
 ! A48   A(7,6,44)              86.5369         calculate D2E/DX2 analytically  !
 ! A49   A(7,6,45)             140.9606         calculate D2E/DX2 analytically  !
 ! A50   A(8,6,20)              86.2753         calculate D2E/DX2 analytically  !
 ! A51   A(8,6,42)             132.1077         calculate D2E/DX2 analytically  !
 ! A52   A(8,6,44)             163.7308         calculate D2E/DX2 analytically  !
 ! A53   A(8,6,45)             138.5765         calculate D2E/DX2 analytically  !
 ! A54   A(20,6,44)             99.8446         calculate D2E/DX2 analytically  !
 ! A55   A(20,6,45)            103.0074         calculate D2E/DX2 analytically  !
 ! A56   A(42,6,45)             77.6248         calculate D2E/DX2 analytically  !
 ! A57   A(6,7,13)              97.6439         calculate D2E/DX2 analytically  !
 ! A58   A(6,7,18)              85.5309         calculate D2E/DX2 analytically  !
 ! A59   A(6,8,9)               93.884          calculate D2E/DX2 analytically  !
 ! A60   A(6,8,13)             101.7938         calculate D2E/DX2 analytically  !
 ! A61   A(9,8,13)              97.6043         calculate D2E/DX2 analytically  !
 ! A62   A(2,9,4)              102.353          calculate D2E/DX2 analytically  !
 ! A63   A(2,9,8)               84.6687         calculate D2E/DX2 analytically  !
 ! A64   A(2,9,10)             164.5633         calculate D2E/DX2 analytically  !
 ! A65   A(2,9,11)             108.3708         calculate D2E/DX2 analytically  !
 ! A66   A(2,9,26)              88.0897         calculate D2E/DX2 analytically  !
 ! A67   A(2,9,27)             101.1917         calculate D2E/DX2 analytically  !
 ! A68   A(4,9,8)               82.7734         calculate D2E/DX2 analytically  !
 ! A69   A(4,9,10)              81.5076         calculate D2E/DX2 analytically  !
 ! A70   A(4,9,11)              91.9722         calculate D2E/DX2 analytically  !
 ! A71   A(4,9,12)              95.9454         calculate D2E/DX2 analytically  !
 ! A72   A(4,9,26)             157.9722         calculate D2E/DX2 analytically  !
 ! A73   A(4,9,27)             143.6693         calculate D2E/DX2 analytically  !
 ! A74   A(8,9,10)              80.9784         calculate D2E/DX2 analytically  !
 ! A75   A(8,9,12)             136.9011         calculate D2E/DX2 analytically  !
 ! A76   A(8,9,26)              78.9108         calculate D2E/DX2 analytically  !
 ! A77   A(8,9,27)             126.7823         calculate D2E/DX2 analytically  !
 ! A78   A(10,9,11)             86.2495         calculate D2E/DX2 analytically  !
 ! A79   A(10,9,12)            141.7159         calculate D2E/DX2 analytically  !
 ! A80   A(10,9,26)             83.6187         calculate D2E/DX2 analytically  !
 ! A81   A(10,9,27)             83.0999         calculate D2E/DX2 analytically  !
 ! A82   A(11,9,26)            103.1923         calculate D2E/DX2 analytically  !
 ! A83   A(12,9,26)            105.7766         calculate D2E/DX2 analytically  !
 ! A84   A(12,9,27)             76.6825         calculate D2E/DX2 analytically  !
 ! A85   A(9,10,13)             99.0688         calculate D2E/DX2 analytically  !
 ! A86   A(9,10,24)             95.4793         calculate D2E/DX2 analytically  !
 ! A87   A(13,10,24)            79.481          calculate D2E/DX2 analytically  !
 ! A88   A(12,11,27)            92.3792         calculate D2E/DX2 analytically  !
 ! A89   A(1,12,9)              65.8033         calculate D2E/DX2 analytically  !
 ! A90   A(1,12,11)            100.9555         calculate D2E/DX2 analytically  !
 ! A91   A(1,12,14)             96.4217         calculate D2E/DX2 analytically  !
 ! A92   A(1,12,15)            154.2567         calculate D2E/DX2 analytically  !
 ! A93   A(1,12,51)            144.7969         calculate D2E/DX2 analytically  !
 ! A94   A(2,12,5)             108.6194         calculate D2E/DX2 analytically  !
 ! A95   A(2,12,11)            106.7381         calculate D2E/DX2 analytically  !
 ! A96   A(2,12,14)             84.2686         calculate D2E/DX2 analytically  !
 ! A97   A(2,12,15)             99.8288         calculate D2E/DX2 analytically  !
 ! A98   A(2,12,21)             96.1107         calculate D2E/DX2 analytically  !
 ! A99   A(2,12,51)            117.0543         calculate D2E/DX2 analytically  !
 ! A100  A(5,12,9)              94.8824         calculate D2E/DX2 analytically  !
 ! A101  A(5,12,11)             84.6194         calculate D2E/DX2 analytically  !
 ! A102  A(5,12,14)            104.9839         calculate D2E/DX2 analytically  !
 ! A103  A(5,12,15)            150.404          calculate D2E/DX2 analytically  !
 ! A104  A(5,12,51)            121.0973         calculate D2E/DX2 analytically  !
 ! A105  A(9,12,14)            137.3171         calculate D2E/DX2 analytically  !
 ! A106  A(9,12,15)             95.5782         calculate D2E/DX2 analytically  !
 ! A107  A(9,12,21)            128.3347         calculate D2E/DX2 analytically  !
 ! A108  A(9,12,51)            142.0169         calculate D2E/DX2 analytically  !
 ! A109  A(11,12,14)           162.5776         calculate D2E/DX2 analytically  !
 ! A110  A(11,12,15)            79.4512         calculate D2E/DX2 analytically  !
 ! A111  A(11,12,21)           136.0691         calculate D2E/DX2 analytically  !
 ! A112  A(11,12,51)           113.5596         calculate D2E/DX2 analytically  !
 ! A113  A(14,12,15)            85.456          calculate D2E/DX2 analytically  !
 ! A114  A(15,12,21)           133.4634         calculate D2E/DX2 analytically  !
 ! A115  A(21,12,51)            86.7546         calculate D2E/DX2 analytically  !
 ! A116  A(7,13,8)              80.2102         calculate D2E/DX2 analytically  !
 ! A117  A(7,13,10)             77.2431         calculate D2E/DX2 analytically  !
 ! A118  A(7,13,16)             95.2869         calculate D2E/DX2 analytically  !
 ! A119  A(7,13,36)            135.3248         calculate D2E/DX2 analytically  !
 ! A120  A(7,13,37)             81.4702         calculate D2E/DX2 analytically  !
 ! A121  A(7,13,39)             93.0472         calculate D2E/DX2 analytically  !
 ! A122  A(8,13,10)             81.639          calculate D2E/DX2 analytically  !
 ! A123  A(8,13,16)             81.4135         calculate D2E/DX2 analytically  !
 ! A124  A(8,13,17)             89.9048         calculate D2E/DX2 analytically  !
 ! A125  A(8,13,18)             85.7905         calculate D2E/DX2 analytically  !
 ! A126  A(8,13,36)            143.4587         calculate D2E/DX2 analytically  !
 ! A127  A(8,13,37)            161.399          calculate D2E/DX2 analytically  !
 ! A128  A(8,13,39)            129.9892         calculate D2E/DX2 analytically  !
 ! A129  A(10,13,16)           162.424          calculate D2E/DX2 analytically  !
 ! A130  A(10,13,17)            98.5661         calculate D2E/DX2 analytically  !
 ! A131  A(10,13,18)           122.8176         calculate D2E/DX2 analytically  !
 ! A132  A(10,13,36)            96.6374         calculate D2E/DX2 analytically  !
 ! A133  A(10,13,37)            91.2149         calculate D2E/DX2 analytically  !
 ! A134  A(10,13,39)           145.3453         calculate D2E/DX2 analytically  !
 ! A135  A(16,13,17)            86.0326         calculate D2E/DX2 analytically  !
 ! A136  A(16,13,36)            99.7397         calculate D2E/DX2 analytically  !
 ! A137  A(16,13,37)           103.5192         calculate D2E/DX2 analytically  !
 ! A138  A(17,13,18)           137.0878         calculate D2E/DX2 analytically  !
 ! A139  A(17,13,37)           108.2015         calculate D2E/DX2 analytically  !
 ! A140  A(17,13,39)            95.5658         calculate D2E/DX2 analytically  !
 ! A141  A(18,13,36)           123.4764         calculate D2E/DX2 analytically  !
 ! A142  A(18,13,37)            83.7146         calculate D2E/DX2 analytically  !
 ! A143  A(36,13,39)            67.0027         calculate D2E/DX2 analytically  !
 ! A144  A(21,14,51)           114.3421         calculate D2E/DX2 analytically  !
 ! A145  A(12,15,27)            87.5327         calculate D2E/DX2 analytically  !
 ! A146  A(27,15,51)           159.676          calculate D2E/DX2 analytically  !
 ! A147  A(13,17,24)            79.5907         calculate D2E/DX2 analytically  !
 ! A148  A(7,18,16)            106.0006         calculate D2E/DX2 analytically  !
 ! A149  A(7,18,19)             92.8397         calculate D2E/DX2 analytically  !
 ! A150  A(7,18,20)            100.7542         calculate D2E/DX2 analytically  !
 ! A151  A(7,18,39)            103.6642         calculate D2E/DX2 analytically  !
 ! A152  A(7,18,40)            105.0369         calculate D2E/DX2 analytically  !
 ! A153  A(7,18,42)             88.9215         calculate D2E/DX2 analytically  !
 ! A154  A(13,18,19)           147.6301         calculate D2E/DX2 analytically  !
 ! A155  A(13,18,20)           102.0424         calculate D2E/DX2 analytically  !
 ! A156  A(13,18,40)           100.0081         calculate D2E/DX2 analytically  !
 ! A157  A(13,18,42)           131.4106         calculate D2E/DX2 analytically  !
 ! A158  A(16,18,19)           160.4905         calculate D2E/DX2 analytically  !
 ! A159  A(16,18,20)            80.7157         calculate D2E/DX2 analytically  !
 ! A160  A(16,18,40)           100.67           calculate D2E/DX2 analytically  !
 ! A161  A(16,18,42)           128.7786         calculate D2E/DX2 analytically  !
 ! A162  A(19,18,20)            90.9999         calculate D2E/DX2 analytically  !
 ! A163  A(19,18,39)           129.7356         calculate D2E/DX2 analytically  !
 ! A164  A(19,18,40)            78.7154         calculate D2E/DX2 analytically  !
 ! A165  A(20,18,39)           130.2622         calculate D2E/DX2 analytically  !
 ! A166  A(20,18,40)           152.5899         calculate D2E/DX2 analytically  !
 ! A167  A(40,18,42)           122.7161         calculate D2E/DX2 analytically  !
 ! A168  A(6,20,18)             85.378          calculate D2E/DX2 analytically  !
 ! A169  A(1,21,14)             99.0942         calculate D2E/DX2 analytically  !
 ! A170  A(1,21,22)            159.2934         calculate D2E/DX2 analytically  !
 ! A171  A(5,21,14)            110.8553         calculate D2E/DX2 analytically  !
 ! A172  A(5,21,22)            109.57           calculate D2E/DX2 analytically  !
 ! A173  A(5,21,23)            106.448          calculate D2E/DX2 analytically  !
 ! A174  A(12,21,22)           120.359          calculate D2E/DX2 analytically  !
 ! A175  A(12,21,23)            93.4626         calculate D2E/DX2 analytically  !
 ! A176  A(14,21,22)            98.4027         calculate D2E/DX2 analytically  !
 ! A177  A(14,21,23)            82.5347         calculate D2E/DX2 analytically  !
 ! A178  A(22,21,23)           140.8238         calculate D2E/DX2 analytically  !
 ! A179  A(21,23,48)            81.28           calculate D2E/DX2 analytically  !
 ! A180  A(10,24,17)           100.0117         calculate D2E/DX2 analytically  !
 ! A181  A(10,24,25)            84.2496         calculate D2E/DX2 analytically  !
 ! A182  A(10,24,26)            85.1764         calculate D2E/DX2 analytically  !
 ! A183  A(10,24,28)            79.9948         calculate D2E/DX2 analytically  !
 ! A184  A(10,24,33)           136.2409         calculate D2E/DX2 analytically  !
 ! A185  A(10,24,36)            90.72           calculate D2E/DX2 analytically  !
 ! A186  A(17,24,25)           100.4446         calculate D2E/DX2 analytically  !
 ! A187  A(17,24,26)            80.9455         calculate D2E/DX2 analytically  !
 ! A188  A(17,24,32)            86.5876         calculate D2E/DX2 analytically  !
 ! A189  A(17,24,33)            91.7316         calculate D2E/DX2 analytically  !
 ! A190  A(25,24,28)            85.6519         calculate D2E/DX2 analytically  !
 ! A191  A(25,24,32)           103.9436         calculate D2E/DX2 analytically  !
 ! A192  A(26,24,28)            92.9733         calculate D2E/DX2 analytically  !
 ! A193  A(26,24,32)            86.5906         calculate D2E/DX2 analytically  !
 ! A194  A(26,24,33)           138.4939         calculate D2E/DX2 analytically  !
 ! A195  A(26,24,36)           128.8351         calculate D2E/DX2 analytically  !
 ! A196  A(28,24,32)            92.4371         calculate D2E/DX2 analytically  !
 ! A197  A(28,24,33)            92.4265         calculate D2E/DX2 analytically  !
 ! A198  A(28,24,36)           136.4346         calculate D2E/DX2 analytically  !
 ! A199  A(32,24,36)           100.7065         calculate D2E/DX2 analytically  !
 ! A200  A(33,24,36)            65.5693         calculate D2E/DX2 analytically  !
 ! A201  A(33,25,36)            83.2            calculate D2E/DX2 analytically  !
 ! A202  A(9,26,24)             94.914          calculate D2E/DX2 analytically  !
 ! A203  A(24,26,27)            81.3043         calculate D2E/DX2 analytically  !
 ! A204  A(9,27,15)             94.4832         calculate D2E/DX2 analytically  !
 ! A205  A(9,27,28)            102.816          calculate D2E/DX2 analytically  !
 ! A206  A(9,27,29)            146.4317         calculate D2E/DX2 analytically  !
 ! A207  A(9,27,30)            138.6101         calculate D2E/DX2 analytically  !
 ! A208  A(11,27,15)            80.6021         calculate D2E/DX2 analytically  !
 ! A209  A(11,27,26)           106.7782         calculate D2E/DX2 analytically  !
 ! A210  A(11,27,28)            87.4776         calculate D2E/DX2 analytically  !
 ! A211  A(11,27,29)           153.3177         calculate D2E/DX2 analytically  !
 ! A212  A(11,27,30)           137.8125         calculate D2E/DX2 analytically  !
 ! A213  A(15,27,26)           107.0066         calculate D2E/DX2 analytically  !
 ! A214  A(15,27,28)           146.3079         calculate D2E/DX2 analytically  !
 ! A215  A(15,27,29)            78.909          calculate D2E/DX2 analytically  !
 ! A216  A(15,27,30)           124.8852         calculate D2E/DX2 analytically  !
 ! A217  A(26,27,28)           106.5923         calculate D2E/DX2 analytically  !
 ! A218  A(26,27,29)            95.476          calculate D2E/DX2 analytically  !
 ! A219  A(26,27,30)            97.3156         calculate D2E/DX2 analytically  !
 ! A220  A(28,27,29)           100.3154         calculate D2E/DX2 analytically  !
 ! A221  A(24,28,27)            78.9876         calculate D2E/DX2 analytically  !
 ! A222  A(24,28,30)            80.6985         calculate D2E/DX2 analytically  !
 ! A223  A(27,30,31)           133.5723         calculate D2E/DX2 analytically  !
 ! A224  A(27,30,32)            99.5862         calculate D2E/DX2 analytically  !
 ! A225  A(28,30,29)           106.453          calculate D2E/DX2 analytically  !
 ! A226  A(28,30,31)           111.8595         calculate D2E/DX2 analytically  !
 ! A227  A(28,30,32)           105.6939         calculate D2E/DX2 analytically  !
 ! A228  A(29,30,31)           105.6998         calculate D2E/DX2 analytically  !
 ! A229  A(29,30,32)            98.6408         calculate D2E/DX2 analytically  !
 ! A230  A(31,30,32)           126.2674         calculate D2E/DX2 analytically  !
 ! A231  A(24,32,30)            79.8668         calculate D2E/DX2 analytically  !
 ! A232  A(30,32,33)            94.8736         calculate D2E/DX2 analytically  !
 ! A233  A(24,33,34)           128.9493         calculate D2E/DX2 analytically  !
 ! A234  A(24,33,35)           111.0735         calculate D2E/DX2 analytically  !
 ! A235  A(25,33,32)           115.0866         calculate D2E/DX2 analytically  !
 ! A236  A(25,33,34)           105.8841         calculate D2E/DX2 analytically  !
 ! A237  A(25,33,35)           101.7699         calculate D2E/DX2 analytically  !
 ! A238  A(32,33,34)           109.1616         calculate D2E/DX2 analytically  !
 ! A239  A(32,33,35)           105.4806         calculate D2E/DX2 analytically  !
 ! A240  A(34,33,35)           119.7067         calculate D2E/DX2 analytically  !
 ! A241  A(13,36,24)            66.1535         calculate D2E/DX2 analytically  !
 ! A242  A(13,36,25)            96.4793         calculate D2E/DX2 analytically  !
 ! A243  A(13,36,38)           115.2766         calculate D2E/DX2 analytically  !
 ! A244  A(17,36,25)           106.0818         calculate D2E/DX2 analytically  !
 ! A245  A(17,36,37)           115.0853         calculate D2E/DX2 analytically  !
 ! A246  A(17,36,38)           114.8408         calculate D2E/DX2 analytically  !
 ! A247  A(24,36,37)           101.7509         calculate D2E/DX2 analytically  !
 ! A248  A(25,36,37)            82.9387         calculate D2E/DX2 analytically  !
 ! A249  A(25,36,38)           137.3231         calculate D2E/DX2 analytically  !
 ! A250  A(37,36,38)            90.2132         calculate D2E/DX2 analytically  !
 ! A251  A(36,37,39)            79.889          calculate D2E/DX2 analytically  !
 ! A252  A(36,38,39)            80.5508         calculate D2E/DX2 analytically  !
 ! A253  A(13,39,38)            95.2559         calculate D2E/DX2 analytically  !
 ! A254  A(13,39,40)           101.508          calculate D2E/DX2 analytically  !
 ! A255  A(13,39,41)           149.5598         calculate D2E/DX2 analytically  !
 ! A256  A(16,39,37)           105.2681         calculate D2E/DX2 analytically  !
 ! A257  A(16,39,38)           115.487          calculate D2E/DX2 analytically  !
 ! A258  A(16,39,40)           103.5692         calculate D2E/DX2 analytically  !
 ! A259  A(16,39,41)           101.3025         calculate D2E/DX2 analytically  !
 ! A260  A(18,39,37)            85.7057         calculate D2E/DX2 analytically  !
 ! A261  A(18,39,38)           157.1924         calculate D2E/DX2 analytically  !
 ! A262  A(18,39,41)           119.5579         calculate D2E/DX2 analytically  !
 ! A263  A(37,39,38)            77.8219         calculate D2E/DX2 analytically  !
 ! A264  A(37,39,40)            83.9909         calculate D2E/DX2 analytically  !
 ! A265  A(37,39,41)           151.1646         calculate D2E/DX2 analytically  !
 ! A266  A(38,39,40)           139.9587         calculate D2E/DX2 analytically  !
 ! A267  A(38,39,41)            80.8197         calculate D2E/DX2 analytically  !
 ! A268  A(40,39,41)           100.5767         calculate D2E/DX2 analytically  !
 ! A269  A(6,42,18)             67.4402         calculate D2E/DX2 analytically  !
 ! A270  A(6,42,19)            110.6053         calculate D2E/DX2 analytically  !
 ! A271  A(6,42,43)            141.6773         calculate D2E/DX2 analytically  !
 ! A272  A(18,42,43)           139.4063         calculate D2E/DX2 analytically  !
 ! A273  A(18,42,44)           102.9442         calculate D2E/DX2 analytically  !
 ! A274  A(19,42,20)           104.6797         calculate D2E/DX2 analytically  !
 ! A275  A(19,42,43)           107.6863         calculate D2E/DX2 analytically  !
 ! A276  A(19,42,44)           103.9789         calculate D2E/DX2 analytically  !
 ! A277  A(20,42,43)           114.1846         calculate D2E/DX2 analytically  !
 ! A278  A(20,42,44)           107.7077         calculate D2E/DX2 analytically  !
 ! A279  A(43,42,44)           117.3737         calculate D2E/DX2 analytically  !
 ! A280  A(42,44,45)            96.9862         calculate D2E/DX2 analytically  !
 ! A281  A(3,45,44)            110.9493         calculate D2E/DX2 analytically  !
 ! A282  A(3,45,46)            106.4663         calculate D2E/DX2 analytically  !
 ! A283  A(3,45,47)            110.9037         calculate D2E/DX2 analytically  !
 ! A284  A(6,45,46)             95.7672         calculate D2E/DX2 analytically  !
 ! A285  A(6,45,47)            120.1015         calculate D2E/DX2 analytically  !
 ! A286  A(44,45,46)            81.779          calculate D2E/DX2 analytically  !
 ! A287  A(44,45,47)           100.3504         calculate D2E/DX2 analytically  !
 ! A288  A(46,45,47)           138.6863         calculate D2E/DX2 analytically  !
 ! A289  A(1,46,45)             78.1185         calculate D2E/DX2 analytically  !
 ! A290  A(45,46,48)            82.9128         calculate D2E/DX2 analytically  !
 ! A291  A(1,48,49)            117.404          calculate D2E/DX2 analytically  !
 ! A292  A(1,48,50)            117.694          calculate D2E/DX2 analytically  !
 ! A293  A(23,48,46)           115.0526         calculate D2E/DX2 analytically  !
 ! A294  A(23,48,49)           104.1225         calculate D2E/DX2 analytically  !
 ! A295  A(23,48,50)           102.6335         calculate D2E/DX2 analytically  !
 ! A296  A(46,48,49)           105.6498         calculate D2E/DX2 analytically  !
 ! A297  A(46,48,50)           105.1159         calculate D2E/DX2 analytically  !
 ! A298  A(49,48,50)           124.8399         calculate D2E/DX2 analytically  !
 ! A299  A(12,51,52)            83.8702         calculate D2E/DX2 analytically  !
 ! A300  A(12,51,53)           162.7267         calculate D2E/DX2 analytically  !
 ! A301  A(14,51,15)            99.4859         calculate D2E/DX2 analytically  !
 ! A302  A(14,51,52)           105.5226         calculate D2E/DX2 analytically  !
 ! A303  A(14,51,53)           112.7222         calculate D2E/DX2 analytically  !
 ! A304  A(15,51,52)           107.4503         calculate D2E/DX2 analytically  !
 ! A305  A(15,51,53)           117.3477         calculate D2E/DX2 analytically  !
 ! A306  A(52,51,53)           112.927          calculate D2E/DX2 analytically  !
 ! A307  L(2,1,46,3,-1)        178.6581         calculate D2E/DX2 analytically  !
 ! A308  L(3,1,5,2,-1)         180.3825         calculate D2E/DX2 analytically  !
 ! A309  L(4,1,23,2,-1)        174.308          calculate D2E/DX2 analytically  !
 ! A310  L(8,9,11,2,-1)        193.0396         calculate D2E/DX2 analytically  !
 ! A311  L(7,13,17,8,-1)       170.1149         calculate D2E/DX2 analytically  !
 ! A312  L(39,18,42,7,-1)      192.5857         calculate D2E/DX2 analytically  !
 ! A313  L(10,24,32,17,-1)     186.5993         calculate D2E/DX2 analytically  !
 ! A314  L(17,24,28,10,-1)     180.0065         calculate D2E/DX2 analytically  !
 ! A315  L(25,24,26,10,-1)     169.426          calculate D2E/DX2 analytically  !
 ! A316  L(24,36,38,37,-1)     191.9641         calculate D2E/DX2 analytically  !
 ! A317  L(2,1,46,3,-2)        177.0903         calculate D2E/DX2 analytically  !
 ! A318  L(3,1,5,2,-2)         182.5439         calculate D2E/DX2 analytically  !
 ! A319  L(4,1,23,2,-2)        178.9812         calculate D2E/DX2 analytically  !
 ! A320  L(8,9,11,2,-2)        177.693          calculate D2E/DX2 analytically  !
 ! A321  L(7,13,17,8,-2)       177.0702         calculate D2E/DX2 analytically  !
 ! A322  L(39,18,42,7,-2)      183.2612         calculate D2E/DX2 analytically  !
 ! A323  L(10,24,32,17,-2)     170.5062         calculate D2E/DX2 analytically  !
 ! A324  L(17,24,28,10,-2)     186.21           calculate D2E/DX2 analytically  !
 ! A325  L(25,24,26,10,-2)     180.4671         calculate D2E/DX2 analytically  !
 ! A326  L(24,36,38,37,-2)     172.0174         calculate D2E/DX2 analytically  !
 ! D1    D(3,1,2,9)           -104.2186         calculate D2E/DX2 analytically  !
 ! D2    D(4,1,2,9)             -9.7495         calculate D2E/DX2 analytically  !
 ! D3    D(5,1,2,9)             73.2375         calculate D2E/DX2 analytically  !
 ! D4    D(21,1,2,9)           120.424          calculate D2E/DX2 analytically  !
 ! D5    D(23,1,2,9)           171.2693         calculate D2E/DX2 analytically  !
 ! D6    D(48,1,2,9)           171.7253         calculate D2E/DX2 analytically  !
 ! D7    D(2,1,3,6)            102.8107         calculate D2E/DX2 analytically  !
 ! D8    D(2,1,3,45)           176.2419         calculate D2E/DX2 analytically  !
 ! D9    D(4,1,3,6)              8.4832         calculate D2E/DX2 analytically  !
 ! D10   D(4,1,3,45)            81.9143         calculate D2E/DX2 analytically  !
 ! D11   D(12,1,3,6)           102.0358         calculate D2E/DX2 analytically  !
 ! D12   D(12,1,3,45)          175.467          calculate D2E/DX2 analytically  !
 ! D13   D(21,1,3,6)          -179.3764         calculate D2E/DX2 analytically  !
 ! D14   D(21,1,3,45)         -105.9453         calculate D2E/DX2 analytically  !
 ! D15   D(23,1,3,6)          -177.061          calculate D2E/DX2 analytically  !
 ! D16   D(23,1,3,45)         -103.6299         calculate D2E/DX2 analytically  !
 ! D17   D(46,1,3,6)           -74.2796         calculate D2E/DX2 analytically  !
 ! D18   D(46,1,3,45)           -0.8484         calculate D2E/DX2 analytically  !
 ! D19   D(48,1,3,6)          -125.7934         calculate D2E/DX2 analytically  !
 ! D20   D(48,1,3,45)          -52.3623         calculate D2E/DX2 analytically  !
 ! D21   D(2,1,4,6)            -90.3534         calculate D2E/DX2 analytically  !
 ! D22   D(2,1,4,9)              9.4998         calculate D2E/DX2 analytically  !
 ! D23   D(3,1,4,6)             -8.1191         calculate D2E/DX2 analytically  !
 ! D24   D(3,1,4,9)             91.7341         calculate D2E/DX2 analytically  !
 ! D25   D(5,1,4,6)            171.6795         calculate D2E/DX2 analytically  !
 ! D26   D(5,1,4,9)            -88.4673         calculate D2E/DX2 analytically  !
 ! D27   D(12,1,4,6)          -139.1667         calculate D2E/DX2 analytically  !
 ! D28   D(12,1,4,9)           -39.3135         calculate D2E/DX2 analytically  !
 ! D29   D(21,1,4,6)           179.2726         calculate D2E/DX2 analytically  !
 ! D30   D(21,1,4,9)           -80.8742         calculate D2E/DX2 analytically  !
 ! D31   D(46,1,4,6)            88.0796         calculate D2E/DX2 analytically  !
 ! D32   D(46,1,4,9)          -172.0672         calculate D2E/DX2 analytically  !
 ! D33   D(48,1,4,6)            88.1021         calculate D2E/DX2 analytically  !
 ! D34   D(48,1,4,9)          -172.0447         calculate D2E/DX2 analytically  !
 ! D35   D(3,1,12,9)           -60.0902         calculate D2E/DX2 analytically  !
 ! D36   D(3,1,12,11)         -101.8479         calculate D2E/DX2 analytically  !
 ! D37   D(3,1,12,14)           79.4124         calculate D2E/DX2 analytically  !
 ! D38   D(3,1,12,15)          -13.4455         calculate D2E/DX2 analytically  !
 ! D39   D(3,1,12,51)           89.4551         calculate D2E/DX2 analytically  !
 ! D40   D(4,1,12,9)            36.0997         calculate D2E/DX2 analytically  !
 ! D41   D(4,1,12,11)           -5.6579         calculate D2E/DX2 analytically  !
 ! D42   D(4,1,12,14)          175.6023         calculate D2E/DX2 analytically  !
 ! D43   D(4,1,12,15)           82.7445         calculate D2E/DX2 analytically  !
 ! D44   D(4,1,12,51)         -174.3549         calculate D2E/DX2 analytically  !
 ! D45   D(23,1,12,9)         -138.9538         calculate D2E/DX2 analytically  !
 ! D46   D(23,1,12,11)         179.2886         calculate D2E/DX2 analytically  !
 ! D47   D(23,1,12,14)           0.5489         calculate D2E/DX2 analytically  !
 ! D48   D(23,1,12,15)         -92.309          calculate D2E/DX2 analytically  !
 ! D49   D(23,1,12,51)          10.5916         calculate D2E/DX2 analytically  !
 ! D50   D(46,1,12,9)          114.9729         calculate D2E/DX2 analytically  !
 ! D51   D(46,1,12,11)          73.2153         calculate D2E/DX2 analytically  !
 ! D52   D(46,1,12,14)        -105.5244         calculate D2E/DX2 analytically  !
 ! D53   D(46,1,12,15)         161.6177         calculate D2E/DX2 analytically  !
 ! D54   D(46,1,12,51)         -95.4817         calculate D2E/DX2 analytically  !
 ! D55   D(48,1,12,9)          178.546          calculate D2E/DX2 analytically  !
 ! D56   D(48,1,12,11)         136.7884         calculate D2E/DX2 analytically  !
 ! D57   D(48,1,12,14)         -41.9513         calculate D2E/DX2 analytically  !
 ! D58   D(48,1,12,15)        -134.8092         calculate D2E/DX2 analytically  !
 ! D59   D(48,1,12,51)         -31.9086         calculate D2E/DX2 analytically  !
 ! D60   D(2,1,21,14)            5.1488         calculate D2E/DX2 analytically  !
 ! D61   D(2,1,21,22)         -142.2044         calculate D2E/DX2 analytically  !
 ! D62   D(3,1,21,14)          -70.5144         calculate D2E/DX2 analytically  !
 ! D63   D(3,1,21,22)          142.1324         calculate D2E/DX2 analytically  !
 ! D64   D(4,1,21,14)           99.2042         calculate D2E/DX2 analytically  !
 ! D65   D(4,1,21,22)          -48.1489         calculate D2E/DX2 analytically  !
 ! D66   D(46,1,21,14)        -175.9765         calculate D2E/DX2 analytically  !
 ! D67   D(46,1,21,22)          36.6703         calculate D2E/DX2 analytically  !
 ! D68   D(48,1,21,14)        -133.9771         calculate D2E/DX2 analytically  !
 ! D69   D(48,1,21,22)          78.6698         calculate D2E/DX2 analytically  !
 ! D70   D(3,1,46,45)            0.8204         calculate D2E/DX2 analytically  !
 ! D71   D(4,1,46,45)          -93.4438         calculate D2E/DX2 analytically  !
 ! D72   D(5,1,46,45)         -176.6665         calculate D2E/DX2 analytically  !
 ! D73   D(12,1,46,45)        -175.4249         calculate D2E/DX2 analytically  !
 ! D74   D(21,1,46,45)         136.6439         calculate D2E/DX2 analytically  !
 ! D75   D(23,1,46,45)          85.3675         calculate D2E/DX2 analytically  !
 ! D76   D(2,1,48,49)          -90.2716         calculate D2E/DX2 analytically  !
 ! D77   D(2,1,48,50)           87.0014         calculate D2E/DX2 analytically  !
 ! D78   D(3,1,48,49)         -170.2335         calculate D2E/DX2 analytically  !
 ! D79   D(3,1,48,50)            7.0395         calculate D2E/DX2 analytically  !
 ! D80   D(4,1,48,49)           91.7688         calculate D2E/DX2 analytically  !
 ! D81   D(4,1,48,50)          -90.9582         calculate D2E/DX2 analytically  !
 ! D82   D(5,1,48,49)           11.723          calculate D2E/DX2 analytically  !
 ! D83   D(5,1,48,50)         -171.004          calculate D2E/DX2 analytically  !
 ! D84   D(12,1,48,49)         -30.4173         calculate D2E/DX2 analytically  !
 ! D85   D(12,1,48,50)         146.8557         calculate D2E/DX2 analytically  !
 ! D86   D(21,1,48,49)         -30.2028         calculate D2E/DX2 analytically  !
 ! D87   D(21,1,48,50)         147.0702         calculate D2E/DX2 analytically  !
 ! D88   D(1,2,9,4)             10.2471         calculate D2E/DX2 analytically  !
 ! D89   D(1,2,9,8)             91.6334         calculate D2E/DX2 analytically  !
 ! D90   D(1,2,9,10)           113.2583         calculate D2E/DX2 analytically  !
 ! D91   D(1,2,9,11)           -86.0596         calculate D2E/DX2 analytically  !
 ! D92   D(1,2,9,26)           170.6708         calculate D2E/DX2 analytically  !
 ! D93   D(1,2,9,27)          -141.8844         calculate D2E/DX2 analytically  !
 ! D94   D(1,3,6,4)             -8.7132         calculate D2E/DX2 analytically  !
 ! D95   D(1,3,6,7)            -79.5545         calculate D2E/DX2 analytically  !
 ! D96   D(1,3,6,8)            -89.5788         calculate D2E/DX2 analytically  !
 ! D97   D(1,3,6,20)          -175.5953         calculate D2E/DX2 analytically  !
 ! D98   D(1,3,6,42)           136.6709         calculate D2E/DX2 analytically  !
 ! D99   D(1,3,6,44)            82.8219         calculate D2E/DX2 analytically  !
 ! D100  D(1,3,45,44)          -86.4195         calculate D2E/DX2 analytically  !
 ! D101  D(1,3,45,46)            0.9153         calculate D2E/DX2 analytically  !
 ! D102  D(1,3,45,47)          162.9608         calculate D2E/DX2 analytically  !
 ! D103  D(1,4,6,3)              9.0194         calculate D2E/DX2 analytically  !
 ! D104  D(1,4,6,7)            173.5701         calculate D2E/DX2 analytically  !
 ! D105  D(1,4,6,8)             93.21           calculate D2E/DX2 analytically  !
 ! D106  D(1,4,6,20)           147.3099         calculate D2E/DX2 analytically  !
 ! D107  D(1,4,6,42)          -124.0994         calculate D2E/DX2 analytically  !
 ! D108  D(1,4,6,44)           -99.3912         calculate D2E/DX2 analytically  !
 ! D109  D(1,4,6,45)           -45.0473         calculate D2E/DX2 analytically  !
 ! D110  D(9,4,6,3)            -69.9931         calculate D2E/DX2 analytically  !
 ! D111  D(9,4,6,7)             94.5577         calculate D2E/DX2 analytically  !
 ! D112  D(9,4,6,8)             14.1976         calculate D2E/DX2 analytically  !
 ! D113  D(9,4,6,20)            68.2974         calculate D2E/DX2 analytically  !
 ! D114  D(9,4,6,42)           156.8882         calculate D2E/DX2 analytically  !
 ! D115  D(9,4,6,44)          -178.4037         calculate D2E/DX2 analytically  !
 ! D116  D(9,4,6,45)          -124.0597         calculate D2E/DX2 analytically  !
 ! D117  D(1,4,9,2)            -10.513          calculate D2E/DX2 analytically  !
 ! D118  D(1,4,9,8)            -93.4104         calculate D2E/DX2 analytically  !
 ! D119  D(1,4,9,10)          -175.3115         calculate D2E/DX2 analytically  !
 ! D120  D(1,4,9,11)            98.7781         calculate D2E/DX2 analytically  !
 ! D121  D(1,4,9,12)            43.2083         calculate D2E/DX2 analytically  !
 ! D122  D(1,4,9,26)          -127.277          calculate D2E/DX2 analytically  !
 ! D123  D(1,4,9,27)           118.7723         calculate D2E/DX2 analytically  !
 ! D124  D(6,4,9,2)             68.7473         calculate D2E/DX2 analytically  !
 ! D125  D(6,4,9,8)            -14.1501         calculate D2E/DX2 analytically  !
 ! D126  D(6,4,9,10)           -96.0512         calculate D2E/DX2 analytically  !
 ! D127  D(6,4,9,11)           178.0384         calculate D2E/DX2 analytically  !
 ! D128  D(6,4,9,12)           122.4685         calculate D2E/DX2 analytically  !
 ! D129  D(6,4,9,26)           -48.0167         calculate D2E/DX2 analytically  !
 ! D130  D(6,4,9,27)          -161.9674         calculate D2E/DX2 analytically  !
 ! D131  D(1,5,12,21)           81.1926         calculate D2E/DX2 analytically  !
 ! D132  D(3,6,7,13)           -20.3832         calculate D2E/DX2 analytically  !
 ! D133  D(3,6,7,18)           -98.1271         calculate D2E/DX2 analytically  !
 ! D134  D(4,6,7,13)           -94.9673         calculate D2E/DX2 analytically  !
 ! D135  D(4,6,7,18)          -172.7112         calculate D2E/DX2 analytically  !
 ! D136  D(8,6,7,13)           -10.178          calculate D2E/DX2 analytically  !
 ! D137  D(8,6,7,18)           -87.9219         calculate D2E/DX2 analytically  !
 ! D138  D(20,6,7,13)           76.3644         calculate D2E/DX2 analytically  !
 ! D139  D(20,6,7,18)           -1.3794         calculate D2E/DX2 analytically  !
 ! D140  D(42,6,7,13)          125.671          calculate D2E/DX2 analytically  !
 ! D141  D(42,6,7,18)           47.9271         calculate D2E/DX2 analytically  !
 ! D142  D(44,6,7,13)          176.3359         calculate D2E/DX2 analytically  !
 ! D143  D(44,6,7,18)           98.592          calculate D2E/DX2 analytically  !
 ! D144  D(45,6,7,13)         -174.9131         calculate D2E/DX2 analytically  !
 ! D145  D(45,6,7,18)          107.343          calculate D2E/DX2 analytically  !
 ! D146  D(3,6,8,9)             88.8358         calculate D2E/DX2 analytically  !
 ! D147  D(3,6,8,13)          -172.5563         calculate D2E/DX2 analytically  !
 ! D148  D(4,6,8,9)            -13.475          calculate D2E/DX2 analytically  !
 ! D149  D(4,6,8,13)            85.1329         calculate D2E/DX2 analytically  !
 ! D150  D(7,6,8,9)            -88.4085         calculate D2E/DX2 analytically  !
 ! D151  D(7,6,8,13)            10.1995         calculate D2E/DX2 analytically  !
 ! D152  D(20,6,8,9)          -177.4303         calculate D2E/DX2 analytically  !
 ! D153  D(20,6,8,13)          -78.8224         calculate D2E/DX2 analytically  !
 ! D154  D(42,6,8,9)          -156.9293         calculate D2E/DX2 analytically  !
 ! D155  D(42,6,8,13)          -58.3214         calculate D2E/DX2 analytically  !
 ! D156  D(44,6,8,9)           -64.5673         calculate D2E/DX2 analytically  !
 ! D157  D(44,6,8,13)           34.0406         calculate D2E/DX2 analytically  !
 ! D158  D(45,6,8,9)            77.0761         calculate D2E/DX2 analytically  !
 ! D159  D(45,6,8,13)          175.684          calculate D2E/DX2 analytically  !
 ! D160  D(3,6,20,18)          165.6069         calculate D2E/DX2 analytically  !
 ! D161  D(4,6,20,18)           26.3753         calculate D2E/DX2 analytically  !
 ! D162  D(7,6,20,18)            1.2306         calculate D2E/DX2 analytically  !
 ! D163  D(8,6,20,18)           79.8535         calculate D2E/DX2 analytically  !
 ! D164  D(44,6,20,18)         -84.9578         calculate D2E/DX2 analytically  !
 ! D165  D(45,6,20,18)        -141.0181         calculate D2E/DX2 analytically  !
 ! D166  D(3,6,42,18)          135.4889         calculate D2E/DX2 analytically  !
 ! D167  D(3,6,42,19)          169.8975         calculate D2E/DX2 analytically  !
 ! D168  D(3,6,42,43)           -7.6825         calculate D2E/DX2 analytically  !
 ! D169  D(4,6,42,18)          -94.2898         calculate D2E/DX2 analytically  !
 ! D170  D(4,6,42,19)          -59.8812         calculate D2E/DX2 analytically  !
 ! D171  D(4,6,42,43)          122.5388         calculate D2E/DX2 analytically  !
 ! D172  D(7,6,42,18)          -35.2223         calculate D2E/DX2 analytically  !
 ! D173  D(7,6,42,19)           -0.8137         calculate D2E/DX2 analytically  !
 ! D174  D(7,6,42,43)         -178.3937         calculate D2E/DX2 analytically  !
 ! D175  D(8,6,42,18)           31.7293         calculate D2E/DX2 analytically  !
 ! D176  D(8,6,42,19)           66.138          calculate D2E/DX2 analytically  !
 ! D177  D(8,6,42,43)         -111.4421         calculate D2E/DX2 analytically  !
 ! D178  D(45,6,42,18)         178.4973         calculate D2E/DX2 analytically  !
 ! D179  D(45,6,42,19)        -147.0941         calculate D2E/DX2 analytically  !
 ! D180  D(45,6,42,43)          35.3259         calculate D2E/DX2 analytically  !
 ! D181  D(4,6,45,46)           -6.4999         calculate D2E/DX2 analytically  !
 ! D182  D(4,6,45,47)         -165.116          calculate D2E/DX2 analytically  !
 ! D183  D(7,6,45,46)           65.5237         calculate D2E/DX2 analytically  !
 ! D184  D(7,6,45,47)          -93.0925         calculate D2E/DX2 analytically  !
 ! D185  D(8,6,45,46)          -91.5217         calculate D2E/DX2 analytically  !
 ! D186  D(8,6,45,47)          109.8622         calculate D2E/DX2 analytically  !
 ! D187  D(20,6,45,46)         169.2113         calculate D2E/DX2 analytically  !
 ! D188  D(20,6,45,47)          10.5952         calculate D2E/DX2 analytically  !
 ! D189  D(42,6,45,46)         126.3952         calculate D2E/DX2 analytically  !
 ! D190  D(42,6,45,47)         -32.221          calculate D2E/DX2 analytically  !
 ! D191  D(6,7,13,8)             9.8771         calculate D2E/DX2 analytically  !
 ! D192  D(6,7,13,10)           93.4334         calculate D2E/DX2 analytically  !
 ! D193  D(6,7,13,16)          -70.4442         calculate D2E/DX2 analytically  !
 ! D194  D(6,7,13,36)          179.9691         calculate D2E/DX2 analytically  !
 ! D195  D(6,7,13,37)         -173.3599         calculate D2E/DX2 analytically  !
 ! D196  D(6,7,13,39)         -120.2045         calculate D2E/DX2 analytically  !
 ! D197  D(6,7,18,16)           84.7199         calculate D2E/DX2 analytically  !
 ! D198  D(6,7,18,19)          -90.1562         calculate D2E/DX2 analytically  !
 ! D199  D(6,7,18,20)            1.4027         calculate D2E/DX2 analytically  !
 ! D200  D(6,7,18,39)          137.7201         calculate D2E/DX2 analytically  !
 ! D201  D(6,7,18,40)         -169.23           calculate D2E/DX2 analytically  !
 ! D202  D(6,7,18,42)          -45.5412         calculate D2E/DX2 analytically  !
 ! D203  D(6,8,9,2)            -89.4851         calculate D2E/DX2 analytically  !
 ! D204  D(6,8,9,4)             13.7188         calculate D2E/DX2 analytically  !
 ! D205  D(6,8,9,10)            96.2149         calculate D2E/DX2 analytically  !
 ! D206  D(6,8,9,12)           -77.2726         calculate D2E/DX2 analytically  !
 ! D207  D(6,8,9,26)          -178.5783         calculate D2E/DX2 analytically  !
 ! D208  D(6,8,9,27)           170.5162         calculate D2E/DX2 analytically  !
 ! D209  D(13,8,9,2)           168.0558         calculate D2E/DX2 analytically  !
 ! D210  D(13,8,9,4)           -88.7403         calculate D2E/DX2 analytically  !
 ! D211  D(13,8,9,10)           -6.2442         calculate D2E/DX2 analytically  !
 ! D212  D(13,8,9,12)         -179.7317         calculate D2E/DX2 analytically  !
 ! D213  D(13,8,9,26)           78.9626         calculate D2E/DX2 analytically  !
 ! D214  D(13,8,9,27)           68.0571         calculate D2E/DX2 analytically  !
 ! D215  D(6,8,13,7)           -10.7381         calculate D2E/DX2 analytically  !
 ! D216  D(6,8,13,10)          -89.1353         calculate D2E/DX2 analytically  !
 ! D217  D(6,8,13,16)           86.1897         calculate D2E/DX2 analytically  !
 ! D218  D(6,8,13,17)          172.1917         calculate D2E/DX2 analytically  !
 ! D219  D(6,8,13,18)           34.9266         calculate D2E/DX2 analytically  !
 ! D220  D(6,8,13,36)         -179.0147         calculate D2E/DX2 analytically  !
 ! D221  D(6,8,13,37)          -20.8204         calculate D2E/DX2 analytically  !
 ! D222  D(6,8,13,39)           74.9997         calculate D2E/DX2 analytically  !
 ! D223  D(9,8,13,7)            84.8679         calculate D2E/DX2 analytically  !
 ! D224  D(9,8,13,10)            6.4707         calculate D2E/DX2 analytically  !
 ! D225  D(9,8,13,16)         -178.2043         calculate D2E/DX2 analytically  !
 ! D226  D(9,8,13,17)          -92.2023         calculate D2E/DX2 analytically  !
 ! D227  D(9,8,13,18)          130.5325         calculate D2E/DX2 analytically  !
 ! D228  D(9,8,13,36)          -83.4087         calculate D2E/DX2 analytically  !
 ! D229  D(9,8,13,37)           74.7856         calculate D2E/DX2 analytically  !
 ! D230  D(9,8,13,39)          170.6057         calculate D2E/DX2 analytically  !
 ! D231  D(2,9,10,13)          -15.2764         calculate D2E/DX2 analytically  !
 ! D232  D(2,9,10,24)           64.9118         calculate D2E/DX2 analytically  !
 ! D233  D(4,9,10,13)           90.5021         calculate D2E/DX2 analytically  !
 ! D234  D(4,9,10,24)          170.6903         calculate D2E/DX2 analytically  !
 ! D235  D(8,9,10,13)            6.5336         calculate D2E/DX2 analytically  !
 ! D236  D(8,9,10,24)           86.7218         calculate D2E/DX2 analytically  !
 ! D237  D(11,9,10,13)        -176.9384         calculate D2E/DX2 analytically  !
 ! D238  D(11,9,10,24)         -96.7501         calculate D2E/DX2 analytically  !
 ! D239  D(12,9,10,13)         179.3482         calculate D2E/DX2 analytically  !
 ! D240  D(12,9,10,24)        -100.4635         calculate D2E/DX2 analytically  !
 ! D241  D(26,9,10,13)         -73.2013         calculate D2E/DX2 analytically  !
 ! D242  D(26,9,10,24)           6.987          calculate D2E/DX2 analytically  !
 ! D243  D(27,9,10,13)        -122.5102         calculate D2E/DX2 analytically  !
 ! D244  D(27,9,10,24)         -42.3219         calculate D2E/DX2 analytically  !
 ! D245  D(4,9,12,1)           -37.6015         calculate D2E/DX2 analytically  !
 ! D246  D(4,9,12,5)             8.6241         calculate D2E/DX2 analytically  !
 ! D247  D(4,9,12,14)         -109.7604         calculate D2E/DX2 analytically  !
 ! D248  D(4,9,12,15)          160.8992         calculate D2E/DX2 analytically  !
 ! D249  D(4,9,12,21)          -35.6923         calculate D2E/DX2 analytically  !
 ! D250  D(4,9,12,51)          170.7431         calculate D2E/DX2 analytically  !
 ! D251  D(8,9,12,1)            48.1654         calculate D2E/DX2 analytically  !
 ! D252  D(8,9,12,5)            94.391          calculate D2E/DX2 analytically  !
 ! D253  D(8,9,12,14)          -23.9935         calculate D2E/DX2 analytically  !
 ! D254  D(8,9,12,15)         -113.3338         calculate D2E/DX2 analytically  !
 ! D255  D(8,9,12,21)           50.0747         calculate D2E/DX2 analytically  !
 ! D256  D(8,9,12,51)         -103.4899         calculate D2E/DX2 analytically  !
 ! D257  D(10,9,12,1)         -121.4183         calculate D2E/DX2 analytically  !
 ! D258  D(10,9,12,5)          -75.1927         calculate D2E/DX2 analytically  !
 ! D259  D(10,9,12,14)         166.4228         calculate D2E/DX2 analytically  !
 ! D260  D(10,9,12,15)          77.0824         calculate D2E/DX2 analytically  !
 ! D261  D(10,9,12,21)        -119.509          calculate D2E/DX2 analytically  !
 ! D262  D(10,9,12,51)          86.9264         calculate D2E/DX2 analytically  !
 ! D263  D(26,9,12,1)          138.7047         calculate D2E/DX2 analytically  !
 ! D264  D(26,9,12,5)         -175.0697         calculate D2E/DX2 analytically  !
 ! D265  D(26,9,12,14)          66.5458         calculate D2E/DX2 analytically  !
 ! D266  D(26,9,12,15)         -22.7946         calculate D2E/DX2 analytically  !
 ! D267  D(26,9,12,21)         140.614          calculate D2E/DX2 analytically  !
 ! D268  D(26,9,12,51)         -12.9507         calculate D2E/DX2 analytically  !
 ! D269  D(27,9,12,1)          178.5267         calculate D2E/DX2 analytically  !
 ! D270  D(27,9,12,5)         -135.2477         calculate D2E/DX2 analytically  !
 ! D271  D(27,9,12,14)         106.3678         calculate D2E/DX2 analytically  !
 ! D272  D(27,9,12,15)          17.0274         calculate D2E/DX2 analytically  !
 ! D273  D(27,9,12,21)        -179.564          calculate D2E/DX2 analytically  !
 ! D274  D(27,9,12,51)          26.8714         calculate D2E/DX2 analytically  !
 ! D275  D(2,9,26,24)         -173.5443         calculate D2E/DX2 analytically  !
 ! D276  D(4,9,26,24)          -54.3162         calculate D2E/DX2 analytically  !
 ! D277  D(8,9,26,24)          -88.6042         calculate D2E/DX2 analytically  !
 ! D278  D(10,9,26,24)          -6.5865         calculate D2E/DX2 analytically  !
 ! D279  D(11,9,26,24)          78.0302         calculate D2E/DX2 analytically  !
 ! D280  D(12,9,26,24)         135.5209         calculate D2E/DX2 analytically  !
 ! D281  D(2,9,27,15)           30.2507         calculate D2E/DX2 analytically  !
 ! D282  D(2,9,27,28)         -178.8527         calculate D2E/DX2 analytically  !
 ! D283  D(2,9,27,29)          -46.4039         calculate D2E/DX2 analytically  !
 ! D284  D(2,9,27,30)         -132.8154         calculate D2E/DX2 analytically  !
 ! D285  D(4,9,27,15)          -99.3289         calculate D2E/DX2 analytically  !
 ! D286  D(4,9,27,28)           51.5676         calculate D2E/DX2 analytically  !
 ! D287  D(4,9,27,29)         -175.9835         calculate D2E/DX2 analytically  !
 ! D288  D(4,9,27,30)           97.6049         calculate D2E/DX2 analytically  !
 ! D289  D(8,9,27,15)          121.9504         calculate D2E/DX2 analytically  !
 ! D290  D(8,9,27,28)          -87.153          calculate D2E/DX2 analytically  !
 ! D291  D(8,9,27,29)           45.2959         calculate D2E/DX2 analytically  !
 ! D292  D(8,9,27,30)          -41.1157         calculate D2E/DX2 analytically  !
 ! D293  D(10,9,27,15)        -164.769          calculate D2E/DX2 analytically  !
 ! D294  D(10,9,27,28)         -13.8724         calculate D2E/DX2 analytically  !
 ! D295  D(10,9,27,29)         118.5764         calculate D2E/DX2 analytically  !
 ! D296  D(10,9,27,30)          32.1649         calculate D2E/DX2 analytically  !
 ! D297  D(12,9,27,15)         -17.505          calculate D2E/DX2 analytically  !
 ! D298  D(12,9,27,28)         133.3916         calculate D2E/DX2 analytically  !
 ! D299  D(12,9,27,29)         -94.1596         calculate D2E/DX2 analytically  !
 ! D300  D(12,9,27,30)         179.4289         calculate D2E/DX2 analytically  !
 ! D301  D(9,10,13,7)          -88.1551         calculate D2E/DX2 analytically  !
 ! D302  D(9,10,13,8)           -6.3728         calculate D2E/DX2 analytically  !
 ! D303  D(9,10,13,16)         -21.8516         calculate D2E/DX2 analytically  !
 ! D304  D(9,10,13,17)          82.2613         calculate D2E/DX2 analytically  !
 ! D305  D(9,10,13,18)         -85.8246         calculate D2E/DX2 analytically  !
 ! D306  D(9,10,13,36)         136.7989         calculate D2E/DX2 analytically  !
 ! D307  D(9,10,13,37)        -169.1273         calculate D2E/DX2 analytically  !
 ! D308  D(9,10,13,39)        -164.7596         calculate D2E/DX2 analytically  !
 ! D309  D(24,10,13,7)         177.9051         calculate D2E/DX2 analytically  !
 ! D310  D(24,10,13,8)        -100.3127         calculate D2E/DX2 analytically  !
 ! D311  D(24,10,13,16)       -115.7914         calculate D2E/DX2 analytically  !
 ! D312  D(24,10,13,17)        -11.6786         calculate D2E/DX2 analytically  !
 ! D313  D(24,10,13,18)       -179.7645         calculate D2E/DX2 analytically  !
 ! D314  D(24,10,13,36)         42.859          calculate D2E/DX2 analytically  !
 ! D315  D(24,10,13,37)         96.9329         calculate D2E/DX2 analytically  !
 ! D316  D(24,10,13,39)        101.3006         calculate D2E/DX2 analytically  !
 ! D317  D(9,10,24,17)         -86.6171         calculate D2E/DX2 analytically  !
 ! D318  D(9,10,24,25)         173.7555         calculate D2E/DX2 analytically  !
 ! D319  D(9,10,24,26)          -6.7116         calculate D2E/DX2 analytically  !
 ! D320  D(9,10,24,28)          87.1729         calculate D2E/DX2 analytically  !
 ! D321  D(9,10,24,33)         170.1611         calculate D2E/DX2 analytically  !
 ! D322  D(9,10,24,36)        -135.6364         calculate D2E/DX2 analytically  !
 ! D323  D(13,10,24,17)         11.6182         calculate D2E/DX2 analytically  !
 ! D324  D(13,10,24,25)        -88.0092         calculate D2E/DX2 analytically  !
 ! D325  D(13,10,24,26)         91.5237         calculate D2E/DX2 analytically  !
 ! D326  D(13,10,24,28)       -174.5918         calculate D2E/DX2 analytically  !
 ! D327  D(13,10,24,33)        -91.6036         calculate D2E/DX2 analytically  !
 ! D328  D(13,10,24,36)        -37.4011         calculate D2E/DX2 analytically  !
 ! D329  D(27,11,12,1)         120.4949         calculate D2E/DX2 analytically  !
 ! D330  D(27,11,12,2)          63.9022         calculate D2E/DX2 analytically  !
 ! D331  D(27,11,12,5)         171.754          calculate D2E/DX2 analytically  !
 ! D332  D(27,11,12,14)        -63.6912         calculate D2E/DX2 analytically  !
 ! D333  D(27,11,12,15)        -33.2969         calculate D2E/DX2 analytically  !
 ! D334  D(27,11,12,21)       -177.9078         calculate D2E/DX2 analytically  !
 ! D335  D(27,11,12,51)        -66.5856         calculate D2E/DX2 analytically  !
 ! D336  D(12,11,27,15)         34.2535         calculate D2E/DX2 analytically  !
 ! D337  D(12,11,27,26)        -70.8012         calculate D2E/DX2 analytically  !
 ! D338  D(12,11,27,28)       -177.3757         calculate D2E/DX2 analytically  !
 ! D339  D(12,11,27,29)         74.4744         calculate D2E/DX2 analytically  !
 ! D340  D(12,11,27,30)        167.146          calculate D2E/DX2 analytically  !
 ! D341  D(1,12,15,27)         -60.9899         calculate D2E/DX2 analytically  !
 ! D342  D(2,12,15,27)         -72.984          calculate D2E/DX2 analytically  !
 ! D343  D(5,12,15,27)          90.987          calculate D2E/DX2 analytically  !
 ! D344  D(9,12,15,27)         -19.2012         calculate D2E/DX2 analytically  !
 ! D345  D(11,12,15,27)         32.3859         calculate D2E/DX2 analytically  !
 ! D346  D(14,12,15,27)       -156.355          calculate D2E/DX2 analytically  !
 ! D347  D(21,12,15,27)        178.7733         calculate D2E/DX2 analytically  !
 ! D348  D(2,12,21,22)        -158.4383         calculate D2E/DX2 analytically  !
 ! D349  D(2,12,21,23)           0.8682         calculate D2E/DX2 analytically  !
 ! D350  D(9,12,21,22)         154.3677         calculate D2E/DX2 analytically  !
 ! D351  D(9,12,21,23)         -46.3259         calculate D2E/DX2 analytically  !
 ! D352  D(11,12,21,22)         79.6503         calculate D2E/DX2 analytically  !
 ! D353  D(11,12,21,23)       -121.0433         calculate D2E/DX2 analytically  !
 ! D354  D(15,12,21,22)        -48.6833         calculate D2E/DX2 analytically  !
 ! D355  D(15,12,21,23)        110.6231         calculate D2E/DX2 analytically  !
 ! D356  D(51,12,21,22)        -41.5599         calculate D2E/DX2 analytically  !
 ! D357  D(51,12,21,23)        117.7465         calculate D2E/DX2 analytically  !
 ! D358  D(1,12,51,52)         100.0911         calculate D2E/DX2 analytically  !
 ! D359  D(1,12,51,53)         -66.8467         calculate D2E/DX2 analytically  !
 ! D360  D(2,12,51,52)         167.075          calculate D2E/DX2 analytically  !
 ! D361  D(2,12,51,53)           0.1372         calculate D2E/DX2 analytically  !
 ! D362  D(5,12,51,52)          30.462          calculate D2E/DX2 analytically  !
 ! D363  D(5,12,51,53)        -136.4758         calculate D2E/DX2 analytically  !
 ! D364  D(9,12,51,52)        -128.6054         calculate D2E/DX2 analytically  !
 ! D365  D(9,12,51,53)          64.4568         calculate D2E/DX2 analytically  !
 ! D366  D(11,12,51,52)        -67.7911         calculate D2E/DX2 analytically  !
 ! D367  D(11,12,51,53)        125.2711         calculate D2E/DX2 analytically  !
 ! D368  D(21,12,51,52)         71.8677         calculate D2E/DX2 analytically  !
 ! D369  D(21,12,51,53)        -95.0701         calculate D2E/DX2 analytically  !
 ! D370  D(8,13,17,24)          92.9806         calculate D2E/DX2 analytically  !
 ! D371  D(10,13,17,24)         11.4511         calculate D2E/DX2 analytically  !
 ! D372  D(16,13,17,24)        174.3799         calculate D2E/DX2 analytically  !
 ! D373  D(18,13,17,24)        176.6886         calculate D2E/DX2 analytically  !
 ! D374  D(37,13,17,24)        -82.6836         calculate D2E/DX2 analytically  !
 ! D375  D(39,13,17,24)       -136.8143         calculate D2E/DX2 analytically  !
 ! D376  D(8,13,18,19)         -97.1951         calculate D2E/DX2 analytically  !
 ! D377  D(8,13,18,20)          14.5127         calculate D2E/DX2 analytically  !
 ! D378  D(8,13,18,40)         178.1267         calculate D2E/DX2 analytically  !
 ! D379  D(8,13,18,42)         -29.3222         calculate D2E/DX2 analytically  !
 ! D380  D(10,13,18,19)        -19.9604         calculate D2E/DX2 analytically  !
 ! D381  D(10,13,18,20)         91.7474         calculate D2E/DX2 analytically  !
 ! D382  D(10,13,18,40)       -104.6386         calculate D2E/DX2 analytically  !
 ! D383  D(10,13,18,42)         47.9126         calculate D2E/DX2 analytically  !
 ! D384  D(17,13,18,19)        177.4866         calculate D2E/DX2 analytically  !
 ! D385  D(17,13,18,20)        -70.8056         calculate D2E/DX2 analytically  !
 ! D386  D(17,13,18,40)         92.8083         calculate D2E/DX2 analytically  !
 ! D387  D(17,13,18,42)       -114.6405         calculate D2E/DX2 analytically  !
 ! D388  D(36,13,18,19)        106.2927         calculate D2E/DX2 analytically  !
 ! D389  D(36,13,18,20)       -141.9995         calculate D2E/DX2 analytically  !
 ! D390  D(36,13,18,40)         21.6145         calculate D2E/DX2 analytically  !
 ! D391  D(36,13,18,42)        174.1656         calculate D2E/DX2 analytically  !
 ! D392  D(37,13,18,19)         67.4233         calculate D2E/DX2 analytically  !
 ! D393  D(37,13,18,20)        179.1311         calculate D2E/DX2 analytically  !
 ! D394  D(37,13,18,40)        -17.2549         calculate D2E/DX2 analytically  !
 ! D395  D(37,13,18,42)        135.2962         calculate D2E/DX2 analytically  !
 ! D396  D(7,13,36,24)        -114.3834         calculate D2E/DX2 analytically  !
 ! D397  D(7,13,36,25)         -69.3511         calculate D2E/DX2 analytically  !
 ! D398  D(7,13,36,38)          81.3272         calculate D2E/DX2 analytically  !
 ! D399  D(8,13,36,24)          49.0707         calculate D2E/DX2 analytically  !
 ! D400  D(8,13,36,25)          94.103          calculate D2E/DX2 analytically  !
 ! D401  D(8,13,36,38)        -115.2187         calculate D2E/DX2 analytically  !
 ! D402  D(10,13,36,24)        -35.8321         calculate D2E/DX2 analytically  !
 ! D403  D(10,13,36,25)          9.2001         calculate D2E/DX2 analytically  !
 ! D404  D(10,13,36,38)        159.8784         calculate D2E/DX2 analytically  !
 ! D405  D(16,13,36,24)        137.7637         calculate D2E/DX2 analytically  !
 ! D406  D(16,13,36,25)       -177.2041         calculate D2E/DX2 analytically  !
 ! D407  D(16,13,36,38)        -26.5258         calculate D2E/DX2 analytically  !
 ! D408  D(18,13,36,24)       -172.8098         calculate D2E/DX2 analytically  !
 ! D409  D(18,13,36,25)       -127.7776         calculate D2E/DX2 analytically  !
 ! D410  D(18,13,36,38)         22.9007         calculate D2E/DX2 analytically  !
 ! D411  D(39,13,36,24)        175.9282         calculate D2E/DX2 analytically  !
 ! D412  D(39,13,36,25)       -139.0396         calculate D2E/DX2 analytically  !
 ! D413  D(39,13,36,38)         11.6387         calculate D2E/DX2 analytically  !
 ! D414  D(7,13,39,38)        -147.5214         calculate D2E/DX2 analytically  !
 ! D415  D(7,13,39,40)          -4.0735         calculate D2E/DX2 analytically  !
 ! D416  D(7,13,39,41)         131.6675         calculate D2E/DX2 analytically  !
 ! D417  D(8,13,39,38)         132.7082         calculate D2E/DX2 analytically  !
 ! D418  D(8,13,39,40)         -83.844          calculate D2E/DX2 analytically  !
 ! D419  D(8,13,39,41)          51.897          calculate D2E/DX2 analytically  !
 ! D420  D(10,13,39,38)        -75.6933         calculate D2E/DX2 analytically  !
 ! D421  D(10,13,39,40)         67.7545         calculate D2E/DX2 analytically  !
 ! D422  D(10,13,39,41)       -156.5045         calculate D2E/DX2 analytically  !
 ! D423  D(17,13,39,38)         38.145          calculate D2E/DX2 analytically  !
 ! D424  D(17,13,39,40)       -178.4071         calculate D2E/DX2 analytically  !
 ! D425  D(17,13,39,41)        -42.6661         calculate D2E/DX2 analytically  !
 ! D426  D(36,13,39,38)         -8.8443         calculate D2E/DX2 analytically  !
 ! D427  D(36,13,39,40)        134.6035         calculate D2E/DX2 analytically  !
 ! D428  D(36,13,39,41)        -89.6555         calculate D2E/DX2 analytically  !
 ! D429  D(51,14,21,1)        -109.5311         calculate D2E/DX2 analytically  !
 ! D430  D(51,14,21,5)         -55.3948         calculate D2E/DX2 analytically  !
 ! D431  D(51,14,21,22)         59.3518         calculate D2E/DX2 analytically  !
 ! D432  D(51,14,21,23)       -160.2079         calculate D2E/DX2 analytically  !
 ! D433  D(21,14,51,15)         98.0313         calculate D2E/DX2 analytically  !
 ! D434  D(21,14,51,52)        -13.189          calculate D2E/DX2 analytically  !
 ! D435  D(21,14,51,53)       -136.8747         calculate D2E/DX2 analytically  !
 ! D436  D(12,15,27,9)          18.4044         calculate D2E/DX2 analytically  !
 ! D437  D(12,15,27,11)        -32.0283         calculate D2E/DX2 analytically  !
 ! D438  D(12,15,27,26)         72.7662         calculate D2E/DX2 analytically  !
 ! D439  D(12,15,27,28)       -102.8405         calculate D2E/DX2 analytically  !
 ! D440  D(12,15,27,29)        165.1581         calculate D2E/DX2 analytically  !
 ! D441  D(12,15,27,30)       -175.1736         calculate D2E/DX2 analytically  !
 ! D442  D(51,15,27,9)          50.3367         calculate D2E/DX2 analytically  !
 ! D443  D(51,15,27,11)         -0.0959         calculate D2E/DX2 analytically  !
 ! D444  D(51,15,27,26)        104.6986         calculate D2E/DX2 analytically  !
 ! D445  D(51,15,27,28)        -70.9082         calculate D2E/DX2 analytically  !
 ! D446  D(51,15,27,29)       -162.9095         calculate D2E/DX2 analytically  !
 ! D447  D(51,15,27,30)       -143.2412         calculate D2E/DX2 analytically  !
 ! D448  D(27,15,51,14)        -72.2168         calculate D2E/DX2 analytically  !
 ! D449  D(27,15,51,52)         37.4739         calculate D2E/DX2 analytically  !
 ! D450  D(27,15,51,53)        165.9591         calculate D2E/DX2 analytically  !
 ! D451  D(13,16,18,39)        -80.0774         calculate D2E/DX2 analytically  !
 ! D452  D(13,17,24,10)        -11.862          calculate D2E/DX2 analytically  !
 ! D453  D(13,17,24,25)         74.0714         calculate D2E/DX2 analytically  !
[...]
 85,0.00010745,-0.00019894,0.00000245,0.00006204,0.00006375,0.00323441,
 -0.00136507,-0.00003617,-0.00097996,0.00035867,-0.00010333,0.00173850,
 0.00229643,-0.00027966,-0.00015591,0.00010462,-0.00008133,0.00000557,-
 0.00001601,-0.00000300,-0.00011456,-0.00008706,-0.00002074,-0.00000181
 ,-0.00018163,-0.00005452,0.00002157,-0.00000936,-0.00000791,0.00000939
 ,0.00008413,0.00000380,-0.00002162,-0.00002500,0.00010286,0.00007308,-
 0.00001347,-0.00005273,-0.00001033,0.00000541,-0.00000148,-0.00001357,
 -0.00002192,0.00004926,0.00002726,-0.00000952,-0.00003281,-0.00002850,
 0.00002688,-0.00000323,0.00014973,-0.00006923,0.00003630,-0.00000181,0
 .00003588,0.00001276,-0.00006261,0.00002390,-0.00000991,0.00001701,-0.
 00007637,-0.00000144,-0.00000621,0.00000832,-0.00003589,-0.00005054,0.
 00006169,-0.00000062,0.00016238,-0.00036867,0.00043150,-0.00020292,0.0
 0012267,-0.00018724,-0.00013896,-0.00036064,-0.00103147,0.00103309,0.0
 0097315,-0.00969633,0.00313836,-0.00206894,-0.00747809,-0.00804623,0.0
 0239414,-0.00170799,0.09349337,-0.02295981,-0.09022789,0.00436475,-0.0
 0636062,0.00582904,-0.09965571,0.02633766,0.10468829,0.00281960,0.0003
 5834,0.00064221,-0.00093443,0.00141748,-0.00007811,-0.00055281,-0.0002
 0114,0.00001752,0.00035243,0.00057531,0.00016569,0.00054925,-0.0002121
 9,0.00048767,0.00058963,0.00028956,0.00014282,0.00007313,-0.00007331,-
 0.00005260,0.00055183,-0.00034596,-0.00034113,-0.00261237,0.00009992,-
 0.00034957,0.00024725,-0.00021683,0.00014300,-0.00249561,0.00068727,-0
 .00071980,-0.02154519,-0.00554647,-0.01668044,-0.00042232,-0.00004211,
 -0.00039396,-0.06078108,-0.00410761,0.05227358,-0.02791387,0.02750413,
 -0.04115484,-0.00001149,0.00008320,-0.00007070,-0.00006968,0.00016144,
 -0.00012688,-0.00027611,0.00007189,-0.00004085,0.00003510,-0.00002132,
 0.00019367,-0.00000858,-0.00009526,0.00001728,-0.00365056,-0.00391759,
 0.00207633,-0.00199875,0.00138372,0.00076210,-0.00096362,-0.00041080,-
 0.00044533,0.00077721,-0.00037380,0.00036434,0.00003145,-0.00016290,0.
 00001707,0.00020986,-0.00026054,-0.00030862,-0.00429109,-0.00176662,0.
 00038890,0.00056743,0.00112231,-0.00040567,-0.00010749,0.00076636,-0.0
 0014833,0.00117279,-0.00072707,-0.00047502,-0.00084179,0.00016231,0.00
 049546,0.00000419,0.00002279,-0.00004239,0.00003475,0.00006240,-0.0001
 8310,-0.00020338,0.00007438,0.00019619,0.00009154,-0.00007707,-0.00000
 496,-0.00009492,0.00022892,0.00011766,0.00010185,-0.00010119,0.0001232
 0,0.00010345,-0.00006069,0.00005374,-0.00001008,0.00030599,0.00007618,
 0.00010246,-0.00002129,0.00007503,0.00019444,-0.00022705,-0.00001105,-
 0.00028822,0.00005687,-0.00008758,0.00022550,-0.00001664,-0.00017284,-
 0.00011394,-0.00004559,0.00006459,-0.00068830,0.00026702,0.00031644,0.
 00025923,-0.00036418,-0.00017718,0.00028217,-0.00004186,-0.00015848,-0
 .00001512,0.00112503,0.00002544,0.00114641,-0.00005899,-0.00044470,0.0
 0044995,-0.00011707,-0.00025713,0.33779306,-0.00002244,-0.00161074,0.0
 0173330,-0.00042032,0.00125944,0.00209298,0.00015725,0.00028650,0.0000
 3224,-0.00052122,0.00054401,0.00042463,-0.00033248,-0.00176641,-0.0019
 8543,0.00033487,0.00010011,-0.00041213,0.00015139,-0.00007554,-0.00005
 826,0.00088513,-0.00059021,0.00078916,-0.00233220,-0.00002716,-0.00458
 964,0.00007132,0.00085042,0.00071107,-0.00265001,0.00152681,0.00045264
 ,0.00440063,0.01280081,-0.00295419,-0.00061049,-0.00041778,-0.00014726
 ,-0.00432944,-0.01456104,0.00237055,0.01954985,-0.04276722,0.03822478,
 -0.00016388,0.00011547,-0.00027958,0.00024541,-0.00012857,0.00011170,-
 0.00029686,0.00023634,0.00007100,0.00001363,0.00000138,0.00015070,0.00
 011781,-0.00011509,0.00003797,-0.00345360,0.00052077,0.00187077,-0.000
 82488,-0.00258623,0.00240115,-0.00007163,0.00054043,-0.00047159,-0.004
 48758,0.00289737,-0.00218864,0.00050408,-0.00039464,-0.00048084,0.0012
 5180,-0.00100070,-0.00067549,0.00290603,-0.01015185,0.00845587,0.00047
 380,0.00090595,-0.00005493,-0.00025993,0.00132426,-0.00059945,0.001519
 63,-0.00049646,0.00178133,0.00019380,0.00003632,-0.00034566,-0.0002252
 7,-0.00005730,-0.00020927,-0.00009925,-0.00044231,0.00013787,-0.000135
 90,0.00008732,0.00004039,-0.00022558,0.00006938,-0.00005981,0.00140389
 ,-0.00076099,0.00087365,0.00005549,-0.00002025,0.00009594,-0.00040559,
 0.00045027,-0.00016835,0.00018778,0.00047929,0.00005667,0.00009481,-0.
 00004004,-0.00000083,0.00003746,-0.00009641,-0.00005091,0.00004200,-0.
 00002033,-0.00019927,-0.00004339,0.00001100,-0.00000860,-0.00006176,-0
 .00006964,0.00004410,-0.00011137,-0.00029730,0.00010706,-0.00005258,-0
 .00004632,0.00002137,0.00008466,0.00004994,-0.00009235,0.00002978,-0.0
 0029979,-0.00011797,-0.00057824,0.00034331,0.00000628,0.00008381,0.000
 03563,0.00006583,0.01108937,0.32830592,0.00203653,0.00353938,-0.003106
 71,-0.00041294,-0.00083085,-0.00026038,0.00004360,-0.00049461,0.000360
 79,0.00015886,-0.00034060,-0.00049027,0.00080432,0.00219088,-0.0009852
 0,-0.00005939,-0.00039160,0.00023171,-0.00037992,0.00006546,0.00006281
 ,-0.00034753,0.00020655,0.00031276,0.00087110,-0.00112612,0.00006053,-
 0.00032371,-0.00003808,-0.00009766,0.00193905,-0.00169095,-0.00129522,
 -0.02488892,-0.01158002,0.00822136,0.00118304,0.00057504,0.00003345,0.
 03633062,-0.00259599,-0.05408992,-0.03057383,0.05267703,-0.07760406,0.
 00004022,-0.00009434,0.00020745,-0.00019320,0.00012069,0.00016426,0.00
 025216,-0.00031801,-0.00008978,-0.00002594,0.00003134,-0.00015526,-0.0
 0014183,0.00014260,0.00000530,0.00921036,0.00558460,-0.00026475,0.0001
 1417,-0.00023811,-0.00104090,0.00057398,0.00000280,0.00083713,0.003516
 01,-0.00209974,0.00039032,-0.00056998,0.00037424,0.00034971,-0.0004661
 2,0.00052726,0.00092873,-0.00310885,0.00342737,-0.00209988,-0.00094888
 ,-0.00092206,0.00058922,0.00162310,-0.00029033,0.00074900,-0.00085082,
 0.00106786,-0.00177473,-0.00048349,0.00007796,0.00044268,0.00035012,0.
 00008616,0.00025128,0.00004344,0.00030044,-0.00010821,0.00012440,-0.00
 007497,0.00000979,0.00025089,-0.00014803,0.00007240,-0.00119448,0.0006
 8089,-0.00091804,-0.00009569,-0.00006874,-0.00017279,0.00054080,-0.000
 38068,0.00016988,-0.00026340,-0.00034729,0.00009003,-0.00007423,0.0000
 3746,0.00005128,0.00009090,-0.00008208,0.00004516,-0.00014801,-0.00003
 541,0.00032975,0.00019495,-0.00000994,-0.00012164,-0.00002938,0.000049
 49,-0.00004491,-0.00071325,0.00019639,0.00050542,-0.00011533,0.0002280
 9,-0.00012620,0.00023488,-0.00004733,-0.00007987,0.00074538,-0.0009476
 0,0.00118783,-0.00185220,0.00028390,0.00044692,-0.00034558,-0.00006153
 ,0.00010778,0.08163827,0.06960950,0.22673470,0.00058092,-0.00058703,0.
 00019763,-0.00035360,0.00064701,-0.00101585,-0.00002919,0.00012680,-0.
 00001735,0.00004010,-0.00003756,-0.00011687,-0.00076948,0.00034313,0.0
 0042512,-0.00009253,0.00007110,0.00003516,0.00002077,0.00000993,0.0000
 1846,-0.00036924,0.00019077,-0.00040200,0.00085700,0.00071801,0.001557
 01,-0.00003930,0.00001812,-0.00005534,0.00079560,-0.00084323,-0.000306
 14,0.00236820,-0.00562325,0.00142240,-0.00004455,-0.00003873,0.0001715
 7,-0.00023361,0.00425201,0.00181643,0.00186598,0.00558346,0.00287235,0
 .00001725,-0.00001343,0.00002770,0.00001689,-0.00002001,-0.00000231,0.
 00000844,0.00002304,-0.00002346,-0.00000190,-0.00000369,-0.00001031,0.
 00002715,-0.00001518,-0.00002167,-0.00239407,0.00159598,-0.00053724,0.
 00080423,-0.00144796,0.00079972,0.00018507,-0.00020158,-0.00013170,0.0
 0029821,-0.00024432,0.00022727,-0.00004677,0.00008554,0.00004641,-0.00
 012161,0.00009853,0.00006404,-0.00062589,-0.00022106,-0.00065890,-0.00
 007069,-0.00000698,0.00005667,0.00011288,-0.00038728,0.00031378,-0.000
 16981,0.00004290,-0.00013376,0.00010579,-0.00000749,-0.00001546,-0.000
 01816,-0.00001462,0.00002002,0.00006947,0.00004236,-0.00001424,0.00000
 304,-0.00000563,-0.00002709,0.00000399,-0.00000574,0.00000622,-0.00017
 249,0.00003565,-0.00013654,-0.00002196,0.00001761,-0.00004365,0.000033
 63,-0.00003423,0.00001503,-0.00001812,-0.00004519,-0.00002803,-0.00000
 824,0.00000292,-0.00000258,-0.00001674,0.00001800,0.00001152,0.0000142
 9,-0.00001144,0.00000585,-0.00002180,0.00000112,0.00001772,0.00001300,
 -0.00000522,-0.00000493,0.00000264,-0.00000945,-0.00012714,-0.00006845
 ,-0.00001876,-0.00001197,-0.00002355,-0.00000391,0.00002350,-0.0002667
 4,0.00023514,-0.00013697,0.00038686,-0.00012483,0.00003239,0.00004660,
 -0.00001455,-0.00000450,-0.03452349,0.05193536,0.00973870,0.02273588,-
 0.00008110,0.00079171,-0.00066343,-0.00026009,0.00128847,0.00024874,-0
 .00009686,-0.00011325,0.00011102,0.00027489,-0.00012330,-0.00002741,0.
 00017769,0.00085462,0.00067346,-0.00002351,0.00003426,0.00001994,-0.00
 013599,0.00002700,0.00002396,-0.00008994,0.00003017,-0.00040012,-0.000
 01762,0.00023898,0.00058701,-0.00011890,0.00009812,0.00003963,-0.00013
 355,0.00007839,0.00022888,0.00328341,-0.00806712,-0.00157791,0.0003759
 8,0.00017776,0.00000824,0.00779689,0.00318950,-0.00347467,0.00844299,-
 0.00915266,0.00866328,-0.00000280,-0.00002430,0.00007253,-0.00010445,0
 .00002062,-0.00009240,0.00011080,-0.00010732,-0.00004347,-0.00000333,0
 .00000881,-0.00004967,-0.00006154,0.00001320,0.00001012,-0.00065641,-0
 .00257033,-0.00004447,-0.00157483,0.00144445,0.00032671,-0.00025536,0.
 00018556,0.00001099,0.00139849,-0.00111998,0.00091439,-0.00012308,0.00
 022925,0.00015070,-0.00036382,0.00029332,0.00026945,-0.00224342,0.0017
 3217,-0.00297853,-0.00001792,0.00008793,-0.00001414,-0.00000806,-0.000
 13136,0.00033908,-0.00006366,-0.00008597,-0.00063830,-0.00018758,0.000
 01165,0.00021324,-0.00002246,0.00002254,0.00000908,0.00019855,0.000072
 72,-0.00016270,-0.00009981,0.00003841,0.00007050,0.00006500,-0.0000378
 3,0.00002038,-0.00070455,0.00037805,-0.00041477,-0.00003753,0.00000429
 ,-0.00004945,0.00023583,-0.00018208,0.00007976,-0.00011827,-0.00014720
 ,0.00003697,-0.00002941,0.00002121,0.00002460,0.00003915,-0.00003077,0
 .00001938,-0.00008196,0.00001046,0.00013071,0.00008011,-0.00000250,-0.
 00005350,-0.00000333,0.00002089,0.00000683,0.00001774,0.00017185,-0.00
 000287,0.00005710,-0.00010655,-0.00002030,0.00000759,-0.00003300,0.000
 01562,0.00043121,0.00026865,-0.00002064,0.00048599,-0.00019530,-0.0001
 2340,0.00006111,-0.00004199,-0.00001353,0.04367713,-0.21652676,-0.0760
 5283,-0.04700036,0.23132269,0.00022931,0.00003911,-0.00001963,-0.00014
 632,0.00048892,-0.00004367,-0.00008625,0.00000792,-0.00004010,0.000067
 59,0.00005092,0.00010101,-0.00005576,0.00036433,-0.00018015,0.00002300
 ,0.00008391,-0.00001188,-0.00004595,0.00002298,-0.00000322,-0.00010308
 ,0.00008157,-0.00020995,0.00023947,0.00031401,0.00037936,-0.00006720,-
 0.00000969,0.00000406,0.00021022,0.00011544,0.00009475,0.00318792,-0.0
 0283085,-0.00188025,0.00007819,0.00000571,0.00004480,0.00240250,-0.002
 28244,-0.00110988,0.00234700,0.00298649,0.00927426,0.00001428,-0.00001
 725,0.00002895,-0.00006415,-0.00000112,-0.00006202,0.00001277,-0.00003
 201,-0.00003435,0.00000512,0.00000312,-0.00000618,0.00000242,-0.000000
 11,0.00002698,0.00317477,-0.00217603,-0.00003569,-0.00112113,0.0012884
 3,-0.00039289,-0.00017063,0.00031935,0.00012332,0.00044394,-0.00019243
 ,0.00042012,-0.00000754,0.00003642,0.00002996,-0.00026953,0.00009776,-
 0.00002030,-0.00049311,0.00022433,-0.00156615,-0.00005904,-0.00003832,
 0.00017389,0.00006210,0.00002070,-0.00011362,0.00014988,-0.00003941,0.
 00003243,-0.00011952,0.00003456,0.00007183,-0.00001720,0.00001424,0.00
 000510,0.00002642,0.00003050,-0.00004209,-0.00002464,0.00000606,0.0000
 1713,0.00002225,-0.00000993,0.00000753,-0.00018226,0.00011221,-0.00008
 554,-0.00001453,0.00001103,-0.00001719,0.00004584,-0.00005513,0.000023
 03,-0.00002664,-0.00003401,-0.00002006,-0.00000426,0.00000594,0.000008
 51,0.00000997,-0.00000233,0.00000509,-0.00003120,0.00000303,0.00002196
 ,0.00002392,-0.00000282,-0.00001327,-0.00001275,0.00000687,-0.00000269
 ,0.00002239,-0.00004113,0.00001859,0.00001333,0.00002321,0.00000832,-0
 .00000271,0.00000047,0.00000285,0.00009660,0.00003541,-0.00004536,-0.0
 0005847,0.00006605,-0.00010194,0.00001166,0.00003403,0.00001098,0.0079
 5486,-0.07436008,-0.04129153,-0.01547661,0.07912185,0.04004224,-0.0011
 5302,-0.00020596,0.00024920,0.00015003,0.00006450,-0.00002186,0.000107
 87,0.00004572,0.00001137,0.00005599,-0.00009631,0.00000728,0.00010801,
 0.00014497,0.00013378,-0.00012354,-0.00003050,-0.00001069,0.00003775,0
 .00001375,0.00001591,-0.00014794,0.00013392,0.00002564,0.00035423,-0.0
 0035188,0.00031821,0.00006082,-0.00005565,-0.00007232,0.00007044,0.000
 46809,0.00018129,-0.00180164,-0.00091735,-0.00153718,-0.00009514,-0.00
 000255,0.00009708,-0.00404031,-0.00025284,0.00135802,-0.00365177,0.003
 54971,-0.00396199,0.00002525,-0.00001809,0.00001889,0.00005621,-0.0000
 3358,0.00005792,0.00010265,-0.00002590,0.00006745,-0.00000993,-0.00000
 139,-0.00006337,0.00000487,0.00004408,-0.00000710,-0.00037173,-0.00014
 484,-0.00082808,0.00013979,-0.00012669,0.00011479,0.00022703,0.0001330
 3,0.00006004,-0.00043609,0.00036383,-0.00032600,0.00003300,-0.00006793
 ,-0.00001504,0.00001640,0.00008014,-0.00001360,0.00079786,0.00065698,-
 0.00044112,-0.00008198,-0.00032376,0.00004719,0.00000715,-0.00031655,0
 .00020263,-0.00055774,0.00009763,0.00023207,0.00039036,-0.00008152,-0.
 00026197,0.00001925,0.00000286,0.00001878,-0.00012136,-0.00001701,0.00
 015889,0.00013694,-0.00004999,-0.00011650,-0.00005427,0.00005965,-0.00
 001084,0.00027693,-0.00018721,0.00013574,-0.00000483,0.00003523,-0.000
 00341,-0.00013968,0.00008518,-0.00005256,0.00008900,-0.00012886,-0.000
 03597,-0.00004141,0.00000751,-0.00005477,-0.00012002,0.00014429,-0.000
 00841,0.00015876,-0.00000338,-0.00002685,-0.00014058,-0.00000167,0.000
 09628,0.00002227,0.00000129,-0.00000720,0.00036709,0.00000331,-0.00018
 837,0.00000135,0.00003446,0.00000421,-0.00016516,0.00000598,0.00010588
 ,0.00010557,-0.00000731,-0.00017530,0.00002307,-0.00008458,0.00005178,
 -0.00012799,0.00003918,0.00011095,-0.18335168,-0.07510495,-0.08404297,
 0.00910812,-0.01249613,-0.00221722,0.18368375,-0.00055648,-0.00020240,
 0.00016045,0.00027557,-0.00034955,-0.00032982,0.00003105,0.00002567,-0
 .00005177,0.00003105,-0.00009806,-0.00003244,-0.00005361,-0.00008673,0
 .00050533,-0.00010913,0.00001414,0.00006262,0.00007931,0.00000699,0.00
 000345,-0.00015264,0.00010303,-0.00005836,0.00053672,-0.00017690,0.000
 84722,0.00009219,-0.00023009,-0.00022976,0.00027113,0.00025787,-0.0000
 7690,-0.00285544,-0.00041143,0.00002391,-0.00017924,-0.00003698,0.0000
 3592,-0.00129871,0.00043707,0.00070015,-0.00038690,0.00452067,-0.00220
 583,0.00004358,-0.00001423,0.00002273,0.00005525,-0.00000174,0.0000466
 7,0.00005735,0.00001490,0.00004447,-0.00000427,-0.00000916,-0.00003130
 ,0.00000509,0.00002191,-0.00002340,-0.00102042,-0.00007027,-0.00067473
 ,0.00045023,-0.00022897,0.00003572,0.00011781,0.00002180,0.00006663,-0
 .00008967,0.00002453,-0.00017288,-0.00001065,-0.00005100,0.00002601,-0
 .00000374,0.00007238,0.00008817,0.00123064,0.00214453,-0.00056581,-0.0
 0000096,-0.00026132,-0.00018148,-0.00026452,-0.00042018,0.00011904,-0.
 00066203,0.00009806,-0.00005604,0.00030466,-0.00008504,-0.00017394,0.0
 0003419,-0.00000707,0.00002873,-0.00009426,0.00003188,0.00011155,0.000
 12007,-0.00004721,-0.00008782,-0.00002367,0.00004372,-0.00000841,0.000
 17930,-0.00011906,0.00008894,0.00000622,0.00003182,0.00002240,-0.00010
 208,0.00004036,-0.00003365,0.00006560,-0.00008766,-0.00004373,-0.00002
 546,0.00000141,-0.00004076,-0.00008870,0.00010849,-0.00000268,0.000105
 21,-0.00000420,-0.00004102,-0.00010421,-0.00000132,0.00007243,0.000017
 94,0.00000338,-0.00000137,0.00022480,0.00001355,-0.00013855,0.00002513
 ,0.00003011,-0.00000906,-0.00011634,0.00000146,0.00007759,-0.00003419,
 -0.00003196,-0.00015688,0.00012267,-0.00006863,0.00002439,-0.00008273,
 0.00004570,0.00005067,-0.07198000,-0.05841136,-0.04077553,-0.00910179,
 -0.00436811,-0.00393180,0.08491908,0.05776519,-0.00039503,-0.00020462,
 0.00008173,0.00030980,0.00003579,-0.00002993,0.00003780,0.00004903,-0.
 00000509,0.00006508,-0.00003927,0.00004403,0.00000406,-0.00020770,0.00
 036149,-0.00012212,-0.00000749,-0.00000536,0.00000416,0.00001866,0.000
 00264,-0.00007593,0.00003521,-0.00007445,0.00028067,0.00002491,0.00027
 526,0.00001775,-0.00003604,-0.00008914,-0.00005966,0.00000144,0.000227
 25,-0.00128240,-0.00007345,-0.00097221,-0.00002371,0.00001370,0.000052
 49,-0.00064712,0.00328895,0.00543556,-0.00224593,-0.00081104,0.0003548
 7,0.00001924,-0.00002097,0.00002057,0.00001907,-0.00001854,0.00003306,
 0.00007143,-0.00003087,0.00003164,-0.00000671,-0.00000159,-0.00004700,
 0.00000219,0.00002721,-0.00000086,0.00002021,-0.00045198,0.00043895,-0
 .00013825,-0.00024599,0.00018014,-0.00005350,-0.00022153,-0.00010771,-
 0.00012840,0.00004180,-0.00010020,-0.00000467,-0.00001583,0.00000061,-
 0.00003631,0.00003001,0.00009011,0.00005916,-0.00015880,-0.00155303,0.
 00002493,0.00017406,0.00017018,-0.00017151,-0.00018566,0.00035350,-0.0
 0040507,-0.00007641,-0.00004696,0.00024346,-0.00006239,-0.00013259,-0.
 00000329,0.00000451,0.00002384,-0.00004094,0.00000357,0.00006445,0.000
 06613,-0.00002487,-0.00006067,-0.00002306,0.00003284,-0.00000344,0.000
 09949,-0.00007081,0.00003780,-0.00000867,0.00002313,-0.00000292,-0.000
 06120,0.00002253,-0.00002049,0.00003867,-0.00008832,-0.00002547,-0.000
 02765,0.00000535,-0.00003073,-0.00006673,0.00008417,-0.00000387,0.0000
 8605,-0.00000072,0.00001037,-0.00007573,0.00000143,0.00004759,0.000017
 60,0.00000092,-0.00000601,0.00023144,0.00000883,-0.00010871,0.00001495
 ,-0.00001055,0.00000449,-0.00009194,-0.00000233,0.00006226,-0.00016795
 ,-0.00006773,-0.00011830,0.00001655,0.00008585,-0.00003525,-0.00004778
 ,0.00003961,0.00008373,-0.08549797,-0.04225999,-0.05773151,-0.00046008
 ,-0.00552857,-0.00362740,0.09061943,0.04687055,0.05645065\\-0.00000012
 ,-0.00000072,0.00000015,0.00000023,-0.00000015,0.,-0.00000008,-0.00000
 018,-0.00000012,-0.00000010,-0.00000007,-0.00000007,-0.00000098,-0.000
 00066,-0.00000024,-0.00000045,0.00000070,0.,0.00000014,0.00000034,-0.0
 0000005,-0.00000006,0.00000010,0.00000003,0.00000022,0.00000025,-0.000
 00058,0.00000005,0.00000018,-0.00000014,-0.00000027,-0.00000023,0.0000
 0004,-0.00000042,-0.00000127,0.00000128,-0.00000016,0.00000033,0.00000
 018,0.00000022,-0.00000048,0.00000015,0.00000069,-0.00000066,-0.000000
 95,0.00000031,0.00000038,0.00000010,0.00000049,0.00000003,0.00000009,0
 .,0.00000082,-0.00000008,-0.00000013,0.00000076,0.00000010,0.00000026,
 0.00000049,0.00000007,0.00000042,0.00000100,-0.00000122,0.00000013,-0.
 00000069,-0.00000035,0.00000007,-0.00000034,-0.00000008,0.00000007,-0.
 00000025,0.00000029,0.00000009,0.00000019,0.00000015,0.00000033,-0.000
 00030,0.00000005,0.00000051,0.00000075,-0.00000058,0.,-0.00000029,-0.0
 0000021,0.00000019,-0.00000080,0.00000015,0.,-0.00000009,0.00000016,0.
 00000030,-0.00000060,-0.00000005,0.00000052,-0.00000033,0.00000009,0.0
 0000019,0.00000004,0.00000013,0.00000040,-0.00000013,0.00000003,0.0000
 0058,0.00000016,0.00000023,0.00000028,0.00000031,0.00000002,0.00000006
 ,0.00000050,0.00000013,0.00000052,0.00000051,0.00000023,0.00000030,0.0
 0000051,0.00000022,0.00000011,0.00000077,0.00000004,0.00000054,0.00000
 071,0.00000020,-0.00000009,0.00000060,-0.00000025,-0.00000019,0.000000
 86,0.00000001,-0.00000043,0.00000049,-0.00000004,-0.00000022,-0.000000
 26,0.00000001,-0.00000063,0.00000009,-0.00000007,0.00000002,0.00000036
 ,0.,-0.00000025,-0.00000025,0.00000038,-0.00000182,-0.00000125,0.00000
 037,-0.00000025,0.00000013,-0.00000055,-0.00000130,0.00000080,0.000002
 12,-0.00000036,-0.00000195,-0.00000078,0.,-0.00000121,-0.00000075\\\@
 The archive entry for this job was punched.


 IT IS IMPOSSIBLE TO MEDITATE ON TIME AND THE MYSTERY 
 OF NATURE WITHOUT AN OVERWHELMING EMOTION AT THE
 LIMITATIONS OF HUMAN INTELLIGENCE.

                                         -- ALFRED NORTH WHITEHEAD
 Job cpu time:       3 days 15 hours 51 minutes 40.8 seconds.
 Elapsed time:       0 days  1 hours 50 minutes  6.1 seconds.
 File lengths (MBytes):  RWF=   8386 Int=      0 D2E=      0 Chk=     97 Scr=      2
 Normal termination of Gaussian 16 at Mon Dec 26 22:11:54 2022.
