 Entering Gaussian System, Link 0=/apps/GAU16/avx2/g16/g16
 Initial command:
 /apps/GAU16/avx2//g16/l1.exe "/localscratch/chegho/Gau-40545.inp" -scrdir="/localscratch/chegho/"
 Entering Link 1 = /apps/GAU16/avx2//g16/l1.exe PID=     40546.
  
 Copyright (c) 1988-2019, Gaussian, Inc.  All Rights Reserved.
  
 This is part of the Gaussian(R) 16 program.  It is based on
 the Gaussian(R) 09 system (copyright 2009, Gaussian, Inc.),
 the Gaussian(R) 03 system (copyright 2003, Gaussian, Inc.),
 the Gaussian(R) 98 system (copyright 1998, Gaussian, Inc.),
 the Gaussian(R) 94 system (copyright 1995, Gaussian, Inc.),
 the Gaussian 92(TM) system (copyright 1992, Gaussian, Inc.),
 the Gaussian 90(TM) system (copyright 1990, Gaussian, Inc.),
 the Gaussian 88(TM) system (copyright 1988, Gaussian, Inc.),
 the Gaussian 86(TM) system (copyright 1986, Carnegie Mellon
 University), and the Gaussian 82(TM) system (copyright 1983,
 Carnegie Mellon University). Gaussian is a federally registered
 trademark of Gaussian, Inc.
  
 This software contains proprietary and confidential information,
 including trade secrets, belonging to Gaussian, Inc.
  
 This software is provided under written license and may be
 used, copied, transmitted, or stored only in accord with that
 written license.
  
 The following legend is applicable only to US Government
 contracts under FAR:
  
                    RESTRICTED RIGHTS LEGEND
  
 Use, reproduction and disclosure by the US Government is
 subject to restrictions as set forth in subparagraphs (a)
 and (c) of the Commercial Computer Software - Restricted
 Rights clause in FAR 52.227-19.
  
 Gaussian, Inc.
 340 Quinnipiac St., Bldg. 40, Wallingford CT 06492
  
  
 ---------------------------------------------------------------
 Warning -- This program may not be used in any manner that
 competes with the business of Gaussian, Inc. or will provide
 assistance to any competitor of Gaussian, Inc.  The licensee
 of this program is prohibited from giving any competitor of
 Gaussian, Inc. access to this program.  By using this program,
 the user acknowledges that Gaussian, Inc. is engaged in the
 business of creating and licensing software in the field of
 computational chemistry and represents and warrants to the
 licensee that it is not a competitor of Gaussian, Inc. and that
 it will not use this program in any manner prohibited above.
 ---------------------------------------------------------------
  

 Cite this work as:
 Gaussian 16, Revision C.01,
 M. J. Frisch, G. W. Trucks, H. B. Schlegel, G. E. Scuseria, 
 M. A. Robb, J. R. Cheeseman, G. Scalmani, V. Barone, 
 G. A. Petersson, H. Nakatsuji, X. Li, M. Caricato, A. V. Marenich, 
 J. Bloino, B. G. Janesko, R. Gomperts, B. Mennucci, H. P. Hratchian, 
 J. V. Ortiz, A. F. Izmaylov, J. L. Sonnenberg, D. Williams-Young, 
 F. Ding, F. Lipparini, F. Egidi, J. Goings, B. Peng, A. Petrone, 
 T. Henderson, D. Ranasinghe, V. G. Zakrzewski, J. Gao, N. Rega, 
 G. Zheng, W. Liang, M. Hada, M. Ehara, K. Toyota, R. Fukuda, 
 J. Hasegawa, M. Ishida, T. Nakajima, Y. Honda, O. Kitao, H. Nakai, 
 T. Vreven, K. Throssell, J. A. Montgomery, Jr., J. E. Peralta, 
 F. Ogliaro, M. J. Bearpark, J. J. Heyd, E. N. Brothers, K. N. Kudin, 
 V. N. Staroverov, T. A. Keith, R. Kobayashi, J. Normand, 
 K. Raghavachari, A. P. Rendell, J. C. Burant, S. S. Iyengar, 
 J. Tomasi, M. Cossi, J. M. Millam, M. Klene, C. Adamo, R. Cammi, 
 J. W. Ochterski, R. L. Martin, K. Morokuma, O. Farkas, 
 J. B. Foresman, and D. J. Fox, Gaussian, Inc., Wallingford CT, 2019.
 
 ******************************************
 Gaussian 16:  ES64L-G16RevC.01  3-Jul-2019
                26-Dec-2022 
 ******************************************
 %nprocshared=48
 Will use up to   48 processors via shared memory.
 %mem=100GB
 ---------------------------------------
 # opt freq b3lyp/gen nosymm pseudo=read
 ---------------------------------------
 1/18=20,19=15,26=3,38=1/1,3;
 2/9=110,12=2,15=1,17=6,18=5,40=1/2;
 3/5=7,11=2,16=1,17=8,25=1,30=1,71=1,74=-5/1,2,3;
 4//1;
 5/5=2,38=5/2;
 6/7=2,8=2,9=2,10=2,28=1/1;
 7/30=1/1,2,3,16;
 1/18=20,19=15,26=3/3(2);
 2/9=110,15=1/2;
 99//99;
 2/9=110,15=1/2;
 3/5=7,6=1,11=2,16=1,17=8,25=1,30=1,71=1,74=-5,82=7/1,2,3;
 4/5=5,16=3,69=1/1;
 5/5=2,38=5/2;
 7/30=1/1,2,3,16;
 1/18=20,19=15,26=3/3(-5);
 2/9=110,15=1/2;
 6/7=2,8=2,9=2,10=2,19=2,28=1/1;
 99/9=1/99;
 -------------------
 Title Card Required
 -------------------
 Symbolic Z-matrix:
 Charge =  0 Multiplicity = 1
 42                   -0.02948   1.60372   12.88037 
 16                    1.27047   3.79167   12.59288 
 16                   -1.90305   3.24426   13.57522 
 16                   -0.75114   1.48097   10.49641 
 16                    1.68085  -0.04499   12.1495 
 42                   -2.65887   2.75438   11.40179 
 16                   -2.97117   2.67745   8.68565 
 16                   -1.25566   4.72036   10.66507 
 42                    0.83508   3.33594   10.34625 
 16                    0.03421   3.41141   7.87926 
 16                    2.47674   1.83313   9.4657 
 42                    2.83514   2.03822   11.94705 
 42                   -1.87596   4.95053   8.16145 
 16                    3.74178   2.55378   14.17369 
 16                    4.81725   3.64234   11.1375 
 16                   -3.72273   6.27701   9.10821 
 16                   -0.67832   7.06723   8.10228 
 42                   -4.67128   4.05413   9.01148 
 16                   -6.3649    2.17917   9.29997 
 16                   -4.54134   4.36451   11.48638 
 42                    2.46012   0.48453   14.27584 
 16                    4.39362  -0.98666   14.52002 
 16                    0.78111   2.01133   15.19759 
 42                    1.05746   5.5508    7.35352 
 16                    0.37613   5.        5.02517 
 16                    1.67215   5.56696   9.86861 
 42                    3.36808   4.07958   9.35653 
 16                    3.20678   4.02194   6.94015 
 16                    4.8958    6.16952   9.24568 
 42                    4.24572   6.06475   7.15461 
 16                    5.92365   6.34049   5.89801 
 16                    2.52113   7.66205   7.1355 
 42                    1.56503   7.04218   5.01153 
 16                    3.10116   6.80626   3.55501 
 16                   -0.00096   8.49423   4.66902 
 42                   -1.3771    6.39365   5.94652 
 16                   -2.6717    4.40927   5.87498 
 16                   -3.10849   7.557     5.15672 
 42                   -4.36616   6.01361   6.87762 
 16                   -5.74426   4.14099   6.94729 
 16                   -5.83163   7.5708    6.67364 
 42                   -5.59067   2.29133   11.36121 
 16                   -7.21467   2.1241    12.71608 
 16                   -3.91821   0.59374   11.49514 
 42                   -2.97506   1.16317   13.66595 
 16                   -1.36559  -0.54688   13.1379 
 16                   -4.70279   1.2468    14.89079 
 42                   -0.35668  -0.01681   15.20552 
 16                    1.26134  -1.47012   15.54761 
 16                   -1.98365   0.32292   16.56353 
 42                    5.1198    0.85241   13.45139 
 16                    4.70727   0.46513   11.24194 
 16                    7.26518   1.36674   13.71115 
 42                    6.92358   1.75708   11.15014 
 

 GradGradGradGradGradGradGradGradGradGradGradGradGradGradGradGradGradGrad
 Berny optimization.
 Initialization pass.
                           ----------------------------
                           !    Initial Parameters    !
                           ! (Angstroms and Degrees)  !
 --------------------------                            --------------------------
 ! Name  Definition              Value          Derivative Info.                !
 --------------------------------------------------------------------------------
 ! R1    R(1,2)                  2.5612         estimate D2E/DX2                !
 ! R2    R(1,3)                  2.5854         estimate D2E/DX2                !
 ! R3    R(1,4)                  2.4938         estimate D2E/DX2                !
 ! R4    R(1,5)                  2.4855         estimate D2E/DX2                !
 ! R5    R(1,12)                 3.044          estimate D2E/DX2                !
 ! R6    R(1,21)                 3.0656         estimate D2E/DX2                !
 ! R7    R(1,23)                 2.4885         estimate D2E/DX2                !
 ! R8    R(1,45)                 3.0802         estimate D2E/DX2                !
 ! R9    R(1,46)                 2.5449         estimate D2E/DX2                !
 ! R10   R(1,48)                 2.853          estimate D2E/DX2                !
 ! R11   R(2,9)                  2.3334         estimate D2E/DX2                !
 ! R12   R(2,12)                 2.4372         estimate D2E/DX2                !
 ! R13   R(3,6)                  2.3527         estimate D2E/DX2                !
 ! R14   R(3,45)                 2.3427         estimate D2E/DX2                !
 ! R15   R(4,6)                  2.4659         estimate D2E/DX2                !
 ! R16   R(4,9)                  2.4453         estimate D2E/DX2                !
 ! R17   R(5,12)                 2.3902         estimate D2E/DX2                !
 ! R18   R(5,21)                 2.3257         estimate D2E/DX2                !
 ! R19   R(6,7)                  2.7351         estimate D2E/DX2                !
 ! R20   R(6,8)                  2.5252         estimate D2E/DX2                !
 ! R21   R(6,20)                 2.4786         estimate D2E/DX2                !
 ! R22   R(6,42)                 2.9684         estimate D2E/DX2                !
 ! R23   R(6,44)                 2.5026         estimate D2E/DX2                !
 ! R24   R(6,45)                 2.7854         estimate D2E/DX2                !
 ! R25   R(7,13)                 2.577          estimate D2E/DX2                !
 ! R26   R(7,18)                 2.2117         estimate D2E/DX2                !
 ! R27   R(8,9)                  2.5277         estimate D2E/DX2                !
 ! R28   R(8,13)                 2.5896         estimate D2E/DX2                !
 ! R29   R(9,10)                 2.5948         estimate D2E/DX2                !
 ! R30   R(9,11)                 2.3935         estimate D2E/DX2                !
 ! R31   R(9,12)                 2.8717         estimate D2E/DX2                !
 ! R32   R(9,26)                 2.4303         estimate D2E/DX2                !
 ! R33   R(9,27)                 2.8193         estimate D2E/DX2                !
 ! R34   R(10,13)                2.4693         estimate D2E/DX2                !
 ! R35   R(10,24)                2.4291         estimate D2E/DX2                !
 ! R36   R(11,12)                2.5155         estimate D2E/DX2                !
 ! R37   R(11,27)                2.4193         estimate D2E/DX2                !
 ! R38   R(12,14)                2.4588         estimate D2E/DX2                !
 ! R39   R(12,15)                2.6753         estimate D2E/DX2                !
 ! R40   R(12,21)                2.8245         estimate D2E/DX2                !
 ! R41   R(12,51)                2.9814         estimate D2E/DX2                !
 ! R42   R(12,52)                2.5449         estimate D2E/DX2                !
 ! R43   R(13,16)                2.463          estimate D2E/DX2                !
 ! R44   R(13,17)                2.4327         estimate D2E/DX2                !
 ! R45   R(13,18)                3.0561         estimate D2E/DX2                !
 ! R46   R(13,24)                3.1013         estimate D2E/DX2                !
 ! R47   R(13,36)                2.6902         estimate D2E/DX2                !
 ! R48   R(13,37)                2.4807         estimate D2E/DX2                !
 ! R49   R(13,39)                2.9966         estimate D2E/DX2                !
 ! R50   R(14,21)                2.4362         estimate D2E/DX2                !
 ! R51   R(14,51)                2.3055         estimate D2E/DX2                !
 ! R52   R(15,27)                2.3373         estimate D2E/DX2                !
 ! R53   R(16,18)                2.4187         estimate D2E/DX2                !
 ! R54   R(16,39)                2.3364         estimate D2E/DX2                !
 ! R55   R(17,24)                2.4235         estimate D2E/DX2                !
 ! R56   R(17,36)                2.3642         estimate D2E/DX2                !
 ! R57   R(18,19)                2.543          estimate D2E/DX2                !
 ! R58   R(18,20)                2.4977         estimate D2E/DX2                !
 ! R59   R(18,39)                2.9131         estimate D2E/DX2                !
 ! R60   R(18,40)                2.328          estimate D2E/DX2                !
 ! R61   R(18,42)                3.078          estimate D2E/DX2                !
 ! R62   R(19,42)                2.2047         estimate D2E/DX2                !
 ! R63   R(20,42)                2.327          estimate D2E/DX2                !
 ! R64   R(21,22)                2.4418         estimate D2E/DX2                !
 ! R65   R(21,23)                2.4495         estimate D2E/DX2                !
 ! R66   R(21,48)                3.0083         estimate D2E/DX2                !
 ! R67   R(21,49)                2.622          estimate D2E/DX2                !
 ! R68   R(21,51)                2.8087         estimate D2E/DX2                !
 ! R69   R(22,51)                2.2475         estimate D2E/DX2                !
 ! R70   R(23,48)                2.3255         estimate D2E/DX2                !
 ! R71   R(24,25)                2.4877         estimate D2E/DX2                !
 ! R72   R(24,26)                2.5892         estimate D2E/DX2                !
 ! R73   R(24,28)                2.6698         estimate D2E/DX2                !
 ! R74   R(24,32)                2.5782         estimate D2E/DX2                !
 ! R75   R(24,33)                2.8225         estimate D2E/DX2                !
 ! R76   R(24,36)                2.9355         estimate D2E/DX2                !
 ! R77   R(25,33)                2.3631         estimate D2E/DX2                !
 ! R78   R(25,36)                2.4218         estimate D2E/DX2                !
 ! R79   R(26,27)                2.3132         estimate D2E/DX2                !
 ! R80   R(27,28)                2.4224         estimate D2E/DX2                !
 ! R81   R(27,29)                2.5911         estimate D2E/DX2                !
 ! R82   R(27,30)                3.0919         estimate D2E/DX2                !
 ! R83   R(28,30)                2.3018         estimate D2E/DX2                !
 ! R84   R(29,30)                2.1923         estimate D2E/DX2                !
 ! R85   R(30,31)                2.1144         estimate D2E/DX2                !
 ! R86   R(30,32)                2.3507         estimate D2E/DX2                !
 ! R87   R(32,33)                2.4103         estimate D2E/DX2                !
 ! R88   R(33,34)                2.13           estimate D2E/DX2                !
 ! R89   R(33,35)                2.1629         estimate D2E/DX2                !
 ! R90   R(36,37)                2.3704         estimate D2E/DX2                !
 ! R91   R(36,38)                2.2304         estimate D2E/DX2                !
 ! R92   R(37,39)                2.5398         estimate D2E/DX2                !
 ! R93   R(38,39)                2.6316         estimate D2E/DX2                !
 ! R94   R(39,40)                2.3261         estimate D2E/DX2                !
 ! R95   R(39,41)                2.148          estimate D2E/DX2                !
 ! R96   R(42,43)                2.1216         estimate D2E/DX2                !
 ! R97   R(42,44)                2.3868         estimate D2E/DX2                !
 ! R98   R(44,45)                2.4344         estimate D2E/DX2                !
 ! R99   R(45,46)                2.407          estimate D2E/DX2                !
 ! R100  R(45,47)                2.1195         estimate D2E/DX2                !
 ! R101  R(46,48)                2.3609         estimate D2E/DX2                !
 ! R102  R(48,49)                2.2016         estimate D2E/DX2                !
 ! R103  R(48,50)                2.1463         estimate D2E/DX2                !
 ! R104  R(51,52)                2.2808         estimate D2E/DX2                !
 ! R105  R(51,53)                2.2214         estimate D2E/DX2                !
 ! R106  R(51,54)                3.0607         estimate D2E/DX2                !
 ! R107  R(52,54)                2.567          estimate D2E/DX2                !
 ! R108  R(53,54)                2.613          estimate D2E/DX2                !
 ! A1    A(2,1,3)               81.7155         estimate D2E/DX2                !
 ! A2    A(2,1,4)               94.682          estimate D2E/DX2                !
 ! A3    A(2,1,5)              100.6261         estimate D2E/DX2                !
 ! A4    A(2,1,21)              87.1789         estimate D2E/DX2                !
 ! A5    A(2,1,23)              78.4202         estimate D2E/DX2                !
 ! A6    A(2,1,45)             129.5079         estimate D2E/DX2                !
 ! A7    A(2,1,48)             129.4147         estimate D2E/DX2                !
 ! A8    A(3,1,4)               94.4992         estimate D2E/DX2                !
 ! A9    A(3,1,12)             132.3602         estimate D2E/DX2                !
 ! A10   A(3,1,21)             134.252          estimate D2E/DX2                !
 ! A11   A(3,1,23)              83.2147         estimate D2E/DX2                !
 ! A12   A(3,1,46)              97.3864         estimate D2E/DX2                !
 ! A13   A(3,1,48)              93.3408         estimate D2E/DX2                !
 ! A14   A(4,1,5)               83.4185         estimate D2E/DX2                !
 ! A15   A(4,1,12)              89.2125         estimate D2E/DX2                !
 ! A16   A(4,1,21)             130.7068         estimate D2E/DX2                !
 ! A17   A(4,1,45)              87.7093         estimate D2E/DX2                !
 ! A18   A(4,1,46)              84.4458         estimate D2E/DX2                !
 ! A19   A(4,1,48)             135.8848         estimate D2E/DX2                !
 ! A20   A(5,1,23)              99.1095         estimate D2E/DX2                !
 ! A21   A(5,1,45)             129.6558         estimate D2E/DX2                !
 ! A22   A(5,1,46)              80.24           estimate D2E/DX2                !
 ! A23   A(5,1,48)              86.663          estimate D2E/DX2                !
 ! A24   A(12,1,23)             87.4545         estimate D2E/DX2                !
 ! A25   A(12,1,46)            130.2204         estimate D2E/DX2                !
 ! A26   A(12,1,48)            116.0332         estimate D2E/DX2                !
 ! A27   A(21,1,45)            127.4665         estimate D2E/DX2                !
 ! A28   A(21,1,46)             94.1169         estimate D2E/DX2                !
 ! A29   A(23,1,45)             95.5913         estimate D2E/DX2                !
 ! A30   A(23,1,46)            102.4272         estimate D2E/DX2                !
 ! A31   A(45,1,48)             66.4985         estimate D2E/DX2                !
 ! A32   A(1,2,9)               81.1712         estimate D2E/DX2                !
 ! A33   A(1,3,6)               81.5122         estimate D2E/DX2                !
 ! A34   A(1,4,6)               81.2268         estimate D2E/DX2                !
 ! A35   A(1,4,9)               80.4241         estimate D2E/DX2                !
 ! A36   A(6,4,9)               97.6229         estimate D2E/DX2                !
 ! A37   A(3,6,4)              101.4301         estimate D2E/DX2                !
 ! A38   A(3,6,7)              163.7283         estimate D2E/DX2                !
 ! A39   A(3,6,8)               85.9223         estimate D2E/DX2                !
 ! A40   A(3,6,20)              94.4278         estimate D2E/DX2                !
 ! A41   A(3,6,42)             111.2483         estimate D2E/DX2                !
 ! A42   A(3,6,44)             107.8769         estimate D2E/DX2                !
 ! A43   A(4,6,7)               73.094          estimate D2E/DX2                !
 ! A44   A(4,6,8)               82.2432         estimate D2E/DX2                !
 ! A45   A(4,6,20)             159.3209         estimate D2E/DX2                !
 ! A46   A(4,6,42)             132.7281         estimate D2E/DX2                !
 ! A47   A(4,6,44)              87.5443         estimate D2E/DX2                !
 ! A48   A(4,6,45)              95.2363         estimate D2E/DX2                !
 ! A49   A(7,6,8)               78.2072         estimate D2E/DX2                !
 ! A50   A(7,6,20)              88.0197         estimate D2E/DX2                !
 ! A51   A(7,6,42)              82.4878         estimate D2E/DX2                !
 ! A52   A(7,6,44)              87.4382         estimate D2E/DX2                !
 ! A53   A(7,6,45)             141.0963         estimate D2E/DX2                !
 ! A54   A(8,6,20)              85.77           estimate D2E/DX2                !
 ! A55   A(8,6,42)             131.7803         estimate D2E/DX2                !
 ! A56   A(8,6,44)             164.2923         estimate D2E/DX2                !
 ! A57   A(8,6,45)             138.1576         estimate D2E/DX2                !
 ! A58   A(20,6,44)            100.2182         estimate D2E/DX2                !
 ! A59   A(20,6,45)            104.9012         estimate D2E/DX2                !
 ! A60   A(42,6,45)             79.0404         estimate D2E/DX2                !
 ! A61   A(6,7,13)              97.3925         estimate D2E/DX2                !
 ! A62   A(6,7,18)              85.6392         estimate D2E/DX2                !
 ! A63   A(6,8,9)               94.0147         estimate D2E/DX2                !
 ! A64   A(6,8,13)             102.6007         estimate D2E/DX2                !
 ! A65   A(9,8,13)              97.173          estimate D2E/DX2                !
 ! A66   A(2,9,4)              102.1269         estimate D2E/DX2                !
 ! A67   A(2,9,8)               85.752          estimate D2E/DX2                !
 ! A68   A(2,9,11)             110.4179         estimate D2E/DX2                !
 ! A69   A(2,9,26)              86.8853         estimate D2E/DX2                !
 ! A70   A(2,9,27)              96.8251         estimate D2E/DX2                !
 ! A71   A(4,9,8)               82.5991         estimate D2E/DX2                !
 ! A72   A(4,9,10)              83.1215         estimate D2E/DX2                !
 ! A73   A(4,9,11)              89.4968         estimate D2E/DX2                !
 ! A74   A(4,9,12)              94.2871         estimate D2E/DX2                !
 ! A75   A(4,9,26)             158.7295         estimate D2E/DX2                !
 ! A76   A(4,9,27)             143.5564         estimate D2E/DX2                !
 ! A77   A(8,9,10)              81.2979         estimate D2E/DX2                !
 ! A78   A(8,9,11)             163.253          estimate D2E/DX2                !
 ! A79   A(8,9,12)             138.8726         estimate D2E/DX2                !
 ! A80   A(8,9,26)              78.8657         estimate D2E/DX2                !
 ! A81   A(8,9,27)             130.0108         estimate D2E/DX2                !
 ! A82   A(10,9,11)             83.1185         estimate D2E/DX2                !
 ! A83   A(10,9,12)            139.2944         estimate D2E/DX2                !
 ! A84   A(10,9,26)             83.8432         estimate D2E/DX2                !
 ! A85   A(10,9,27)             86.3229         estimate D2E/DX2                !
 ! A86   A(11,9,26)            105.536          estimate D2E/DX2                !
 ! A87   A(12,9,26)            106.5297         estimate D2E/DX2                !
 ! A88   A(12,9,27)             71.8895         estimate D2E/DX2                !
 ! A89   A(9,10,13)             98.5249         estimate D2E/DX2                !
 ! A90   A(9,10,24)             95.8185         estimate D2E/DX2                !
 ! A91   A(12,11,27)            85.1995         estimate D2E/DX2                !
 ! A92   A(1,12,9)              65.165          estimate D2E/DX2                !
 ! A93   A(1,12,11)             99.017          estimate D2E/DX2                !
 ! A94   A(1,12,14)             95.6974         estimate D2E/DX2                !
 ! A95   A(1,12,15)            151.1156         estimate D2E/DX2                !
 ! A96   A(1,12,51)            120.6413         estimate D2E/DX2                !
 ! A97   A(1,12,52)            133.5508         estimate D2E/DX2                !
 ! A98   A(2,12,5)             107.1316         estimate D2E/DX2                !
 ! A99   A(2,12,11)            103.2136         estimate D2E/DX2                !
 ! A100  A(2,12,14)             81.1355         estimate D2E/DX2                !
 ! A101  A(2,12,15)             97.1489         estimate D2E/DX2                !
 ! A102  A(2,12,21)             95.2806         estimate D2E/DX2                !
 ! A103  A(2,12,51)            130.1215         estimate D2E/DX2                !
 ! A104  A(5,12,9)              96.0113         estimate D2E/DX2                !
 ! A105  A(5,12,11)             86.7716         estimate D2E/DX2                !
 ! A106  A(5,12,14)            106.5059         estimate D2E/DX2                !
 ! A107  A(5,12,15)            154.9591         estimate D2E/DX2                !
 ! A108  A(5,12,51)             88.8928         estimate D2E/DX2                !
 ! A109  A(5,12,52)             80.7922         estimate D2E/DX2                !
 ! A110  A(9,12,14)            131.8248         estimate D2E/DX2                !
 ! A111  A(9,12,15)             94.3798         estimate D2E/DX2                !
 ! A112  A(9,12,21)            128.0029         estimate D2E/DX2                !
 ! A113  A(9,12,52)            129.585          estimate D2E/DX2                !
 ! A114  A(11,12,14)           164.3496         estimate D2E/DX2                !
 ! A115  A(11,12,15)            81.7178         estimate D2E/DX2                !
 ! A116  A(11,12,21)           138.5507         estimate D2E/DX2                !
 ! A117  A(11,12,51)           125.0632         estimate D2E/DX2                !
 ! A118  A(11,12,52)            77.3559         estimate D2E/DX2                !
 ! A119  A(14,12,15)            82.8261         estimate D2E/DX2                !
 ! A120  A(14,12,52)            96.2728         estimate D2E/DX2                !
 ! A121  A(15,12,21)           132.6632         estimate D2E/DX2                !
 ! A122  A(15,12,51)            79.8298         estimate D2E/DX2                !
 ! A123  A(15,12,52)            75.035          estimate D2E/DX2                !
 ! A124  A(21,12,52)            89.2032         estimate D2E/DX2                !
 ! A125  A(7,13,8)              80.0225         estimate D2E/DX2                !
 ! A126  A(7,13,10)             78.5926         estimate D2E/DX2                !
 ! A127  A(7,13,16)             94.4847         estimate D2E/DX2                !
 ! A128  A(7,13,24)            128.7333         estimate D2E/DX2                !
 ! A129  A(7,13,36)            136.0081         estimate D2E/DX2                !
 ! A130  A(7,13,37)             81.8776         estimate D2E/DX2                !
 ! A131  A(7,13,39)             92.6882         estimate D2E/DX2                !
 ! A132  A(8,13,10)             82.5178         estimate D2E/DX2                !
 ! A133  A(8,13,16)             81.7114         estimate D2E/DX2                !
 ! A134  A(8,13,17)             89.0217         estimate D2E/DX2                !
 ! A135  A(8,13,18)             85.6479         estimate D2E/DX2                !
 ! A136  A(8,13,24)             92.4357         estimate D2E/DX2                !
 ! A137  A(8,13,36)            143.0592         estimate D2E/DX2                !
 ! A138  A(8,13,37)            161.5386         estimate D2E/DX2                !
 ! A139  A(8,13,39)            130.151          estimate D2E/DX2                !
 ! A140  A(10,13,16)           163.6673         estimate D2E/DX2                !
 ! A141  A(10,13,17)            99.1327         estimate D2E/DX2                !
 ! A142  A(10,13,18)           123.8158         estimate D2E/DX2                !
 ! A143  A(10,13,36)            95.5565         estimate D2E/DX2                !
 ! A144  A(10,13,37)            90.3903         estimate D2E/DX2                !
 ! A145  A(10,13,39)           144.5899         estimate D2E/DX2                !
 ! A146  A(16,13,17)            84.8296         estimate D2E/DX2                !
 ! A147  A(16,13,24)           134.8385         estimate D2E/DX2                !
 ! A148  A(16,13,36)            99.5911         estimate D2E/DX2                !
 ! A149  A(16,13,37)           103.3728         estimate D2E/DX2                !
 ! A150  A(17,13,18)           135.419          estimate D2E/DX2                !
 ! A151  A(17,13,37)           108.9859         estimate D2E/DX2                !
 ! A152  A(17,13,39)            95.1642         estimate D2E/DX2                !
 ! A153  A(18,13,36)           123.7762         estimate D2E/DX2                !
 ! A154  A(18,13,37)            84.2016         estimate D2E/DX2                !
 ! A155  A(24,13,37)            96.0572         estimate D2E/DX2                !
 ! A156  A(24,13,39)           127.2831         estimate D2E/DX2                !
 ! A157  A(36,13,39)            67.111          estimate D2E/DX2                !
 ! A158  A(12,15,27)            83.303          estimate D2E/DX2                !
 ! A159  A(7,18,16)            106.0504         estimate D2E/DX2                !
 ! A160  A(7,18,19)             93.9975         estimate D2E/DX2                !
 ! A161  A(7,18,20)            100.564          estimate D2E/DX2                !
 ! A162  A(7,18,39)            103.3125         estimate D2E/DX2                !
 ! A163  A(7,18,40)            104.2928         estimate D2E/DX2                !
 ! A164  A(7,18,42)             89.174          estimate D2E/DX2                !
 ! A165  A(13,18,19)           148.9766         estimate D2E/DX2                !
 ! A166  A(13,18,20)           101.0445         estimate D2E/DX2                !
 ! A167  A(13,18,40)            99.4393         estimate D2E/DX2                !
 ! A168  A(13,18,42)           130.8078         estimate D2E/DX2                !
 ! A169  A(16,18,19)           159.1038         estimate D2E/DX2                !
 ! A170  A(16,18,20)            79.9659         estimate D2E/DX2                !
 ! A171  A(16,18,40)           100.4818         estimate D2E/DX2                !
 ! A172  A(16,18,42)           127.8028         estimate D2E/DX2                !
 ! A173  A(19,18,20)            90.7941         estimate D2E/DX2                !
 ! A174  A(19,18,39)           130.4507         estimate D2E/DX2                !
 ! A175  A(19,18,40)            79.6968         estimate D2E/DX2                !
 ! A176  A(20,18,39)           129.5533         estimate D2E/DX2                !
 ! A177  A(20,18,40)           153.8871         estimate D2E/DX2                !
 ! A178  A(40,18,42)           124.0959         estimate D2E/DX2                !
 ! A179  A(6,20,18)             85.6971         estimate D2E/DX2                !
 ! A180  A(1,21,14)             95.6278         estimate D2E/DX2                !
 ! A181  A(1,21,22)            155.3023         estimate D2E/DX2                !
 ! A182  A(1,21,49)             96.9874         estimate D2E/DX2                !
 ! A183  A(1,21,51)            125.9851         estimate D2E/DX2                !
 ! A184  A(5,21,14)            109.3495         estimate D2E/DX2                !
 ! A185  A(5,21,22)            102.6835         estimate D2E/DX2                !
 ! A186  A(5,21,23)            104.85           estimate D2E/DX2                !
 ! A187  A(5,21,48)             86.0358         estimate D2E/DX2                !
 ! A188  A(5,21,49)             96.9226         estimate D2E/DX2                !
 ! A189  A(5,21,51)             94.516          estimate D2E/DX2                !
 ! A190  A(12,21,22)           107.983          estimate D2E/DX2                !
 ! A191  A(12,21,23)            93.3481         estimate D2E/DX2                !
 ! A192  A(12,21,48)           118.0856         estimate D2E/DX2                !
 ! A193  A(12,21,49)           150.5364         estimate D2E/DX2                !
 ! A194  A(14,21,22)            95.7029         estimate D2E/DX2                !
 ! A195  A(14,21,23)            81.1968         estimate D2E/DX2                !
 ! A196  A(14,21,48)           130.3243         estimate D2E/DX2                !
 ! A197  A(14,21,49)           153.3879         estimate D2E/DX2                !
 ! A198  A(22,21,23)           151.7259         estimate D2E/DX2                !
 ! A199  A(22,21,48)           127.5973         estimate D2E/DX2                !
 ! A200  A(22,21,49)            82.2051         estimate D2E/DX2                !
 ! A201  A(23,21,49)            88.2096         estimate D2E/DX2                !
 ! A202  A(23,21,51)           132.6805         estimate D2E/DX2                !
 ! A203  A(49,21,51)           132.2945         estimate D2E/DX2                !
 ! A204  A(10,24,17)           100.5165         estimate D2E/DX2                !
 ! A205  A(10,24,25)            83.8115         estimate D2E/DX2                !
 ! A206  A(10,24,26)            83.9879         estimate D2E/DX2                !
 ! A207  A(10,24,28)            82.4313         estimate D2E/DX2                !
 ! A208  A(10,24,33)           136.1129         estimate D2E/DX2                !
 ! A209  A(10,24,36)            90.4159         estimate D2E/DX2                !
 ! A210  A(13,24,25)            86.6702         estimate D2E/DX2                !
 ! A211  A(13,24,26)            88.436          estimate D2E/DX2                !
 ! A212  A(13,24,28)           133.7069         estimate D2E/DX2                !
 ! A213  A(13,24,32)           135.8485         estimate D2E/DX2                !
 ! A214  A(13,24,33)           119.2435         estimate D2E/DX2                !
 ! A215  A(17,24,25)           103.3882         estimate D2E/DX2                !
 ! A216  A(17,24,26)            82.2997         estimate D2E/DX2                !
 ! A217  A(17,24,32)            85.4311         estimate D2E/DX2                !
 ! A218  A(17,24,33)            93.1262         estimate D2E/DX2                !
 ! A219  A(25,24,28)            87.0644         estimate D2E/DX2                !
 ! A220  A(25,24,32)           104.9301         estimate D2E/DX2                !
 ! A221  A(26,24,28)            87.8711         estimate D2E/DX2                !
 ! A222  A(26,24,32)            86.6894         estimate D2E/DX2                !
 ! A223  A(26,24,33)           139.4654         estimate D2E/DX2                !
 ! A224  A(26,24,36)           131.3528         estimate D2E/DX2                !
 ! A225  A(28,24,32)            89.9315         estimate D2E/DX2                !
 ! A226  A(28,24,33)            91.6811         estimate D2E/DX2                !
 ! A227  A(28,24,36)           139.2776         estimate D2E/DX2                !
 ! A228  A(32,24,36)           101.2549         estimate D2E/DX2                !
 ! A229  A(33,24,36)            66.4047         estimate D2E/DX2                !
 ! A230  A(33,25,36)            82.4785         estimate D2E/DX2                !
 ! A231  A(9,26,24)             95.9357         estimate D2E/DX2                !
 ! A232  A(24,26,27)            87.4208         estimate D2E/DX2                !
 ! A233  A(9,27,15)            103.8989         estimate D2E/DX2                !
 ! A234  A(9,27,28)            106.5035         estimate D2E/DX2                !
 ! A235  A(9,27,29)            139.2421         estimate D2E/DX2                !
 ! A236  A(9,27,30)            132.4065         estimate D2E/DX2                !
 ! A237  A(11,27,15)            91.1656         estimate D2E/DX2                !
 ! A238  A(11,27,26)           108.4792         estimate D2E/DX2                !
 ! A239  A(11,27,28)            89.9076         estimate D2E/DX2                !
 ! A240  A(11,27,30)           137.1311         estimate D2E/DX2                !
 ! A241  A(15,27,26)           113.9646         estimate D2E/DX2                !
 ! A242  A(15,27,28)           142.8343         estimate D2E/DX2                !
 ! A243  A(15,27,29)            79.5094         estimate D2E/DX2                !
 ! A244  A(15,27,30)           119.1281         estimate D2E/DX2                !
 ! A245  A(26,27,28)           100.7956         estimate D2E/DX2                !
 ! A246  A(26,27,29)            85.5902         estimate D2E/DX2                !
 ! A247  A(26,27,30)            87.3014         estimate D2E/DX2                !
 ! A248  A(28,27,29)            90.904          estimate D2E/DX2                !
 ! A249  A(24,28,27)            83.4272         estimate D2E/DX2                !
 ! A250  A(24,28,30)            80.8353         estimate D2E/DX2                !
 ! A251  A(27,30,31)           137.0751         estimate D2E/DX2                !
 ! A252  A(27,30,32)           103.5221         estimate D2E/DX2                !
 ! A253  A(28,30,29)           105.3738         estimate D2E/DX2                !
 ! A254  A(28,30,31)           114.743          estimate D2E/DX2                !
 ! A255  A(28,30,32)           105.7322         estimate D2E/DX2                !
 ! A256  A(29,30,31)           108.985          estimate D2E/DX2                !
 ! A257  A(29,30,32)           101.1181         estimate D2E/DX2                !
 ! A258  A(31,30,32)           119.2592         estimate D2E/DX2                !
 ! A259  A(24,32,30)            81.9164         estimate D2E/DX2                !
 ! A260  A(30,32,33)            97.0901         estimate D2E/DX2                !
 ! A261  A(24,33,34)           129.6846         estimate D2E/DX2                !
 ! A262  A(24,33,35)           110.8504         estimate D2E/DX2                !
 ! A263  A(25,33,32)           114.6289         estimate D2E/DX2                !
 ! A264  A(25,33,34)           105.7279         estimate D2E/DX2                !
 ! A265  A(25,33,35)           102.5228         estimate D2E/DX2                !
 ! A266  A(32,33,34)           110.1811         estimate D2E/DX2                !
 ! A267  A(32,33,35)           104.7197         estimate D2E/DX2                !
 ! A268  A(34,33,35)           119.2245         estimate D2E/DX2                !
 ! A269  A(13,36,25)            97.9768         estimate D2E/DX2                !
 ! A270  A(13,36,38)           115.3016         estimate D2E/DX2                !
 ! A271  A(17,36,25)           107.2706         estimate D2E/DX2                !
 ! A272  A(17,36,37)           115.3062         estimate D2E/DX2                !
 ! A273  A(17,36,38)           113.8109         estimate D2E/DX2                !
 ! A274  A(24,36,37)           103.1232         estimate D2E/DX2                !
 ! A275  A(24,36,38)           164.4226         estimate D2E/DX2                !
 ! A276  A(25,36,37)            84.3845         estimate D2E/DX2                !
 ! A277  A(25,36,38)           136.6691         estimate D2E/DX2                !
 ! A278  A(37,36,38)            90.1146         estimate D2E/DX2                !
 ! A279  A(36,37,39)            79.8424         estimate D2E/DX2                !
 ! A280  A(36,38,39)            80.4171         estimate D2E/DX2                !
 ! A281  A(13,39,38)            95.2258         estimate D2E/DX2                !
 ! A282  A(13,39,40)           101.1802         estimate D2E/DX2                !
 ! A283  A(13,39,41)           149.862          estimate D2E/DX2                !
 ! A284  A(16,39,37)           105.3297         estimate D2E/DX2                !
 ! A285  A(16,39,38)           115.2511         estimate D2E/DX2                !
 ! A286  A(16,39,40)           103.0214         estimate D2E/DX2                !
 ! A287  A(16,39,41)           101.3507         estimate D2E/DX2                !
 ! A288  A(18,39,37)            86.2245         estimate D2E/DX2                !
 ! A289  A(18,39,38)           157.4541         estimate D2E/DX2                !
 ! A290  A(18,39,41)           119.0602         estimate D2E/DX2                !
 ! A291  A(37,39,38)            78.0808         estimate D2E/DX2                !
 ! A292  A(37,39,40)            84.1773         estimate D2E/DX2                !
 ! A293  A(37,39,41)           151.1183         estimate D2E/DX2                !
 ! A294  A(38,39,40)           140.7939         estimate D2E/DX2                !
 ! A295  A(38,39,41)            80.7228         estimate D2E/DX2                !
 ! A296  A(40,39,41)           100.5016         estimate D2E/DX2                !
 ! A297  A(6,42,18)             68.0427         estimate D2E/DX2                !
 ! A298  A(6,42,19)            111.5651         estimate D2E/DX2                !
 ! A299  A(6,42,43)            139.4287         estimate D2E/DX2                !
 ! A300  A(18,42,43)           139.5799         estimate D2E/DX2                !
 ! A301  A(18,42,44)           103.9381         estimate D2E/DX2                !
 ! A302  A(19,42,20)           104.7128         estimate D2E/DX2                !
 ! A303  A(19,42,43)           108.9195         estimate D2E/DX2                !
 ! A304  A(19,42,44)           105.2094         estimate D2E/DX2                !
 ! A305  A(20,42,43)           112.3993         estimate D2E/DX2                !
 ! A306  A(20,42,44)           108.3408         estimate D2E/DX2                !
 ! A307  A(43,42,44)           116.3898         estimate D2E/DX2                !
 ! A308  A(42,44,45)            98.9252         estimate D2E/DX2                !
 ! A309  A(1,45,6)              66.5732         estimate D2E/DX2                !
 ! A310  A(1,45,44)            100.1672         estimate D2E/DX2                !
 ! A311  A(1,45,47)            157.1132         estimate D2E/DX2                !
 ! A312  A(3,45,44)            110.5203         estimate D2E/DX2                !
 ! A313  A(3,45,46)            108.46           estimate D2E/DX2                !
 ! A314  A(3,45,47)            111.121          estimate D2E/DX2                !
 ! A315  A(6,45,46)             98.7215         estimate D2E/DX2                !
 ! A316  A(6,45,47)            122.6663         estimate D2E/DX2                !
 ! A317  A(44,45,46)            84.1022         estimate D2E/DX2                !
 ! A318  A(44,45,47)           102.0483         estimate D2E/DX2                !
 ! A319  A(46,45,47)           134.4177         estimate D2E/DX2                !
 ! A320  A(45,46,48)            86.2218         estimate D2E/DX2                !
 ! A321  A(1,48,49)            114.6638         estimate D2E/DX2                !
 ! A322  A(1,48,50)            120.8433         estimate D2E/DX2                !
 ! A323  A(21,48,46)            99.6079         estimate D2E/DX2                !
 ! A324  A(21,48,50)           151.5133         estimate D2E/DX2                !
 ! A325  A(23,48,46)           113.6974         estimate D2E/DX2                !
 ! A326  A(23,48,49)           102.5129         estimate D2E/DX2                !
 ! A327  A(23,48,50)           103.5913         estimate D2E/DX2                !
 ! A328  A(46,48,49)           107.5734         estimate D2E/DX2                !
 ! A329  A(46,48,50)           105.4095         estimate D2E/DX2                !
 ! A330  A(49,48,50)           124.2823         estimate D2E/DX2                !
 ! A331  A(12,51,22)           108.5279         estimate D2E/DX2                !
 ! A332  A(12,51,53)           134.9899         estimate D2E/DX2                !
 ! A333  A(12,51,54)            87.402          estimate D2E/DX2                !
 ! A334  A(14,51,22)           105.1747         estimate D2E/DX2                !
 ! A335  A(14,51,52)           108.7051         estimate D2E/DX2                !
 ! A336  A(14,51,53)           111.7005         estimate D2E/DX2                !
 ! A337  A(14,51,54)           111.6961         estimate D2E/DX2                !
 ! A338  A(21,51,52)            95.212          estimate D2E/DX2                !
 ! A339  A(21,51,53)           155.5782         estimate D2E/DX2                !
 ! A340  A(21,51,54)           144.833          estimate D2E/DX2                !
 ! A341  A(22,51,52)           105.2613         estimate D2E/DX2                !
 ! A342  A(22,51,53)           116.4807         estimate D2E/DX2                !
 ! A343  A(22,51,54)           142.1633         estimate D2E/DX2                !
 ! A344  A(52,51,53)           109.1034         estimate D2E/DX2                !
 ! A345  A(12,52,54)           109.508          estimate D2E/DX2                !
 ! A346  A(52,54,53)            90.151          estimate D2E/DX2                !
 ! A347  L(2,1,46,3,-1)        179.1018         estimate D2E/DX2                !
 ! A348  L(3,1,5,2,-1)         182.3415         estimate D2E/DX2                !
 ! A349  L(4,1,23,2,-1)        173.1022         estimate D2E/DX2                !
 ! A350  L(12,1,45,4,-1)       176.9219         estimate D2E/DX2                !
 ! A351  L(2,9,10,4,-1)        185.2484         estimate D2E/DX2                !
 ! A352  L(2,12,52,5,-1)       187.9238         estimate D2E/DX2                !
 ! A353  L(9,12,51,1,-1)       185.8063         estimate D2E/DX2                !
 ! A354  L(7,13,17,8,-1)       169.0442         estimate D2E/DX2                !
 ! A355  L(18,13,24,8,-1)      178.0837         estimate D2E/DX2                !
 ! A356  L(39,18,42,7,-1)      192.4864         estimate D2E/DX2                !
 ! A357  L(48,21,51,5,-1)      180.5518         estimate D2E/DX2                !
 ! A358  L(10,24,32,17,-1)     185.9476         estimate D2E/DX2                !
 ! A359  L(17,24,28,10,-1)     182.9478         estimate D2E/DX2                !
 ! A360  L(25,24,26,10,-1)     167.7994         estimate D2E/DX2                !
 ! A361  L(11,27,29,15,-1)     170.675          estimate D2E/DX2                !
 ! A362  L(2,1,46,3,-2)        179.0565         estimate D2E/DX2                !
 ! A363  L(3,1,5,2,-2)         181.9569         estimate D2E/DX2                !
 ! A364  L(4,1,23,2,-2)        178.5959         estimate D2E/DX2                !
 ! A365  L(12,1,45,4,-2)       180.1311         estimate D2E/DX2                !
 ! A366  L(2,9,10,4,-2)        166.0801         estimate D2E/DX2                !
 ! A367  L(2,12,52,5,-2)       180.5418         estimate D2E/DX2                !
 ! A368  L(9,12,51,1,-2)       181.2004         estimate D2E/DX2                !
 ! A369  L(7,13,17,8,-2)       179.0061         estimate D2E/DX2                !
 ! A370  L(18,13,24,8,-2)      174.2234         estimate D2E/DX2                !
 ! A371  L(39,18,42,7,-2)      182.0579         estimate D2E/DX2                !
 ! A372  L(48,21,51,5,-2)      182.2494         estimate D2E/DX2                !
 ! A373  L(10,24,32,17,-2)     169.6489         estimate D2E/DX2                !
 ! A374  L(17,24,28,10,-2)     190.366          estimate D2E/DX2                !
 ! A375  L(25,24,26,10,-2)     176.4901         estimate D2E/DX2                !
 ! A376  L(11,27,29,15,-2)     168.8112         estimate D2E/DX2                !
 ! D1    D(3,1,2,9)           -103.3248         estimate D2E/DX2                !
 ! D2    D(4,1,2,9)             -9.448          estimate D2E/DX2                !
 ! D3    D(5,1,2,9)             74.7183         estimate D2E/DX2                !
 ! D4    D(21,1,2,9)           121.1789         estimate D2E/DX2                !
 ! D5    D(23,1,2,9)           171.9561         estimate D2E/DX2                !
 ! D6    D(45,1,2,9)          -100.3392         estimate D2E/DX2                !
 ! D7    D(48,1,2,9)           169.165          estimate D2E/DX2                !
 ! D8    D(2,1,3,6)            102.7484         estimate D2E/DX2                !
 ! D9    D(4,1,3,6)              8.6607         estimate D2E/DX2                !
 ! D10   D(12,1,3,6)           101.7042         estimate D2E/DX2                !
 ! D11   D(21,1,3,6)          -179.4498         estimate D2E/DX2                !
 ! D12   D(23,1,3,6)          -178.0268         estimate D2E/DX2                !
 ! D13   D(46,1,3,6)           -76.3081         estimate D2E/DX2                !
 ! D14   D(48,1,3,6)          -127.8897         estimate D2E/DX2                !
 ! D15   D(2,1,4,6)            -90.301          estimate D2E/DX2                !
 ! D16   D(2,1,4,9)              9.031          estimate D2E/DX2                !
 ! D17   D(3,1,4,6)             -8.2664         estimate D2E/DX2                !
 ! D18   D(3,1,4,9)             91.0656         estimate D2E/DX2                !
 ! D19   D(5,1,4,6)            169.5159         estimate D2E/DX2                !
 ! D20   D(5,1,4,9)            -91.1521         estimate D2E/DX2                !
 ! D21   D(12,1,4,6)          -140.7092         estimate D2E/DX2                !
 ! D22   D(12,1,4,9)           -41.3772         estimate D2E/DX2                !
 ! D23   D(21,1,4,6)           179.3944         estimate D2E/DX2                !
 ! D24   D(21,1,4,9)           -81.2736         estimate D2E/DX2                !
 ! D25   D(45,1,4,6)            39.1597         estimate D2E/DX2                !
 ! D26   D(45,1,4,9)           138.4917         estimate D2E/DX2                !
 ! D27   D(46,1,4,6)            88.7362         estimate D2E/DX2                !
 ! D28   D(46,1,4,9)          -171.9318         estimate D2E/DX2                !
 ! D29   D(48,1,4,6)            91.2384         estimate D2E/DX2                !
 ! D30   D(48,1,4,9)          -169.4296         estimate D2E/DX2                !
 ! D31   D(3,1,12,9)           -57.6694         estimate D2E/DX2                !
 ! D32   D(3,1,12,11)          -98.51           estimate D2E/DX2                !
 ! D33   D(3,1,12,14)           76.1418         estimate D2E/DX2                !
 ! D34   D(3,1,12,15)           -9.329          estimate D2E/DX2                !
 ! D35   D(3,1,12,51)          121.1302         estimate D2E/DX2                !
 ! D36   D(3,1,12,52)         -179.5966         estimate D2E/DX2                !
 ! D37   D(4,1,12,9)            37.7035         estimate D2E/DX2                !
 ! D38   D(4,1,12,11)           -3.1371         estimate D2E/DX2                !
 ! D39   D(4,1,12,14)          171.5146         estimate D2E/DX2                !
 ! D40   D(4,1,12,15)           86.0439         estimate D2E/DX2                !
 ! D41   D(4,1,12,51)         -143.497          estimate D2E/DX2                !
 ! D42   D(4,1,12,52)          -84.2237         estimate D2E/DX2                !
 ! D43   D(23,1,12,9)         -136.0981         estimate D2E/DX2                !
 ! D44   D(23,1,12,11)        -176.9387         estimate D2E/DX2                !
 ! D45   D(23,1,12,14)          -2.2869         estimate D2E/DX2                !
 ! D46   D(23,1,12,15)         -87.7577         estimate D2E/DX2                !
 ! D47   D(23,1,12,51)          42.7015         estimate D2E/DX2                !
 ! D48   D(23,1,12,52)         101.9747         estimate D2E/DX2                !
 ! D49   D(46,1,12,9)          119.7486         estimate D2E/DX2                !
 ! D50   D(46,1,12,11)          78.908          estimate D2E/DX2                !
 ! D51   D(46,1,12,14)        -106.4402         estimate D2E/DX2                !
 ! D52   D(46,1,12,15)         168.089          estimate D2E/DX2                !
 ! D53   D(46,1,12,51)         -61.4518         estimate D2E/DX2                !
 ! D54   D(46,1,12,52)          -2.1786         estimate D2E/DX2                !
 ! D55   D(48,1,12,9)         -179.8889         estimate D2E/DX2                !
 ! D56   D(48,1,12,11)         139.2705         estimate D2E/DX2                !
 ! D57   D(48,1,12,14)         -46.0777         estimate D2E/DX2                !
 ! D58   D(48,1,12,15)        -131.5485         estimate D2E/DX2                !
 ! D59   D(48,1,12,51)          -1.0893         estimate D2E/DX2                !
 ! D60   D(48,1,12,52)          58.1839         estimate D2E/DX2                !
 ! D61   D(2,1,21,14)            3.102          estimate D2E/DX2                !
 ! D62   D(2,1,21,22)         -113.8499         estimate D2E/DX2                !
 ! D63   D(2,1,21,49)          159.6206         estimate D2E/DX2                !
 ! D64   D(2,1,21,51)          -42.4284         estimate D2E/DX2                !
 ! D65   D(3,1,21,14)          -72.4551         estimate D2E/DX2                !
 ! D66   D(3,1,21,22)          170.5931         estimate D2E/DX2                !
 ! D67   D(3,1,21,49)           84.0635         estimate D2E/DX2                !
 ! D68   D(3,1,21,51)         -117.9854         estimate D2E/DX2                !
 ! D69   D(4,1,21,14)           96.8524         estimate D2E/DX2                !
 ! D70   D(4,1,21,22)          -20.0994         estimate D2E/DX2                !
 ! D71   D(4,1,21,49)         -106.6289         estimate D2E/DX2                !
 ! D72   D(4,1,21,51)           51.3221         estimate D2E/DX2                !
 ! D73   D(45,1,21,14)        -136.7819         estimate D2E/DX2                !
 ! D74   D(45,1,21,22)         106.2663         estimate D2E/DX2                !
 ! D75   D(45,1,21,49)          19.7367         estimate D2E/DX2                !
 ! D76   D(45,1,21,51)         177.6878         estimate D2E/DX2                !
 ! D77   D(46,1,21,14)        -176.9366         estimate D2E/DX2                !
 ! D78   D(46,1,21,22)          66.1115         estimate D2E/DX2                !
 ! D79   D(46,1,21,49)         -20.418          estimate D2E/DX2                !
 ! D80   D(46,1,21,51)         137.533          estimate D2E/DX2                !
 ! D81   D(2,1,45,6)            57.1562         estimate D2E/DX2                !
 ! D82   D(2,1,45,44)          104.0274         estimate D2E/DX2                !
 ! D83   D(2,1,45,47)          -61.9283         estimate D2E/DX2                !
 ! D84   D(4,1,45,6)           -37.0242         estimate D2E/DX2                !
 ! D85   D(4,1,45,44)            9.8471         estimate D2E/DX2                !
 ! D86   D(4,1,45,47)         -156.1087         estimate D2E/DX2                !
 ! D87   D(5,1,45,6)          -116.5291         estimate D2E/DX2                !
 ! D88   D(5,1,45,44)          -69.6579         estimate D2E/DX2                !
 ! D89   D(5,1,45,47)          124.3863         estimate D2E/DX2                !
 ! D90   D(21,1,45,6)         -179.3687         estimate D2E/DX2                !
 ! D91   D(21,1,45,44)        -132.4974         estimate D2E/DX2                !
 ! D92   D(21,1,45,47)          61.5468         estimate D2E/DX2                !
 ! D93   D(23,1,45,6)          136.7461         estimate D2E/DX2                !
 ! D94   D(23,1,45,44)        -176.3826         estimate D2E/DX2                !
 ! D95   D(23,1,45,47)          17.6616         estimate D2E/DX2                !
 ! D96   D(48,1,45,6)          179.7595         estimate D2E/DX2                !
 ! D97   D(48,1,45,44)        -133.3692         estimate D2E/DX2                !
 ! D98   D(48,1,45,47)          60.675          estimate D2E/DX2                !
 ! D99   D(2,1,48,49)          -85.3752         estimate D2E/DX2                !
 ! D100  D(2,1,48,50)           89.5704         estimate D2E/DX2                !
 ! D101  D(3,1,48,49)         -167.3939         estimate D2E/DX2                !
 ! D102  D(3,1,48,50)            7.5517         estimate D2E/DX2                !
 ! D103  D(4,1,48,49)           92.6387         estimate D2E/DX2                !
 ! D104  D(4,1,48,50)          -92.4157         estimate D2E/DX2                !
 ! D105  D(5,1,48,49)           15.6458         estimate D2E/DX2                !
 ! D106  D(5,1,48,50)         -169.4086         estimate D2E/DX2                !
 ! D107  D(12,1,48,49)         -26.1644         estimate D2E/DX2                !
 ! D108  D(12,1,48,50)         148.7812         estimate D2E/DX2                !
 ! D109  D(45,1,48,49)         151.9018         estimate D2E/DX2                !
 ! D110  D(45,1,48,50)         -33.1526         estimate D2E/DX2                !
 ! D111  D(1,2,9,4)              9.8261         estimate D2E/DX2                !
 ! D112  D(1,2,9,8)             91.3107         estimate D2E/DX2                !
 ! D113  D(1,2,9,11)           -84.211          estimate D2E/DX2                !
 ! D114  D(1,2,9,26)           170.3646         estimate D2E/DX2                !
 ! D115  D(1,2,9,27)          -138.8666         estimate D2E/DX2                !
 ! D116  D(1,3,6,4)             -8.9104         estimate D2E/DX2                !
 ! D117  D(1,3,6,7)            -77.43           estimate D2E/DX2                !
 ! D118  D(1,3,6,8)            -90.1407         estimate D2E/DX2                !
 ! D119  D(1,3,6,20)          -175.57           estimate D2E/DX2                !
 ! D120  D(1,3,6,42)           136.3108         estimate D2E/DX2                !
 ! D121  D(1,3,6,44)            82.1945         estimate D2E/DX2                !
 ! D122  D(1,4,6,3)              9.2476         estimate D2E/DX2                !
 ! D123  D(1,4,6,7)            173.434          estimate D2E/DX2                !
 ! D124  D(1,4,6,8)             93.4648         estimate D2E/DX2                !
 ! D125  D(1,4,6,20)           148.5972         estimate D2E/DX2                !
 ! D126  D(1,4,6,42)          -124.3898         estimate D2E/DX2                !
 ! D127  D(1,4,6,44)           -98.4986         estimate D2E/DX2                !
 ! D128  D(1,4,6,45)           -44.4825         estimate D2E/DX2                !
 ! D129  D(9,4,6,3)            -69.7717         estimate D2E/DX2                !
 ! D130  D(9,4,6,7)             94.4148         estimate D2E/DX2                !
 ! D131  D(9,4,6,8)             14.4455         estimate D2E/DX2                !
 ! D132  D(9,4,6,20)            69.578          estimate D2E/DX2                !
 ! D133  D(9,4,6,42)           156.5909         estimate D2E/DX2                !
 ! D134  D(9,4,6,44)          -177.5179         estimate D2E/DX2                !
 ! D135  D(9,4,6,45)          -123.5018         estimate D2E/DX2                !
 ! D136  D(1,4,9,2)            -10.1158         estimate D2E/DX2                !
 ! D137  D(1,4,9,8)            -94.1284         estimate D2E/DX2                !
 ! D138  D(1,4,9,10)          -176.1959         estimate D2E/DX2                !
 ! D139  D(1,4,9,11)           100.6748         estimate D2E/DX2                !
 ! D140  D(1,4,9,12)            44.633          estimate D2E/DX2                !
 ! D141  D(1,4,9,26)          -123.6166         estimate D2E/DX2                !
 ! D142  D(1,4,9,27)           109.5937         estimate D2E/DX2                !
 ! D143  D(6,4,9,2)             69.5938         estimate D2E/DX2                !
 ! D144  D(6,4,9,8)            -14.4187         estimate D2E/DX2                !
 ! D145  D(6,4,9,10)           -96.4863         estimate D2E/DX2                !
 ! D146  D(6,4,9,11)          -179.6155         estimate D2E/DX2                !
 ! D147  D(6,4,9,12)           124.3426         estimate D2E/DX2                !
 ! D148  D(6,4,9,26)           -43.907          estimate D2E/DX2                !
 ! D149  D(6,4,9,27)          -170.6967         estimate D2E/DX2                !
 ! D150  D(1,5,12,21)           82.2081         estimate D2E/DX2                !
 ! D151  D(3,6,7,13)           -22.9911         estimate D2E/DX2                !
 ! D152  D(3,6,7,18)          -101.1936         estimate D2E/DX2                !
 ! D153  D(4,6,7,13)           -95.4091         estimate D2E/DX2                !
 ! D154  D(4,6,7,18)          -173.6116         estimate D2E/DX2                !
 ! D155  D(8,6,7,13)           -10.0351         estimate D2E/DX2                !
 ! D156  D(8,6,7,18)           -88.2376         estimate D2E/DX2                !
 ! D157  D(20,6,7,13)           76.0557         estimate D2E/DX2                !
 ! D158  D(20,6,7,18)           -2.1468         estimate D2E/DX2                !
 ! D159  D(42,6,7,13)          125.5317         estimate D2E/DX2                !
 ! D160  D(42,6,7,18)           47.3292         estimate D2E/DX2                !
 ! D161  D(44,6,7,13)          176.3805         estimate D2E/DX2                !
 ! D162  D(44,6,7,18)           98.178          estimate D2E/DX2                !
 ! D163  D(45,6,7,13)         -172.4216         estimate D2E/DX2                !
 ! D164  D(45,6,7,18)          109.3759         estimate D2E/DX2                !
 ! D165  D(3,6,8,9)             88.2617         estimate D2E/DX2                !
 ! D166  D(3,6,8,13)          -173.4618         estimate D2E/DX2                !
 ! D167  D(4,6,8,9)            -13.8736         estimate D2E/DX2                !
 ! D168  D(4,6,8,13)            84.4029         estimate D2E/DX2                !
 ! D169  D(7,6,8,9)            -88.1274         estimate D2E/DX2                !
 ! D170  D(7,6,8,13)            10.1491         estimate D2E/DX2                !
 ! D171  D(20,6,8,9)          -176.984          estimate D2E/DX2                !
 ! D172  D(20,6,8,13)          -78.7074         estimate D2E/DX2                !
 ! D173  D(42,6,8,9)          -156.6803         estimate D2E/DX2                !
 ! D174  D(42,6,8,13)          -58.4038         estimate D2E/DX2                !
 ! D175  D(44,6,8,9)           -63.7769         estimate D2E/DX2                !
 ! D176  D(44,6,8,13)           34.4996         estimate D2E/DX2                !
 ! D177  D(45,6,8,9)            75.3215         estimate D2E/DX2                !
 ! D178  D(45,6,8,13)          173.598          estimate D2E/DX2                !
 ! D179  D(3,6,20,18)          165.7876         estimate D2E/DX2                !
 ! D180  D(4,6,20,18)           25.6117         estimate D2E/DX2                !
 ! D181  D(7,6,20,18)            1.9008         estimate D2E/DX2                !
 ! D182  D(8,6,20,18)           80.2178         estimate D2E/DX2                !
 ! D183  D(44,6,20,18)         -85.137          estimate D2E/DX2                !
 ! D184  D(45,6,20,18)        -140.9024         estimate D2E/DX2                !
 ! D185  D(3,6,42,18)          136.3572         estimate D2E/DX2                !
 ! D186  D(3,6,42,19)          170.113          estimate D2E/DX2                !
 ! D187  D(3,6,42,43)           -5.944          estimate D2E/DX2                !
 ! D188  D(4,6,42,18)          -93.2049         estimate D2E/DX2                !
 ! D189  D(4,6,42,19)          -59.4491         estimate D2E/DX2                !
 ! D190  D(4,6,42,43)          124.4939         estimate D2E/DX2                !
 ! D191  D(7,6,42,18)          -34.6113         estimate D2E/DX2                !
 ! D192  D(7,6,42,19)           -0.8555         estimate D2E/DX2                !
 ! D193  D(7,6,42,43)         -176.9125         estimate D2E/DX2                !
 ! D194  D(8,6,42,18)           32.1687         estimate D2E/DX2                !
 ! D195  D(8,6,42,19)           65.9245         estimate D2E/DX2                !
 ! D196  D(8,6,42,43)         -110.1325         estimate D2E/DX2                !
 ! D197  D(45,6,42,18)         179.7944         estimate D2E/DX2                !
 ! D198  D(45,6,42,19)        -146.4498         estimate D2E/DX2                !
 ! D199  D(45,6,42,43)          37.4932         estimate D2E/DX2                !
 ! D200  D(4,6,45,1)            37.6639         estimate D2E/DX2                !
 ! D201  D(4,6,45,46)           -6.1853         estimate D2E/DX2                !
 ! D202  D(4,6,45,47)         -166.1477         estimate D2E/DX2                !
 ! D203  D(7,6,45,1)           107.0893         estimate D2E/DX2                !
 ! D204  D(7,6,45,46)           63.2401         estimate D2E/DX2                !
 ! D205  D(7,6,45,47)          -96.7223         estimate D2E/DX2                !
 ! D206  D(8,6,45,1)           -46.5493         estimate D2E/DX2                !
 ! D207  D(8,6,45,46)          -90.3985         estimate D2E/DX2                !
 ! D208  D(8,6,45,47)          109.6391         estimate D2E/DX2                !
 ! D209  D(20,6,45,1)         -147.0798         estimate D2E/DX2                !
 ! D210  D(20,6,45,46)         169.0711         estimate D2E/DX2                !
 ! D211  D(20,6,45,47)           9.1087         estimate D2E/DX2                !
 ! D212  D(42,6,45,1)          170.2171         estimate D2E/DX2                !
 ! D213  D(42,6,45,46)         126.368          estimate D2E/DX2                !
 ! D214  D(42,6,45,47)         -33.5944         estimate D2E/DX2                !
 ! D215  D(6,7,13,8)             9.7232         estimate D2E/DX2                !
 ! D216  D(6,7,13,10)           94.0193         estimate D2E/DX2                !
 ! D217  D(6,7,13,16)          -71.0338         estimate D2E/DX2                !
 ! D218  D(6,7,13,24)           94.8018         estimate D2E/DX2                !
 ! D219  D(6,7,13,36)         -179.8097         estimate D2E/DX2                !
 ! D220  D(6,7,13,37)         -173.9281         estimate D2E/DX2                !
 ! D221  D(6,7,13,39)         -120.6052         estimate D2E/DX2                !
 ! D222  D(6,7,18,16)           84.6515         estimate D2E/DX2                !
 ! D223  D(6,7,18,19)          -89.3908         estimate D2E/DX2                !
 ! D224  D(6,7,18,20)            2.1658         estimate D2E/DX2                !
 ! D225  D(6,7,18,39)          137.3838         estimate D2E/DX2                !
 ! D226  D(6,7,18,40)         -169.7648         estimate D2E/DX2                !
 ! D227  D(6,7,18,42)          -44.6741         estimate D2E/DX2                !
 ! D228  D(6,8,9,2)            -88.8498         estimate D2E/DX2                !
 ! D229  D(6,8,9,4)             13.981          estimate D2E/DX2                !
 ! D230  D(6,8,9,10)            98.1097         estimate D2E/DX2                !
 ! D231  D(6,8,9,11)            76.4385         estimate D2E/DX2                !
 ! D232  D(6,8,9,12)           -74.0621         estimate D2E/DX2                !
 ! D233  D(6,8,9,26)          -176.5051         estimate D2E/DX2                !
 ! D234  D(6,8,9,27)           175.8004         estimate D2E/DX2                !
 ! D235  D(13,8,9,2)           167.8974         estimate D2E/DX2                !
 ! D236  D(13,8,9,4)           -89.2718         estimate D2E/DX2                !
 ! D237  D(13,8,9,10)           -5.1431         estimate D2E/DX2                !
 ! D238  D(13,8,9,11)          -26.8144         estimate D2E/DX2                !
 ! D239  D(13,8,9,12)         -177.315          estimate D2E/DX2                !
 ! D240  D(13,8,9,26)           80.242          estimate D2E/DX2                !
 ! D241  D(13,8,9,27)           72.5476         estimate D2E/DX2                !
 ! D242  D(6,8,13,7)           -10.7126         estimate D2E/DX2                !
 ! D243  D(6,8,13,10)          -90.3754         estimate D2E/DX2                !
 ! D244  D(6,8,13,16)           85.3641         estimate D2E/DX2                !
 ! D245  D(6,8,13,17)          170.2813         estimate D2E/DX2                !
 ! D246  D(6,8,13,18)           34.5789         estimate D2E/DX2                !
 ! D247  D(6,8,13,24)         -139.6445         estimate D2E/DX2                !
 ! D248  D(6,8,13,36)         -179.6782         estimate D2E/DX2                !
 ! D249  D(6,8,13,37)          -22.1966         estimate D2E/DX2                !
 ! D250  D(6,8,13,39)           74.3478         estimate D2E/DX2                !
 ! D251  D(9,8,13,7)            85.0518         estimate D2E/DX2                !
 ! D252  D(9,8,13,10)            5.389          estimate D2E/DX2                !
 ! D253  D(9,8,13,16)         -178.8715         estimate D2E/DX2                !
 ! D254  D(9,8,13,17)          -93.9543         estimate D2E/DX2                !
 ! D255  D(9,8,13,18)          130.3433         estimate D2E/DX2                !
 ! D256  D(9,8,13,24)          -43.8801         estimate D2E/DX2                !
 ! D257  D(9,8,13,36)          -83.9138         estimate D2E/DX2                !
 ! D258  D(9,8,13,37)           73.5679         estimate D2E/DX2                !
 ! D259  D(9,8,13,39)          170.1122         estimate D2E/DX2                !
 ! D260  D(4,9,10,13)           88.9357         estimate D2E/DX2                !
 ! D261  D(4,9,10,24)          168.1958         estimate D2E/DX2                !
 ! D262  D(8,9,10,13)            5.4121         estimate D2E/DX2                !
 ! D263  D(8,9,10,24)           84.6722         estimate D2E/DX2                !
 ! D264  D(11,9,10,13)         179.2594         estimate D2E/DX2                !
 ! D265  D(11,9,10,24)        -101.4805         estimate D2E/DX2                !
 ! D266  D(12,9,10,13)         177.5167         estimate D2E/DX2                !
 ! D267  D(12,9,10,24)        -103.2232         estimate D2E/DX2                !
 ! D268  D(26,9,10,13)         -74.2193         estimate D2E/DX2                !
 ! D269  D(26,9,10,24)           5.0408         estimate D2E/DX2                !
 ! D270  D(27,9,10,13)        -126.0097         estimate D2E/DX2                !
 ! D271  D(27,9,10,24)         -46.7496         estimate D2E/DX2                !
 ! D272  D(4,9,12,1)           -38.7112         estimate D2E/DX2                !
 ! D273  D(4,9,12,5)             5.3252         estimate D2E/DX2                !
 ! D274  D(4,9,12,14)         -113.204          estimate D2E/DX2                !
 ! D275  D(4,9,12,15)          162.5084         estimate D2E/DX2                !
 ! D276  D(4,9,12,21)          -40.2127         estimate D2E/DX2                !
 ! D277  D(4,9,12,52)           88.3345         estimate D2E/DX2                !
 ! D278  D(8,9,12,1)            44.9423         estimate D2E/DX2                !
 ! D279  D(8,9,12,5)            88.9788         estimate D2E/DX2                !
 ! D280  D(8,9,12,14)          -29.5504         estimate D2E/DX2                !
 ! D281  D(8,9,12,15)         -113.8381         estimate D2E/DX2                !
 ! D282  D(8,9,12,21)           43.4409         estimate D2E/DX2                !
 ! D283  D(8,9,12,52)          171.9881         estimate D2E/DX2                !
 ! D284  D(10,9,12,1)         -123.1439         estimate D2E/DX2                !
 ! D285  D(10,9,12,5)          -79.1074         estimate D2E/DX2                !
 ! D286  D(10,9,12,14)         162.3634         estimate D2E/DX2                !
 ! D287  D(10,9,12,15)          78.0757         estimate D2E/DX2                !
 ! D288  D(10,9,12,21)        -124.6453         estimate D2E/DX2                !
 ! D289  D(10,9,12,52)           3.9019         estimate D2E/DX2                !
 ! D290  D(26,9,12,1)          136.869          estimate D2E/DX2                !
 ! D291  D(26,9,12,5)         -179.0945         estimate D2E/DX2                !
 ! D292  D(26,9,12,14)          62.3763         estimate D2E/DX2                !
 ! D293  D(26,9,12,15)         -21.9114         estimate D2E/DX2                !
 ! D294  D(26,9,12,21)         135.3676         estimate D2E/DX2                !
 ! D295  D(26,9,12,52)         -96.0852         estimate D2E/DX2                !
 ! D296  D(27,9,12,1)          175.7784         estimate D2E/DX2                !
 ! D297  D(27,9,12,5)         -140.1852         estimate D2E/DX2                !
 ! D298  D(27,9,12,14)         101.2856         estimate D2E/DX2                !
 ! D299  D(27,9,12,15)          16.9979         estimate D2E/DX2                !
 ! D300  D(27,9,12,21)         174.2769         estimate D2E/DX2                !
 ! D301  D(27,9,12,52)         -57.1759         estimate D2E/DX2                !
 ! D302  D(2,9,26,24)         -173.3156         estimate D2E/DX2                !
 ! D303  D(4,9,26,24)          -57.2011         estimate D2E/DX2                !
 ! D304  D(8,9,26,24)          -87.0364         estimate D2E/DX2                !
 ! D305  D(10,9,26,24)          -4.7294         estimate D2E/DX2                !
 ! D306  D(11,9,26,24)          76.3498         estimate D2E/DX2                !
 ! D307  D(12,9,26,24)         135.0287         estimate D2E/DX2                !
 ! D308  D(2,9,27,15)           29.2019         estimate D2E/DX2                !
 ! D309  D(2,9,27,28)         -172.4384         estimate D2E/DX2                !
 ! D310  D(2,9,27,29)          -60.7872         estimate D2E/DX2                !
 ! D311  D(2,9,27,30)         -125.6384         estimate D2E/DX2                !
 ! D312  D(4,9,27,15)          -92.0131         estimate D2E/DX2                !
 ! D313  D(4,9,27,28)           66.3465         estimate D2E/DX2                !
 ! D314  D(4,9,27,29)          177.9978         estimate D2E/DX2                !
 ! D315  D(4,9,27,30)          113.1466         estimate D2E/DX2                !
 ! D316  D(8,9,27,15)          119.3776         estimate D2E/DX2                !
 ! D317  D(8,9,27,28)          -82.2627         estimate D2E/DX2                !
 ! D318  D(8,9,27,29)           29.3886         estimate D2E/DX2                !
 ! D319  D(8,9,27,30)          -35.4626         estimate D2E/DX2                !
 ! D320  D(10,9,27,15)        -165.2117         estimate D2E/DX2                !
 ! D321  D(10,9,27,28)          -6.852          estimate D2E/DX2                !
 ! D322  D(10,9,27,29)         104.7992         estimate D2E/DX2                !
 ! D323  D(10,9,27,30)          39.948          estimate D2E/DX2                !
 ! D324  D(12,9,27,15)         -20.1022         estimate D2E/DX2                !
 ! D325  D(12,9,27,28)         138.2575         estimate D2E/DX2                !
 ! D326  D(12,9,27,29)        -110.0913         estimate D2E/DX2                !
 ! D327  D(12,9,27,30)        -174.9424         estimate D2E/DX2                !
 ! D328  D(9,10,13,7)          -86.5369         estimate D2E/DX2                !
 ! D329  D(9,10,13,8)           -5.2665         estimate D2E/DX2                !
 ! D330  D(9,10,13,16)         -20.4208         estimate D2E/DX2                !
 ! D331  D(9,10,13,17)          82.5239         estimate D2E/DX2                !
 ! D332  D(9,10,13,18)         -84.8911         estimate D2E/DX2                !
 ! D333  D(9,10,13,36)         137.5922         estimate D2E/DX2                !
 ! D334  D(9,10,13,37)        -168.1699         estimate D2E/DX2                !
 ! D335  D(9,10,13,39)        -164.9275         estimate D2E/DX2                !
 ! D336  D(9,10,24,17)         -85.7208         estimate D2E/DX2                !
 ! D337  D(9,10,24,25)         171.7607         estimate D2E/DX2                !
 ! D338  D(9,10,24,26)          -4.7295         estimate D2E/DX2                !
 ! D339  D(9,10,24,28)          83.9132         estimate D2E/DX2                !
 ! D340  D(9,10,24,33)         168.4361         estimate D2E/DX2                !
 ! D341  D(9,10,24,36)        -136.3046         estimate D2E/DX2                !
 ! D342  D(27,11,12,1)         120.9543         estimate D2E/DX2                !
 ! D343  D(27,11,12,2)          65.6205         estimate D2E/DX2                !
 ! D344  D(27,11,12,5)         172.4674         estimate D2E/DX2                !
 ! D345  D(27,11,12,14)        -38.9367         estimate D2E/DX2                !
 ! D346  D(27,11,12,15)        -29.8308         estimate D2E/DX2                !
 ! D347  D(27,11,12,21)        179.7423         estimate D2E/DX2                !
 ! D348  D(27,11,12,51)       -101.1581         estimate D2E/DX2                !
 ! D349  D(27,11,12,52)       -106.2522         estimate D2E/DX2                !
 ! D350  D(12,11,27,15)         34.3017         estimate D2E/DX2                !
 ! D351  D(12,11,27,26)        -81.4927         estimate D2E/DX2                !
 ! D352  D(12,11,27,28)        177.1486         estimate D2E/DX2                !
 ! D353  D(12,11,27,30)        171.8254         estimate D2E/DX2                !
 ! D354  D(1,12,15,27)         -62.5657         estimate D2E/DX2                !
 ! D355  D(2,12,15,27)         -71.2842         estimate D2E/DX2                !
 ! D356  D(5,12,15,27)          94.6143         estimate D2E/DX2                !
 ! D357  D(9,12,15,27)         -19.7219         estimate D2E/DX2                !
 ! D358  D(11,12,15,27)         31.1045         estimate D2E/DX2                !
 ! D359  D(14,12,15,27)       -151.3617         estimate D2E/DX2                !
 ! D360  D(21,12,15,27)       -175.2726         estimate D2E/DX2                !
 ! D361  D(51,12,15,27)        159.1229         estimate D2E/DX2                !
 ! D362  D(52,12,15,27)        110.1484         estimate D2E/DX2                !
 ! D363  D(2,12,21,22)        -159.4622         estimate D2E/DX2                !
 ! D364  D(2,12,21,23)           1.7108         estimate D2E/DX2                !
 ! D365  D(2,12,21,48)          46.3445         estimate D2E/DX2                !
 ! D366  D(2,12,21,49)          93.9992         estimate D2E/DX2                !
 ! D367  D(9,12,21,22)         156.9015         estimate D2E/DX2                !
 ! D368  D(9,12,21,23)         -41.9254         estimate D2E/DX2                !
 ! D369  D(9,12,21,48)           2.7082         estimate D2E/DX2                !
 ! D370  D(9,12,21,49)          50.3629         estimate D2E/DX2                !
 ! D371  D(11,12,21,22)         83.7018         estimate D2E/DX2                !
 ! D372  D(11,12,21,23)       -115.1252         estimate D2E/DX2                !
 ! D373  D(11,12,21,48)        -70.4916         estimate D2E/DX2                !
 ! D374  D(11,12,21,49)        -22.8368         estimate D2E/DX2                !
 ! D375  D(15,12,21,22)        -54.6805         estimate D2E/DX2                !
 ! D376  D(15,12,21,23)        106.4925         estimate D2E/DX2                !
 ! D377  D(15,12,21,48)        151.1261         estimate D2E/DX2                !
 ! D378  D(15,12,21,49)       -161.2192         estimate D2E/DX2                !
 ! D379  D(52,12,21,22)         13.9725         estimate D2E/DX2                !
 ! D380  D(52,12,21,23)        175.1455         estimate D2E/DX2                !
 ! D381  D(52,12,21,48)       -140.2209         estimate D2E/DX2                !
 ! D382  D(52,12,21,49)        -92.5662         estimate D2E/DX2                !
 ! D383  D(1,12,51,22)          26.7315         estimate D2E/DX2                !
 ! D384  D(1,12,51,53)        -153.7511         estimate D2E/DX2                !
 ! D385  D(1,12,51,54)         171.6748         estimate D2E/DX2                !
 ! D386  D(2,12,51,22)          93.9943         estimate D2E/DX2                !
 ! D387  D(2,12,51,53)         -86.4883         estimate D2E/DX2                !
 ! D388  D(2,12,51,54)        -121.0624         estimate D2E/DX2                !
 ! D389  D(5,12,51,22)         -17.6598         estimate D2E/DX2                !
 ! D390  D(5,12,51,53)         161.8576         estimate D2E/DX2                !
 ! D391  D(5,12,51,54)         127.2836         estimate D2E/DX2                !
 ! D392  D(11,12,51,22)       -102.9343         estimate D2E/DX2                !
 ! D393  D(11,12,51,53)         76.5831         estimate D2E/DX2                !
 ! D394  D(11,12,51,54)         42.009          estimate D2E/DX2                !
 ! D395  D(15,12,51,22)       -175.194          estimate D2E/DX2                !
[...]
 ,0.00309086,0.00269013,-0.00048744,-0.00010977,-0.00041609,0.00016295,
 0.00010188,0.00030162,-0.00036736,-0.00021185,0.00033329,-0.00008824,-
 0.00007238,-0.00004639,0.00003589,0.00002676,-0.00000801,0.00000795,0.
 00007228,-0.00001215,-0.00005293,-0.00001790,0.00000197,0.00003987,-0.
 00001046,-0.00004073,0.00001195,-0.00004155,-0.00005351,-0.00008214,0.
 00006363,-0.00002665,0.00001298,0.00000485,0.00001761,0.00002016,-0.00
 005327,0.00011793,0.00005300,0.00006607,-0.00001226,0.00001314,0.00004
 065,-0.00006338,0.00000951,-0.00011151,-0.00005072,0.00012430,0.000012
 11,0.00002965,-0.00011123,-0.00004879,0.00012702,0.00005495,0.00032661
 ,-0.00089198,-0.00004751,-0.00038229,0.00046241,0.00001875,0.00005162,
 0.00010121,-0.00008403,-0.00127723,-0.00388331,-0.00059828,-0.00168732
 ,0.00133145,0.00268499,0.00004088,0.00022838,-0.00013859,-0.02926562,-
 0.01846720,0.23780843,0.00183860,-0.00098131,0.00028791,-0.00733547,0.
 00829938,-0.00496518,-0.00083814,0.00042515,-0.00023006,-0.00024130,-0
 .00006228,-0.00006245,-0.00917215,0.00166609,0.00273997,0.00073888,0.0
 0046719,0.00034665,-0.00002009,-0.00001879,-0.00003916,-0.00028750,0.0
 0017128,-0.00080078,-0.00202728,0.00155460,0.00360799,0.00003695,0.000
 04181,0.00002581,-0.00367555,0.00324661,-0.00320234,-0.00738216,-0.006
 19966,0.01527976,-0.00025377,-0.00017189,0.00002270,-0.00222129,0.0013
 1935,0.00016882,0.00646638,0.00660452,-0.00062194,-0.00001601,0.000059
 82,-0.00001337,0.00008083,0.00002107,0.00001275,-0.00011285,0.00003940
 ,-0.00004973,0.00001545,0.00001176,0.00005693,-0.00007341,-0.00009436,
 -0.00012469,-0.00122320,0.00040169,0.00305318,-0.00129469,-0.00016483,
 0.00039342,-0.00044231,0.00000642,-0.00035181,-0.00074182,0.00061251,-
 0.00038316,0.00010699,-0.00005355,-0.00009012,0.00034754,0.00026354,-0
 .00041562,-0.00191939,-0.00214696,0.00204960,-0.00008747,0.00008051,-0
 .00014774,0.00023026,-0.00004395,0.00045060,0.00058334,-0.00063749,0.0
 0047831,-0.00001151,0.00009822,-0.00002302,-0.00005691,-0.00002778,-0.
 00000604,0.00005093,-0.00003944,0.00000844,-0.00007499,0.00000838,0.00
 001420,-0.00003631,-0.00001631,-0.00001541,0.00009691,-0.00014387,0.00
 012267,0.00002943,-0.00001749,0.00001785,-0.00004869,0.00010286,-0.000
 02582,0.00010555,0.00008998,0.00004007,0.00002834,-0.00000620,0.000018
 54,0.00002677,-0.00004298,-0.00000220,-0.00009856,0.00004724,0.0000983
 7,0.00004678,-0.00001261,-0.00009280,-0.00005079,0.00001507,-0.0000187
 6,-0.00012735,0.00019432,0.00006764,-0.00006427,-0.00003334,-0.0000213
 7,0.00008727,-0.00002236,-0.00005618,0.00037474,0.00000884,-0.00000674
 ,0.00043954,0.00019205,-0.00004194,0.00019687,0.00003556,-0.00008321,-
 0.00024361,-0.00105458,-0.01651974,0.07500588,0.00202335,-0.00082672,-
 0.00015755,0.00065001,-0.00001817,0.00112472,-0.00064555,-0.00027345,-
 0.00019216,0.00033699,-0.00015246,-0.00016526,-0.00271085,0.00252128,0
 .00120190,0.00023085,0.00044425,0.00018911,0.00006630,-0.00000772,0.00
 003660,0.00017550,-0.00019354,-0.00032935,-0.00022762,-0.00068887,-0.0
 0164121,0.00000244,0.00008813,0.00008971,0.00035387,-0.00094198,0.0015
 8519,0.01929727,-0.02955486,-0.01662988,-0.00021585,0.00011385,-0.0000
 8401,0.00059295,0.00175105,-0.00000190,-0.00266949,-0.01476152,0.00324
 712,-0.00001288,0.00003812,-0.00001461,0.00001462,-0.00002552,-0.00008
 904,0.00004374,-0.00001505,0.00002185,0.00000369,0.00000181,0.00003008
 ,-0.00017677,-0.00004808,-0.00002643,0.00083494,-0.00106613,0.00090117
 ,-0.00217649,-0.00073799,0.00525455,-0.00034337,-0.00004158,0.00017032
 ,0.00014997,-0.00015350,0.00044270,-0.00003865,0.00006979,0.00000486,0
 .00007537,-0.00000259,-0.00019763,0.00212666,0.00388281,-0.00179634,-0
 .00015818,-0.00055734,0.00014719,-0.00034956,-0.00013569,-0.00011675,-
 0.00019303,0.00001007,0.00009281,-0.00009655,-0.00005334,0.00012527,-0
 .00003003,-0.00001420,-0.00003047,0.00012244,-0.00000260,-0.00006584,-
 0.00006849,0.00001380,0.00004588,-0.00000371,-0.00001390,0.00000637,-0
 .00015387,0.00007482,-0.00010286,0.00001939,-0.00001588,0.00000667,0.0
 0007062,-0.00002600,0.00002402,-0.00002300,-0.00002397,0.00007794,-0.0
 0000555,0.00000763,-0.00000172,0.00001967,-0.00002924,-0.00000135,-0.0
 0007597,0.00010770,0.00005302,0.00005707,-0.00004670,-0.00002521,0.000
 00824,0.00005349,-0.00000087,-0.00050167,0.00043473,0.00028484,-0.0001
 2282,0.00017187,-0.00014701,0.00000375,-0.00003650,-0.00008491,0.00073
 613,0.00018049,0.00013549,0.00003868,0.00017421,-0.00023381,0.00005519
 ,-0.00003915,0.00003864,-0.00070902,-0.00285034,-0.02015853,0.03320342
 ,0.12824741,-0.00209009,0.00055711,-0.00071972,0.00134358,-0.00034725,
 0.00046930,0.00014176,-0.00012793,0.00006023,0.00011111,-0.00026509,0.
 00012169,0.00319023,0.00033184,0.00176983,0.00003927,-0.00014323,-0.00
 003751,-0.00005556,0.00001597,0.00001505,0.00043527,-0.00050601,-0.000
 22264,-0.00183169,0.00067920,-0.00158538,0.00001209,-0.00004542,-0.000
 07791,-0.00669440,0.00495659,-0.00327544,0.01716748,-0.01233520,-0.007
 03328,0.00007294,0.00018182,-0.00018419,0.00186184,-0.00103798,0.00105
 080,0.00050611,-0.00193218,0.00274091,-0.00003620,0.00000917,-0.000008
 71,-0.00008291,0.00002789,-0.00012317,0.00006454,-0.00006596,0.0000075
 4,-0.00000749,0.00001209,-0.00002776,-0.00010812,0.00001050,0.00002496
 ,0.00168854,-0.00129618,-0.00310148,-0.00013402,0.00408107,-0.00269628
 ,-0.00018615,-0.00011999,0.00030559,0.00041070,-0.00031362,0.00048527,
 -0.00004566,0.00004979,0.00002372,0.00023290,-0.00010997,-0.00005452,-
 0.00006766,0.00058405,-0.00180687,-0.00001047,0.00014750,0.00000281,-0
 .00048380,-0.00015634,-0.00013976,0.00005032,-0.00019276,0.00009418,-0
 .00002630,0.00001487,0.00006904,-0.00007677,0.00001567,-0.00005989,0.0
 0010233,0.00002121,-0.00008083,-0.00008985,0.00003140,0.00004877,-0.00
 000439,-0.00000960,0.00000653,-0.00014053,0.00014652,-0.00003422,-0.00
 000473,-0.00002594,0.00001828,0.00007529,-0.00004947,0.00002250,-0.000
 02199,-0.00003377,0.00006821,-0.00001921,0.00000939,-0.00000123,0.0000
 1960,-0.00001549,-0.00001020,0.00001513,0.00004059,0.00010859,0.000031
 56,-0.00000901,-0.00002818,0.00001230,0.00002406,-0.00004851,0.0001175
 7,0.00020713,-0.00024615,0.00023900,0.00000977,0.00016451,0.00002653,-
 0.00001251,0.00009728,0.00002888,-0.00014979,0.00003689,-0.00023781,0.
 00011850,0.00006400,-0.00002003,-0.00006878,0.00006839,-0.01172053,-0.
 01047404,-0.09545767,0.01591104,0.04251600,0.10946735,-0.00124272,0.00
 053728,-0.00018310,-0.00086041,0.00086556,-0.00146008,0.00009870,0.000
 02735,0.00000641,0.00027928,-0.00008967,0.00007733,0.00029478,0.001048
 66,-0.00007911,-0.00032884,-0.00011033,0.00005943,-0.00012189,0.000058
 02,0.00002788,-0.00032135,0.00052839,-0.00016056,0.00039040,-0.0002888
 3,0.00149566,-0.00008227,-0.00008982,-0.00000773,0.00111513,-0.0005749
 4,-0.00046583,-0.00125891,-0.00513374,0.00210750,0.00031506,0.00003308
 ,0.00008498,-0.00442111,0.00149829,0.00173844,0.00625884,0.00328862,-0
 .00147488,0.00006027,-0.00007316,0.00009780,-0.00008473,0.00001179,0.0
 0014216,0.00023452,-0.00019598,0.00013853,-0.00003011,0.00001061,-0.00
 013444,-0.00000942,0.00010711,0.00004491,-0.00372053,-0.00094724,0.000
 64429,0.00071195,-0.00212336,0.00294958,-0.00012589,0.00097338,0.00006
 909,0.00043692,-0.00010700,-0.00039131,-0.00004022,-0.00004311,0.00008
 531,-0.00013654,0.00001992,0.00012957,-0.00349489,-0.00274263,-0.00009
 876,-0.00013898,0.00031646,0.00020383,0.00056777,0.00014850,0.00102687
 ,-0.00034000,-0.00003811,0.00008517,0.00045904,-0.00009108,-0.00030199
 ,0.00008596,0.00002679,0.00009640,-0.00019746,0.00009052,0.00015761,0.
 00018501,-0.00007053,-0.00017639,0.00003538,0.00004776,0.00000210,0.00
 002976,0.00001321,-0.00000906,-0.00005711,0.00004573,-0.00004660,-0.00
 001412,-0.00002436,-0.00002689,0.00006679,-0.00024998,-0.00004875,-0.0
 0009374,0.00002468,-0.00006373,-0.00011965,0.00015960,-0.00001121,0.00
 020491,-0.00002731,-0.00000746,-0.00010797,-0.00000479,0.00015330,-0.0
 0000100,0.00000328,-0.00006147,0.00029709,0.00013966,-0.00029404,0.000
 02915,-0.00004852,-0.00003892,-0.00011919,0.00000307,0.00019135,0.0011
 9852,0.00035463,-0.00050904,0.00065887,-0.00039360,-0.00009057,-0.0001
 2913,-0.00008850,0.00037686,-0.08936667,-0.05574867,-0.00998143,-0.007
 53216,0.00121200,-0.00065598,0.11908341,-0.00028181,0.00084236,-0.0014
 0675,-0.00095429,0.00143462,0.00005389,0.00005652,-0.00008684,0.000165
 78,0.00010696,-0.00021701,0.00010304,0.00030505,0.00040484,0.00022860,
 0.00002524,-0.00008725,-0.00004733,-0.00009785,0.00003720,0.00000573,0
 .00000862,-0.00005171,-0.00022579,-0.00019845,-0.00034367,0.00045147,-
 0.00008248,0.00005920,0.00001959,-0.00069961,-0.00031787,-0.00025473,0
 .00400686,-0.00541789,-0.00054793,0.00014385,0.00011495,0.00002545,0.0
 0045198,0.00145091,0.00059750,0.00248462,0.00284716,0.00143528,-0.0000
 0579,-0.00000914,0.00001313,-0.00009624,-0.00003932,-0.00005470,0.0001
 1469,-0.00011142,0.00002600,-0.00001298,0.00001257,-0.00005873,-0.0000
 5671,0.00002334,0.00002907,-0.00695954,0.00022910,0.00277360,0.0017429
 1,-0.00104132,-0.00039459,-0.00029926,-0.00006304,0.00019305,0.0002423
 9,0.00001093,0.00033083,-0.00000567,0.00002250,0.00000045,0.00007694,-
 0.00005774,-0.00026388,-0.00041278,0.00005533,-0.00146101,-0.00016672,
 -0.00003847,0.00033459,-0.00003065,-0.00002523,0.00038449,-0.00008574,
 -0.00014509,0.00027354,0.00012086,-0.00004593,-0.00005069,0.00000079,0
 .00000849,0.00000644,0.00000350,0.00003061,0.00000040,0.00000071,-0.00
 001419,-0.00001311,0.00001020,0.00000031,0.00000959,-0.00011836,0.0001
 0800,-0.00004541,-0.00001206,-0.00000508,-0.00002371,0.00006228,-0.000
 03450,0.00000892,-0.00001396,-0.00011341,0.00006044,-0.00003522,0.0000
 2120,-0.00001528,-0.00001725,0.00002709,-0.00000803,0.00004970,0.00001
 649,0.00008052,0.00000082,-0.00001089,0.00001207,-0.00001178,0.0000353
 6,-0.00001008,-0.00011729,0.00010316,-0.00003053,-0.00003775,0.0000504
 2,-0.00000893,0.00000321,-0.00000913,-0.00000106,0.00156104,0.00062033
 ,-0.00009661,0.00078807,-0.00055634,-0.00045578,-0.00011352,-0.0001122
 0,0.00029687,-0.03759324,-0.02359827,-0.01146568,-0.00746658,0.0015353
 3,-0.00286339,0.04309753,0.03094488,0.00004267,-0.00022133,0.00060069,
 0.00006442,-0.00036548,-0.00072945,0.00000221,-0.00002291,0.00004006,-
 0.00003929,0.00011252,-0.00004242,0.00025688,-0.00061263,0.00049888,0.
 00011390,0.00001979,-0.00001538,0.00008655,-0.00003523,-0.00000387,0.0
 0004740,-0.00008801,-0.00000882,-0.00072817,0.00092081,-0.00016243,0.0
 0012724,-0.00001700,-0.00005963,-0.00015513,0.00012301,0.00007865,0.00
 431037,0.00162195,0.00064374,-0.00021920,-0.00007640,0.00001031,0.0010
 3498,0.00000888,0.00008516,-0.00510855,0.00616880,0.00033853,0.0000090
 2,0.00002662,-0.00001737,0.00008630,0.00000651,0.00000356,-0.00002823,
 0.00007579,0.00000226,0.00000171,-0.00001064,0.00002631,0.00000345,-0.
 00002054,-0.00003062,-0.00065842,0.00022475,0.00169351,0.00036269,-0.0
 0032359,-0.00242600,-0.00028132,-0.00029016,-0.00005374,-0.00039104,0.
 00006571,0.00002404,0.00004639,0.00001262,-0.00001227,0.00013785,0.000
 13137,-0.00006446,0.00059511,0.00066712,0.00163061,0.00028554,-0.00008
 271,-0.00044663,-0.00033476,0.00003506,-0.00049159,0.00016716,-0.00007
 518,0.00017774,0.00001581,0.00001607,-0.00002336,-0.00007048,-0.000043
 03,-0.00005386,0.00006229,-0.00006136,-0.00000428,-0.00003160,0.000018
 59,-0.00001306,-0.00006819,0.00002924,-0.00001528,0.00013886,-0.000107
 24,0.00006351,0.00001077,0.00001316,0.00001256,-0.00008676,0.00005649,
 -0.00002333,0.00004861,0.00003182,-0.00002324,0.00001149,-0.00001188,-
 0.00000752,-0.00003343,0.00002858,-0.00000287,0.00003657,-0.00000919,-
 0.00005985,-0.00004415,0.00000016,0.00003652,-0.00000277,-0.00002340,0
 .00000387,0.00004262,0.00006376,-0.00007569,0.00006381,-0.00009456,0.0
 0002292,-0.00003307,-0.00002330,0.00005555,-0.00026544,0.00063832,0.00
 000769,0.00033554,-0.00013109,-0.00021554,-0.00005303,-0.00006441,0.00
 004320,-0.02388727,-0.01284656,-0.00562037,-0.00103878,-0.00281787,0.0
 0062426,0.06175293,0.00540218,0.08663934,0.00198661,0.00056241,-0.0009
 7058,0.00094317,-0.00285670,-0.00052543,-0.00065405,-0.00005462,-0.000
 15977,0.00007155,-0.00033970,0.00003122,-0.00048796,0.00030347,-0.0000
 7446,0.00008277,0.00003781,0.00019379,-0.00012160,0.00000290,0.0000052
 7,-0.00021778,0.00005542,0.00021773,-0.00023684,0.00210231,-0.00119425
 ,-0.00014043,-0.00021265,0.00004613,0.00061888,-0.00133796,-0.00045818
 ,-0.02468362,-0.00184919,0.00787120,0.00042965,-0.00000576,-0.00005430
 ,-0.00157720,-0.00150544,0.00405700,-0.06799244,0.05280337,-0.00302805
 ,-0.00000790,-0.00010313,0.00001283,-0.00025217,-0.00000431,-0.0000581
 6,-0.00000099,-0.00011493,0.00006975,0.00000717,0.00001233,-0.00002538
 ,-0.00008142,0.00002494,-0.00000465,-0.00417180,-0.00182754,0.00165270
 ,-0.00255259,-0.00792393,0.00012647,0.00001329,0.00055225,0.00029641,0
 .00095878,0.00005376,0.00046298,0.00002230,-0.00011044,0.00000940,-0.0
 0118451,-0.00059540,0.00056568,-0.00219548,0.00257241,-0.01019936,-0.0
 0053099,-0.00020547,0.00172080,0.00093753,0.00002274,0.00110314,-0.000
 45434,0.00005375,-0.00076141,-0.00059066,0.00003449,0.00036352,0.00018
 085,0.00019528,0.00012252,-0.00030504,0.00011136,0.00006801,0.00012104
 ,-0.00006378,0.00007965,0.00017671,-0.00000909,0.00000927,-0.00025384,
 0.00014878,-0.00003943,-0.00001078,0.00005749,-0.00000583,0.00006437,-
 0.00012870,0.00003132,-0.00008789,0.00005635,-0.00010642,-0.00000319,-
 0.00000030,0.00002545,0.00007064,-0.00005299,0.00000500,-0.00011312,0.
 00005488,0.00007340,0.00010714,-0.00002917,-0.00004561,0.00003839,0.00
 001097,0.00001047,-0.00053747,0.00018904,0.00062496,-0.00023414,0.0000
 7128,-0.00034514,0.00003707,-0.00003357,-0.00019909,0.00153558,-0.0000
 7792,0.00004772,0.00030992,-0.00010255,0.00023814,-0.00003872,-0.00003
 645,0.00004723,-0.01039519,0.01256288,0.02069101,-0.03922322,-0.050816
 16,-0.01905558,-0.01860049,0.00051829,-0.03674207,0.16922449,-0.000995
 27,0.00007381,-0.00007254,0.00152413,-0.00407567,-0.00005694,-0.000032
 94,-0.00000136,-0.00002300,0.00004102,0.00000789,0.00004244,-0.0005709
 5,-0.00315210,-0.00030601,-0.00027428,-0.00013582,-0.00003240,0.000074
 17,0.00001577,0.00000448,0.00017783,-0.00001047,0.00092744,-0.00022284
 ,-0.00160117,-0.00110295,0.00021314,-0.00001706,0.00003894,0.00032002,
 -0.00022669,0.00058410,-0.00883693,0.03061274,-0.00059673,-0.00007000,
 0.00001080,-0.00008348,0.00291481,0.00015815,-0.00007901,0.05180996,-0
 .07699069,0.00702915,0.00007098,0.00004983,0.00002860,0.00011131,0.000
 09958,-0.00000854,0.00011224,0.00000801,0.00002308,-0.00001198,-0.0000
 1367,-0.00001219,0.00000488,0.00006149,0.00005798,-0.00088999,-0.00457
 581,-0.00066341,-0.00294281,0.00073034,0.00292716,0.00091820,0.0002869
 0,-0.00040786,0.00018894,-0.00079882,0.00011104,-0.00014857,0.00010000
 ,0.00010485,0.00086705,0.00014819,0.00021188,0.00389213,0.00066679,0.0
 0547681,0.00022469,-0.00030474,-0.00123535,-0.00109597,0.00002934,-0.0
 0153975,0.00010428,0.00061058,0.00025530,0.00025763,-0.00001657,-0.000
 08233,-0.00015637,-0.00006086,-0.00013003,0.00022781,-0.00002135,-0.00
 008031,-0.00005453,0.00006769,-0.00002240,-0.00005939,0.00001368,0.000
 00581,0.00002861,0.00012688,-0.00003884,-0.00005278,-0.00004820,0.0000
 1901,0.00004046,-0.00004994,0.00000538,-0.00001143,-0.00006947,0.00000
 428,-0.00003495,0.00000156,-0.00002095,-0.00003919,0.00003878,0.000004
 08,0.00007811,-0.00000082,-0.00008243,-0.00004879,0.00000270,0.0000791
 9,0.00005213,-0.00004168,-0.00001900,0.00019608,0.00004539,-0.00008466
 ,0.00010355,-0.00000033,0.00007136,-0.00007124,0.00001863,0.00011038,-
 0.00047071,-0.00072197,-0.00074978,-0.00038969,0.00063484,0.00049949,0
 .00000825,0.00001210,0.00013606,-0.01909145,-0.02095241,0.03382342,-0.
 03982999,-0.08656804,-0.02209279,0.01461377,-0.00849371,0.00195606,-0.
 00277314,0.17431695,-0.00037067,0.00116103,-0.00120687,0.00023822,0.00
 028253,0.00147486,0.00028233,-0.00014567,0.00016810,0.00004393,0.00000
 988,0.00006801,0.00019745,0.00196796,-0.00018705,-0.00043513,-0.000314
 06,-0.00003663,-0.00020410,0.00006217,0.00000580,-0.00019020,0.0002836
 0,0.00036464,0.00126846,-0.00079753,0.00029680,-0.00015021,-0.00012107
 ,-0.00009513,-0.00004133,-0.00118345,0.00027691,-0.00475153,-0.0065186
 5,-0.00034138,0.00067425,0.00012257,0.00001302,0.00448237,0.00011728,-
 0.00201574,0.00516757,0.00805591,-0.01144167,0.00003843,-0.00009174,0.
 00007090,-0.00014141,0.00007454,0.00024224,0.00014820,-0.00018682,0.00
 000358,-0.00002202,0.00002274,-0.00011351,0.00003638,0.00010033,0.0001
 2135,-0.00538059,0.00087821,0.00149339,0.00364048,0.00553087,0.0022862
 1,-0.00045708,0.00037582,0.00049397,0.00110551,-0.00042289,-0.00067841
 ,-0.00013789,-0.00006781,0.00012063,-0.00043700,-0.00047140,0.00056021
 ,-0.00600596,0.00109711,-0.00150248,0.00009913,0.00005521,-0.00050744,
 0.00080706,-0.00099978,0.00276121,-0.00162063,0.00006288,-0.00172893,0
 .00038795,-0.00019066,-0.00006286,0.00026666,0.00004594,0.00025695,-0.
 00021378,0.00009397,0.00009817,0.00020717,-0.00007145,-0.00008986,0.00
 013560,-0.00002881,0.00002118,-0.00014372,0.00015379,-0.00018271,-0.00
 004404,0.00000421,-0.00004415,0.00013430,-0.00009745,0.00003042,-0.000
 10228,-0.00016270,0.00000470,-0.00004404,0.00002243,-0.00000444,0.0000
 0864,0.00001955,0.00000279,0.00005744,-0.00002906,0.00008022,0.0000302
 1,-0.00000181,0.00002220,0.00000971,0.00001115,-0.00001222,-0.00011324
 ,0.00005259,0.00002123,-0.00013562,-0.00002065,-0.00004249,-0.00000579
 ,0.00001138,-0.00003034,0.00127066,0.00068192,-0.00008792,0.00060292,-
 0.00063031,-0.00052085,0.00000635,-0.00005955,0.00018572,0.03961693,0.
 02243010,-0.05428058,-0.01582307,-0.01274144,-0.00097495,-0.05716595,0
 .00648122,-0.08266053,0.03317299,-0.02491413,0.14730375\\0.00001047,-0
 .00002959,-0.00002186,0.00000451,0.00001925,-0.00001398,0.00000659,0.0
 0001859,0.00000685,0.00000452,-0.00000853,-0.00000182,0.00000544,-0.00
 001435,0.00001115,-0.00000025,0.00001691,0.00004944,0.00000092,0.00000
 107,-0.00000727,-0.00000843,0.00000595,0.00001948,-0.00001870,-0.00002
 602,-0.00003719,0.00000929,0.00000831,-0.00000179,0.00001307,-0.000003
 33,0.00001393,-0.00003173,0.00005822,-0.00002916,-0.00001255,-0.000056
 43,0.00003498,-0.00000356,-0.00001862,0.00000446,-0.00001081,-0.000021
 70,0.00002434,0.00000277,0.00000769,-0.00000019,-0.00000485,0.00000507
 ,-0.00000407,-0.00001314,0.00002849,-0.00002579,-0.00000673,0.00000102
 ,0.00000803,0.00000895,-0.00000537,-0.00000517,-0.00001720,0.00003517,
 0.00000092,0.00000034,-0.00000199,0.00002238,-0.00000206,-0.00001050,0
 .00000150,-0.00002429,0.00004249,0.00002292,0.00000001,0.00000149,0.00
 000344,0.00000618,0.00000198,0.00000041,0.00001710,0.00001457,-0.00003
 967,-0.00000194,0.00000267,-0.00000060,-0.00000023,-0.00000308,0.00001
 044,-0.00000603,0.00000824,-0.00001478,0.00000096,0.00000128,0.0000021
 5,0.00001355,-0.00001608,-0.00000360,0.00000439,-0.00000492,-0.0000076
 1,0.00000337,-0.00000037,0.00000154,-0.00000354,-0.00000081,0.00000183
 ,-0.00000005,-0.00001595,-0.00001667,0.00000176,0.00000066,-0.00000152
 ,-0.00000405,0.00000943,0.00001390,0.00001304,0.00000034,-0.00000999,0
 .00000164,-0.00000539,0.00000570,-0.00000340,0.00000059,0.00000124,0.0
 0001584,-0.00001383,-0.00001933,-0.00000141,0.00000475,-0.00000019,-0.
 00000335,-0.00000019,0.00000393,0.00003968,-0.00001183,0.00003731,0.00
 001252,0.00000418,-0.00000219,-0.00001996,-0.00000006,-0.00001206,-0.0
 0000414,-0.00003347,0.00000515,0.00000523,-0.00000561,-0.00002287,-0.0
 0000925,0.00000716,0.00000469,0.00001701,0.00002759,-0.00001680,-0.000
 00122,-0.00001155,-0.00000332,0.00000122,-0.00001233,0.00000526,-0.000
 00749,-0.00000125,0.00000214\\\@
 The archive entry for this job was punched.


 BLACK HOLES SUCK.
 Job cpu time:       3 days 16 hours 51 minutes 24.1 seconds.
 Elapsed time:       0 days  1 hours 51 minutes 21.4 seconds.
 File lengths (MBytes):  RWF=   8910 Int=      0 D2E=      0 Chk=    103 Scr=      2
 Normal termination of Gaussian 16 at Tue Dec 27 05:08:00 2022.
