 Entering Gaussian System, Link 0=/apps/GAU16/avx2/g16/g16
 Initial command:
 /apps/GAU16/avx2//g16/l1.exe "/localscratch/chesayan/sagar/Gau-91939.inp" -scrdir="/localscratch/chesayan/sagar/"
 Entering Link 1 = /apps/GAU16/avx2//g16/l1.exe PID=     91942.
  
 Copyright (c) 1988-2019, Gaussian, Inc.  All Rights Reserved.
  
 This is part of the Gaussian(R) 16 program.  It is based on
 the Gaussian(R) 09 system (copyright 2009, Gaussian, Inc.),
 the Gaussian(R) 03 system (copyright 2003, Gaussian, Inc.),
 the Gaussian(R) 98 system (copyright 1998, Gaussian, Inc.),
 the Gaussian(R) 94 system (copyright 1995, Gaussian, Inc.),
 the Gaussian 92(TM) system (copyright 1992, Gaussian, Inc.),
 the Gaussian 90(TM) system (copyright 1990, Gaussian, Inc.),
 the Gaussian 88(TM) system (copyright 1988, Gaussian, Inc.),
 the Gaussian 86(TM) system (copyright 1986, Carnegie Mellon
 University), and the Gaussian 82(TM) system (copyright 1983,
 Carnegie Mellon University). Gaussian is a federally registered
 trademark of Gaussian, Inc.
  
 This software contains proprietary and confidential information,
 including trade secrets, belonging to Gaussian, Inc.
  
 This software is provided under written license and may be
 used, copied, transmitted, or stored only in accord with that
 written license.
  
 The following legend is applicable only to US Government
 contracts under FAR:
  
                    RESTRICTED RIGHTS LEGEND
  
 Use, reproduction and disclosure by the US Government is
 subject to restrictions as set forth in subparagraphs (a)
 and (c) of the Commercial Computer Software - Restricted
 Rights clause in FAR 52.227-19.
  
 Gaussian, Inc.
 340 Quinnipiac St., Bldg. 40, Wallingford CT 06492
  
  
 ---------------------------------------------------------------
 Warning -- This program may not be used in any manner that
 competes with the business of Gaussian, Inc. or will provide
 assistance to any competitor of Gaussian, Inc.  The licensee
 of this program is prohibited from giving any competitor of
 Gaussian, Inc. access to this program.  By using this program,
 the user acknowledges that Gaussian, Inc. is engaged in the
 business of creating and licensing software in the field of
 computational chemistry and represents and warrants to the
 licensee that it is not a competitor of Gaussian, Inc. and that
 it will not use this program in any manner prohibited above.
 ---------------------------------------------------------------
  

 Cite this work as:
 Gaussian 16, Revision C.01,
 M. J. Frisch, G. W. Trucks, H. B. Schlegel, G. E. Scuseria, 
 M. A. Robb, J. R. Cheeseman, G. Scalmani, V. Barone, 
 G. A. Petersson, H. Nakatsuji, X. Li, M. Caricato, A. V. Marenich, 
 J. Bloino, B. G. Janesko, R. Gomperts, B. Mennucci, H. P. Hratchian, 
 J. V. Ortiz, A. F. Izmaylov, J. L. Sonnenberg, D. Williams-Young, 
 F. Ding, F. Lipparini, F. Egidi, J. Goings, B. Peng, A. Petrone, 
 T. Henderson, D. Ranasinghe, V. G. Zakrzewski, J. Gao, N. Rega, 
 G. Zheng, W. Liang, M. Hada, M. Ehara, K. Toyota, R. Fukuda, 
 J. Hasegawa, M. Ishida, T. Nakajima, Y. Honda, O. Kitao, H. Nakai, 
 T. Vreven, K. Throssell, J. A. Montgomery, Jr., J. E. Peralta, 
 F. Ogliaro, M. J. Bearpark, J. J. Heyd, E. N. Brothers, K. N. Kudin, 
 V. N. Staroverov, T. A. Keith, R. Kobayashi, J. Normand, 
 K. Raghavachari, A. P. Rendell, J. C. Burant, S. S. Iyengar, 
 J. Tomasi, M. Cossi, J. M. Millam, M. Klene, C. Adamo, R. Cammi, 
 J. W. Ochterski, R. L. Martin, K. Morokuma, O. Farkas, 
 J. B. Foresman, and D. J. Fox, Gaussian, Inc., Wallingford CT, 2019.
 
 ******************************************
 Gaussian 16:  ES64L-G16RevC.01  3-Jul-2019
                28-Dec-2022 
 ******************************************
 %nprocshared=48
 Will use up to   48 processors via shared memory.
 %mem=100GB
 ----------------------------------------------------------------------
 # opt=(calcfc,ts,noeigen) freq b3lyp/gen nosymm pseudo=read scf=maxcyc
 les=1000
 ----------------------------------------------------------------------
 1/5=1,10=4,11=1,18=20,26=3,38=1/1,3;
 2/9=110,12=2,15=1,17=6,18=5,40=1/2;
 3/5=7,11=2,16=1,17=8,25=1,30=1,71=2,74=-5,140=1/1,2,3;
 4//1;
 5/5=2,7=1000,38=5/2;
 8/6=4,10=90,11=11/1;
 11/6=1,8=1,9=11,15=111,16=1,31=1/1,2,10;
 10/6=1,13=1,31=1/2;
 6/7=2,8=2,9=2,10=2,28=1/1;
 7/10=1,25=1,30=1/1,2,3,16;
 1/5=1,10=4,11=1,18=20,26=3/3(2);
 2/9=110,15=1/2;
 99//99;
 2/9=110,15=1/2;
 3/5=7,6=1,11=2,16=1,17=8,25=1,30=1,71=1,74=-5,82=7/1,2,3;
 4/5=5,16=3,69=1/1;
 5/5=2,7=1000,38=5/2;
 7/30=1/1,2,3,16;
 1/5=1,11=1,18=20,26=3/3(-5);
 2/9=110,15=1/2;
 6/7=2,8=2,9=2,10=2,19=2,28=1/1;
 99/9=1/99;
 -------------------
 Title Card Required
 -------------------
 Symbolic Z-matrix:
 Charge =  0 Multiplicity = 1
 42                   -0.19414   1.44814   12.85513 
 16                    1.48662   3.26696   12.54846 
 16                   -1.57534   3.28823   13.59956 
 16                   -0.86907   1.09573   10.5505 
 16                    1.6767   -0.20978   11.98922 
 42                   -2.36537   2.85688   11.35868 
 16                   -3.00363   2.90588   8.78061 
 16                   -0.96813   4.81106   10.64116 
 42                    0.523     3.0312    10.48571 
 16                   -0.04276   3.15125   7.91102 
 16                    2.30787   1.7487    9.41295 
 42                    3.33054   1.58851   11.73651 
 42                   -1.69762   5.01197   8.16285 
 16                    4.1107    1.95969   14.03085 
 16                    4.51489   3.68204   11.2541 
 16                   -3.23748   6.63059   9.17739 
 16                   -0.1403    6.86817   8.00705 
 42                   -4.45738   4.54236   9.21738 
 16                   -6.41648   2.98826   9.74953 
 16                   -4.04881   4.77275   11.69785 
 42                    2.67756  -0.0282    14.01081 
 16                    4.61548  -1.54762   13.93589 
 16                    1.05419   1.45677   15.13642 
 42                    1.31266   5.03796   7.29328 
 16                    0.41312   4.61949   4.97201 
 16                    2.06562   4.97318   9.69201 
 42                    3.80183   3.62334   8.68575 
 16                    3.02233   3.26411   6.48897 
 16                    5.27403   5.58343   8.69189 
 42                    4.56756   5.0206    6.50772 
 16                    6.47741   4.20917   5.59581 
 16                    3.02708   6.89757   7.00385 
 42                    2.05362   6.34024   4.94815 
 16                    3.86791   5.58768   3.95151 
 16                    0.79196   8.01487   4.42679 
 42                   -1.03365   6.30809   5.90202 
 16                   -2.64415   4.55817   5.92933 
 16                   -2.55784   7.73365   5.18875 
 42                   -4.03032   6.38181   6.99538 
 16                   -5.64982   4.72514   7.23004 
 16                   -5.27099   8.12126   6.78399 
 42                   -5.37852   2.89712   11.69436 
 16                   -6.74907   2.88273   13.30031 
 16                   -4.05858   0.93916   11.55514 
 42                   -2.82267   1.30144   13.59992 
 16                   -1.50052  -0.70687   13.34722 
 16                   -3.87717   1.38152   15.44542 
 42                   -0.05307  -0.5597    15.21325 
 16                    1.5405   -2.06932   14.92403 
 16                   -0.97476  -0.85574   17.09085 
 42                    5.39717   0.36528   12.93861 
 16                    4.74026  -0.09459   10.7558 
 16                    7.31881   1.59915   12.59813 
 42                    5.96365   2.04429   10.65098 
 16                    5.43034   1.74407   8.25175 
 16                    7.64067   3.87182   10.15445 
 42                    6.61822   3.71086   7.99425 
 16                    8.73893   2.96574   7.31383 
 1                     9.20898   2.89392   8.827 
 1                     8.92394   3.09824   9.43465 
 

 GradGradGradGradGradGradGradGradGradGradGradGradGradGradGradGradGradGrad
 Berny optimization.
 Initialization pass.
                           ----------------------------
                           !    Initial Parameters    !
                           ! (Angstroms and Degrees)  !
 --------------------------                            --------------------------
 ! Name  Definition              Value          Derivative Info.                !
 --------------------------------------------------------------------------------
 ! R1    R(1,2)                  2.4954         calculate D2E/DX2 analytically  !
 ! R2    R(1,3)                  2.4182         calculate D2E/DX2 analytically  !
 ! R3    R(1,4)                  2.4271         calculate D2E/DX2 analytically  !
 ! R4    R(1,5)                  2.6455         calculate D2E/DX2 analytically  !
 ! R5    R(1,6)                  2.9897         calculate D2E/DX2 analytically  !
 ! R6    R(1,9)                  2.9385         calculate D2E/DX2 analytically  !
 ! R7    R(1,23)                 2.6005         calculate D2E/DX2 analytically  !
 ! R8    R(1,45)                 2.7359         calculate D2E/DX2 analytically  !
 ! R9    R(1,46)                 2.5677         calculate D2E/DX2 analytically  !
 ! R10   R(1,48)                 3.1003         calculate D2E/DX2 analytically  !
 ! R11   R(2,9)                  2.2889         calculate D2E/DX2 analytically  !
 ! R12   R(2,12)                 2.6223         calculate D2E/DX2 analytically  !
 ! R13   R(3,6)                  2.4149         calculate D2E/DX2 analytically  !
 ! R14   R(3,45)                 2.3459         calculate D2E/DX2 analytically  !
 ! R15   R(4,6)                  2.4482         calculate D2E/DX2 analytically  !
 ! R16   R(4,9)                  2.385          calculate D2E/DX2 analytically  !
 ! R17   R(5,12)                 2.4562         calculate D2E/DX2 analytically  !
 ! R18   R(5,21)                 2.2631         calculate D2E/DX2 analytically  !
 ! R19   R(6,7)                  2.6564         calculate D2E/DX2 analytically  !
 ! R20   R(6,8)                  2.5072         calculate D2E/DX2 analytically  !
 ! R21   R(6,9)                  3.0224         calculate D2E/DX2 analytically  !
 ! R22   R(6,20)                 2.5729         calculate D2E/DX2 analytically  !
 ! R23   R(6,42)                 3.0321         calculate D2E/DX2 analytically  !
 ! R24   R(6,44)                 2.5658         calculate D2E/DX2 analytically  !
 ! R25   R(6,45)                 2.7662         calculate D2E/DX2 analytically  !
 ! R26   R(7,13)                 2.554          calculate D2E/DX2 analytically  !
 ! R27   R(7,18)                 2.2321         calculate D2E/DX2 analytically  !
 ! R28   R(8,9)                  2.3271         calculate D2E/DX2 analytically  !
 ! R29   R(8,13)                 2.5912         calculate D2E/DX2 analytically  !
 ! R30   R(9,10)                 2.6388         calculate D2E/DX2 analytically  !
 ! R31   R(9,11)                 2.4457         calculate D2E/DX2 analytically  !
 ! R32   R(9,26)                 2.604          calculate D2E/DX2 analytically  !
 ! R33   R(10,13)                2.5028         calculate D2E/DX2 analytically  !
 ! R34   R(10,24)                2.4038         calculate D2E/DX2 analytically  !
 ! R35   R(11,12)                2.5437         calculate D2E/DX2 analytically  !
 ! R36   R(11,27)                2.505          calculate D2E/DX2 analytically  !
 ! R37   R(12,14)                2.4516         calculate D2E/DX2 analytically  !
 ! R38   R(12,15)                2.4532         calculate D2E/DX2 analytically  !
 ! R39   R(12,21)                2.8658         calculate D2E/DX2 analytically  !
 ! R40   R(12,51)                2.6856         calculate D2E/DX2 analytically  !
 ! R41   R(12,52)                2.4046         calculate D2E/DX2 analytically  !
 ! R42   R(12,54)                2.8843         calculate D2E/DX2 analytically  !
 ! R43   R(13,16)                2.4536         calculate D2E/DX2 analytically  !
 ! R44   R(13,17)                2.428          calculate D2E/DX2 analytically  !
 ! R45   R(13,18)                2.9915         calculate D2E/DX2 analytically  !
 ! R46   R(13,36)                2.6893         calculate D2E/DX2 analytically  !
 ! R47   R(13,37)                2.4679         calculate D2E/DX2 analytically  !
 ! R48   R(13,39)                2.9463         calculate D2E/DX2 analytically  !
 ! R49   R(14,21)                2.4507         calculate D2E/DX2 analytically  !
 ! R50   R(14,51)                2.3217         calculate D2E/DX2 analytically  !
 ! R51   R(15,27)                2.6661         calculate D2E/DX2 analytically  !
 ! R52   R(15,54)                2.2682         calculate D2E/DX2 analytically  !
 ! R53   R(16,18)                2.4188         calculate D2E/DX2 analytically  !
 ! R54   R(16,39)                2.3349         calculate D2E/DX2 analytically  !
 ! R55   R(17,24)                2.4434         calculate D2E/DX2 analytically  !
 ! R56   R(17,36)                2.3543         calculate D2E/DX2 analytically  !
 ! R57   R(18,19)                2.5567         calculate D2E/DX2 analytically  !
 ! R58   R(18,20)                2.5244         calculate D2E/DX2 analytically  !
 ! R59   R(18,39)                2.916          calculate D2E/DX2 analytically  !
 ! R60   R(18,40)                2.3248         calculate D2E/DX2 analytically  !
 ! R61   R(18,42)                3.113          calculate D2E/DX2 analytically  !
 ! R62   R(19,42)                2.2064         calculate D2E/DX2 analytically  !
 ! R63   R(20,42)                2.2992         calculate D2E/DX2 analytically  !
 ! R64   R(21,22)                2.4637         calculate D2E/DX2 analytically  !
 ! R65   R(21,23)                2.4713         calculate D2E/DX2 analytically  !
 ! R66   R(21,48)                3.0306         calculate D2E/DX2 analytically  !
 ! R67   R(21,49)                2.5086         calculate D2E/DX2 analytically  !
 ! R68   R(21,51)                2.9497         calculate D2E/DX2 analytically  !
 ! R69   R(22,51)                2.2945         calculate D2E/DX2 analytically  !
 ! R70   R(23,48)                2.3018         calculate D2E/DX2 analytically  !
 ! R71   R(24,25)                2.5244         calculate D2E/DX2 analytically  !
 ! R72   R(24,26)                2.515          calculate D2E/DX2 analytically  !
 ! R73   R(24,28)                2.5916         calculate D2E/DX2 analytically  !
 ! R74   R(24,32)                2.5458         calculate D2E/DX2 analytically  !
 ! R75   R(24,33)                2.7829         calculate D2E/DX2 analytically  !
 ! R76   R(24,36)                3.009          calculate D2E/DX2 analytically  !
 ! R77   R(25,33)                2.3776         calculate D2E/DX2 analytically  !
 ! R78   R(25,36)                2.4103         calculate D2E/DX2 analytically  !
 ! R79   R(26,27)                2.4185         calculate D2E/DX2 analytically  !
 ! R80   R(27,28)                2.3585         calculate D2E/DX2 analytically  !
 ! R81   R(27,29)                2.4514         calculate D2E/DX2 analytically  !
 ! R82   R(27,30)                2.6986         calculate D2E/DX2 analytically  !
 ! R83   R(27,55)                2.5243         calculate D2E/DX2 analytically  !
 ! R84   R(27,57)                2.9014         calculate D2E/DX2 analytically  !
 ! R85   R(28,30)                2.3395         calculate D2E/DX2 analytically  !
 ! R86   R(29,30)                2.3636         calculate D2E/DX2 analytically  !
 ! R87   R(29,57)                2.4083         calculate D2E/DX2 analytically  !
 ! R88   R(30,31)                2.2666         calculate D2E/DX2 analytically  !
 ! R89   R(30,32)                2.4784         calculate D2E/DX2 analytically  !
 ! R90   R(30,34)                2.7102         calculate D2E/DX2 analytically  !
 ! R91   R(30,57)                2.8514         calculate D2E/DX2 analytically  !
 ! R92   R(31,57)                2.4537         calculate D2E/DX2 analytically  !
 ! R93   R(32,33)                2.3418         calculate D2E/DX2 analytically  !
 ! R94   R(33,34)                2.2026         calculate D2E/DX2 analytically  !
 ! R95   R(33,35)                2.1605         calculate D2E/DX2 analytically  !
 ! R96   R(36,37)                2.3784         calculate D2E/DX2 analytically  !
 ! R97   R(36,38)                2.2055         calculate D2E/DX2 analytically  !
 ! R98   R(37,39)                2.5266         calculate D2E/DX2 analytically  !
 ! R99   R(38,39)                2.6944         calculate D2E/DX2 analytically  !
 ! R100  R(39,40)                2.3286         calculate D2E/DX2 analytically  !
 ! R101  R(39,41)                2.147          calculate D2E/DX2 analytically  !
 ! R102  R(42,43)                2.1113         calculate D2E/DX2 analytically  !
 ! R103  R(42,44)                2.3654         calculate D2E/DX2 analytically  !
 ! R104  R(44,45)                2.4166         calculate D2E/DX2 analytically  !
 ! R105  R(45,46)                2.4177         calculate D2E/DX2 analytically  !
 ! R106  R(45,47)                2.127          calculate D2E/DX2 analytically  !
 ! R107  R(46,48)                2.3662         calculate D2E/DX2 analytically  !
 ! R108  R(48,49)                2.2141         calculate D2E/DX2 analytically  !
 ! R109  R(48,50)                2.1125         calculate D2E/DX2 analytically  !
 ! R110  R(51,52)                2.3254         calculate D2E/DX2 analytically  !
 ! R111  R(51,53)                2.3089         calculate D2E/DX2 analytically  !
 ! R112  R(51,54)                2.8937         calculate D2E/DX2 analytically  !
 ! R113  R(52,54)                2.4663         calculate D2E/DX2 analytically  !
 ! R114  R(53,54)                2.4137         calculate D2E/DX2 analytically  !
 ! R115  R(54,55)                2.476          calculate D2E/DX2 analytically  !
 ! R116  R(54,56)                2.5296         calculate D2E/DX2 analytically  !
 ! R117  R(55,57)                2.3121         calculate D2E/DX2 analytically  !
 ! R118  R(56,57)                2.3954         calculate D2E/DX2 analytically  !
 ! R119  R(57,58)                2.3485         calculate D2E/DX2 analytically  !
 ! R120  R(58,59)                1.5861         calculate D2E/DX2 analytically  !
 ! R121  R(59,60)                0.7016         calculate D2E/DX2 analytically  !
 ! A1    A(2,1,3)               82.4101         calculate D2E/DX2 analytically  !
 ! A2    A(2,1,4)              100.162          calculate D2E/DX2 analytically  !
 ! A3    A(2,1,5)               86.5738         calculate D2E/DX2 analytically  !
 ! A4    A(2,1,6)               94.8298         calculate D2E/DX2 analytically  !
 ! A5    A(2,1,23)              77.4124         calculate D2E/DX2 analytically  !
 ! A6    A(2,1,45)             136.0238         calculate D2E/DX2 analytically  !
 ! A7    A(2,1,48)             122.334          calculate D2E/DX2 analytically  !
 ! A8    A(3,1,4)              104.1202         calculate D2E/DX2 analytically  !
 ! A9    A(3,1,9)               88.721          calculate D2E/DX2 analytically  !
 ! A10   A(3,1,23)              90.0915         calculate D2E/DX2 analytically  !
 ! A11   A(3,1,46)             106.8007         calculate D2E/DX2 analytically  !
 ! A12   A(3,1,48)             106.537          calculate D2E/DX2 analytically  !
 ! A13   A(4,1,5)               78.1627         calculate D2E/DX2 analytically  !
 ! A14   A(4,1,45)              89.0568         calculate D2E/DX2 analytically  !
 ! A15   A(4,1,46)              85.3329         calculate D2E/DX2 analytically  !
 ! A16   A(4,1,48)             129.8539         calculate D2E/DX2 analytically  !
 ! A17   A(5,1,6)              130.1701         calculate D2E/DX2 analytically  !
 ! A18   A(5,1,9)               84.3246         calculate D2E/DX2 analytically  !
 ! A19   A(5,1,23)              87.1194         calculate D2E/DX2 analytically  !
 ! A20   A(5,1,45)             137.3007         calculate D2E/DX2 analytically  !
 ! A21   A(5,1,46)              84.0622         calculate D2E/DX2 analytically  !
 ! A22   A(5,1,48)              79.1007         calculate D2E/DX2 analytically  !
 ! A23   A(6,1,23)             141.8271         calculate D2E/DX2 analytically  !
 ! A24   A(6,1,46)              97.0019         calculate D2E/DX2 analytically  !
 ! A25   A(6,1,48)             135.965          calculate D2E/DX2 analytically  !
 ! A26   A(9,1,23)             126.0452         calculate D2E/DX2 analytically  !
 ! A27   A(9,1,45)             118.8726         calculate D2E/DX2 analytically  !
 ! A28   A(9,1,46)             136.9591         calculate D2E/DX2 analytically  !
 ! A29   A(9,1,48)             162.0091         calculate D2E/DX2 analytically  !
 ! A30   A(23,1,45)            102.8592         calculate D2E/DX2 analytically  !
 ! A31   A(23,1,46)             94.5251         calculate D2E/DX2 analytically  !
 ! A32   A(45,1,48)             78.5763         calculate D2E/DX2 analytically  !
 ! A33   A(1,2,12)              92.5871         calculate D2E/DX2 analytically  !
 ! A34   A(9,2,12)              87.1952         calculate D2E/DX2 analytically  !
 ! A35   A(1,5,12)              92.9243         calculate D2E/DX2 analytically  !
 ! A36   A(1,5,21)              88.2858         calculate D2E/DX2 analytically  !
 ! A37   A(1,6,7)              131.9881         calculate D2E/DX2 analytically  !
 ! A38   A(1,6,8)               96.0723         calculate D2E/DX2 analytically  !
 ! A39   A(1,6,20)             139.4717         calculate D2E/DX2 analytically  !
 ! A40   A(1,6,42)             132.2646         calculate D2E/DX2 analytically  !
 ! A41   A(1,6,44)              95.0915         calculate D2E/DX2 analytically  !
 ! A42   A(3,6,4)              103.5838         calculate D2E/DX2 analytically  !
 ! A43   A(3,6,8)               86.7908         calculate D2E/DX2 analytically  !
 ! A44   A(3,6,9)               86.8515         calculate D2E/DX2 analytically  !
 ! A45   A(3,6,20)              87.6342         calculate D2E/DX2 analytically  !
 ! A46   A(3,6,42)             102.7095         calculate D2E/DX2 analytically  !
 ! A47   A(3,6,44)             106.1615         calculate D2E/DX2 analytically  !
 ! A48   A(4,6,7)               80.7779         calculate D2E/DX2 analytically  !
 ! A49   A(4,6,8)               97.2161         calculate D2E/DX2 analytically  !
 ! A50   A(4,6,42)             130.8034         calculate D2E/DX2 analytically  !
 ! A51   A(4,6,44)              83.7388         calculate D2E/DX2 analytically  !
 ! A52   A(4,6,45)              87.937          calculate D2E/DX2 analytically  !
 ! A53   A(7,6,8)               80.8962         calculate D2E/DX2 analytically  !
 ! A54   A(7,6,9)               87.0327         calculate D2E/DX2 analytically  !
 ! A55   A(7,6,20)              87.535          calculate D2E/DX2 analytically  !
 ! A56   A(7,6,42)              82.4394         calculate D2E/DX2 analytically  !
 ! A57   A(7,6,44)              85.9595         calculate D2E/DX2 analytically  !
 ! A58   A(7,6,45)             139.2009         calculate D2E/DX2 analytically  !
 ! A59   A(8,6,20)              79.7448         calculate D2E/DX2 analytically  !
 ! A60   A(8,6,42)             125.1109         calculate D2E/DX2 analytically  !
 ! A61   A(8,6,45)             139.6666         calculate D2E/DX2 analytically  !
 ! A62   A(9,6,20)             128.3462         calculate D2E/DX2 analytically  !
 ! A63   A(9,6,44)             134.0966         calculate D2E/DX2 analytically  !
 ! A64   A(9,6,45)             115.115          calculate D2E/DX2 analytically  !
 ! A65   A(20,6,44)             96.5854         calculate D2E/DX2 analytically  !
 ! A66   A(20,6,45)            101.756          calculate D2E/DX2 analytically  !
 ! A67   A(42,6,45)             75.728          calculate D2E/DX2 analytically  !
 ! A68   A(6,7,13)              97.3017         calculate D2E/DX2 analytically  !
 ! A69   A(6,7,18)              88.86           calculate D2E/DX2 analytically  !
 ! A70   A(6,8,13)             100.2098         calculate D2E/DX2 analytically  !
 ! A71   A(9,8,13)             100.1251         calculate D2E/DX2 analytically  !
 ! A72   A(1,9,8)              101.6422         calculate D2E/DX2 analytically  !
 ! A73   A(1,9,10)             139.3697         calculate D2E/DX2 analytically  !
 ! A74   A(1,9,11)             104.4355         calculate D2E/DX2 analytically  !
 ! A75   A(1,9,26)             142.3843         calculate D2E/DX2 analytically  !
 ! A76   A(2,9,4)              107.7481         calculate D2E/DX2 analytically  !
 ! A77   A(2,9,6)               98.5093         calculate D2E/DX2 analytically  !
 ! A78   A(2,9,8)               97.5146         calculate D2E/DX2 analytically  !
 ! A79   A(2,9,10)             164.7655         calculate D2E/DX2 analytically  !
 ! A80   A(2,9,11)              98.1672         calculate D2E/DX2 analytically  !
 ! A81   A(2,9,26)              87.0463         calculate D2E/DX2 analytically  !
 ! A82   A(4,9,8)              104.1738         calculate D2E/DX2 analytically  !
 ! A83   A(4,9,10)              86.4618         calculate D2E/DX2 analytically  !
 ! A84   A(4,9,11)              90.7066         calculate D2E/DX2 analytically  !
 ! A85   A(4,9,26)             163.589          calculate D2E/DX2 analytically  !
 ! A86   A(6,9,10)              94.5624         calculate D2E/DX2 analytically  !
 ! A87   A(6,9,11)             142.5492         calculate D2E/DX2 analytically  !
 ! A88   A(6,9,26)             134.2003         calculate D2E/DX2 analytically  !
 ! A89   A(8,9,10)              83.8579         calculate D2E/DX2 analytically  !
 ! A90   A(8,9,11)             153.8966         calculate D2E/DX2 analytically  !
 ! A91   A(8,9,26)              80.1869         calculate D2E/DX2 analytically  !
 ! A92   A(10,9,11)             75.6618         calculate D2E/DX2 analytically  !
 ! A93   A(10,9,26)             78.2111         calculate D2E/DX2 analytically  !
 ! A94   A(11,9,26)             79.9238         calculate D2E/DX2 analytically  !
 ! A95   A(9,10,13)             94.4397         calculate D2E/DX2 analytically  !
 ! A96   A(9,10,24)             99.5293         calculate D2E/DX2 analytically  !
 ! A97   A(13,10,24)            79.3487         calculate D2E/DX2 analytically  !
 ! A98   A(9,11,12)             85.7426         calculate D2E/DX2 analytically  !
 ! A99   A(9,11,27)             99.7964         calculate D2E/DX2 analytically  !
 ! A100  A(12,11,27)            94.1594         calculate D2E/DX2 analytically  !
 ! A101  A(2,12,5)              87.8966         calculate D2E/DX2 analytically  !
 ! A102  A(2,12,11)             87.6974         calculate D2E/DX2 analytically  !
 ! A103  A(2,12,14)             80.624          calculate D2E/DX2 analytically  !
 ! A104  A(2,12,15)             81.6127         calculate D2E/DX2 analytically  !
 ! A105  A(2,12,21)             87.4291         calculate D2E/DX2 analytically  !
 ! A106  A(2,12,51)            133.9516         calculate D2E/DX2 analytically  !
 ! A107  A(2,12,54)            131.0948         calculate D2E/DX2 analytically  !
 ! A108  A(5,12,11)             82.4949         calculate D2E/DX2 analytically  !
 ! A109  A(5,12,14)            103.2283         calculate D2E/DX2 analytically  !
 ! A110  A(5,12,51)             97.9679         calculate D2E/DX2 analytically  !
 ! A111  A(5,12,52)             85.6555         calculate D2E/DX2 analytically  !
 ! A112  A(5,12,54)            140.2735         calculate D2E/DX2 analytically  !
 ! A113  A(11,12,15)            87.7491         calculate D2E/DX2 analytically  !
 ! A114  A(11,12,21)           131.9783         calculate D2E/DX2 analytically  !
 ! A115  A(11,12,51)           138.3263         calculate D2E/DX2 analytically  !
 ! A116  A(11,12,52)            84.6769         calculate D2E/DX2 analytically  !
 ! A117  A(11,12,54)            90.7613         calculate D2E/DX2 analytically  !
 ! A118  A(14,12,15)            84.3296         calculate D2E/DX2 analytically  !
 ! A119  A(14,12,52)           107.5239         calculate D2E/DX2 analytically  !
 ! A120  A(14,12,54)            92.1652         calculate D2E/DX2 analytically  !
 ! A121  A(15,12,21)           138.3739         calculate D2E/DX2 analytically  !
 ! A122  A(15,12,51)            96.0394         calculate D2E/DX2 analytically  !
 ! A123  A(15,12,52)           103.5384         calculate D2E/DX2 analytically  !
 ! A124  A(21,12,52)            93.5766         calculate D2E/DX2 analytically  !
 ! A125  A(21,12,54)           126.5723         calculate D2E/DX2 analytically  !
 ! A126  A(7,13,8)              81.2968         calculate D2E/DX2 analytically  !
 ! A127  A(7,13,10)             75.486          calculate D2E/DX2 analytically  !
 ! A128  A(7,13,16)             97.0686         calculate D2E/DX2 analytically  !
 ! A129  A(7,13,36)            136.6384         calculate D2E/DX2 analytically  !
 ! A130  A(7,13,37)             82.597          calculate D2E/DX2 analytically  !
 ! A131  A(7,13,39)             94.2657         calculate D2E/DX2 analytically  !
 ! A132  A(8,13,10)             81.515          calculate D2E/DX2 analytically  !
 ! A133  A(8,13,16)             80.3495         calculate D2E/DX2 analytically  !
 ! A134  A(8,13,17)             86.5645         calculate D2E/DX2 analytically  !
 ! A135  A(8,13,18)             84.8593         calculate D2E/DX2 analytically  !
 ! A136  A(8,13,36)            140.5256         calculate D2E/DX2 analytically  !
 ! A137  A(8,13,37)            163.5987         calculate D2E/DX2 analytically  !
 ! A138  A(8,13,39)            129.6362         calculate D2E/DX2 analytically  !
 ! A139  A(10,13,16)           161.2597         calculate D2E/DX2 analytically  !
 ! A140  A(10,13,17)            97.9213         calculate D2E/DX2 analytically  !
 ! A141  A(10,13,18)           121.9206         calculate D2E/DX2 analytically  !
 ! A142  A(10,13,36)            96.3427         calculate D2E/DX2 analytically  !
 ! A143  A(10,13,37)            91.4799         calculate D2E/DX2 analytically  !
 ! A144  A(10,13,39)           146.0231         calculate D2E/DX2 analytically  !
 ! A145  A(16,13,17)            85.6838         calculate D2E/DX2 analytically  !
 ! A146  A(16,13,36)           100.6389         calculate D2E/DX2 analytically  !
 ! A147  A(16,13,37)           104.7629         calculate D2E/DX2 analytically  !
 ! A148  A(17,13,18)           137.2537         calculate D2E/DX2 analytically  !
 ! A149  A(17,13,37)           109.1783         calculate D2E/DX2 analytically  !
 ! A150  A(17,13,39)            97.2935         calculate D2E/DX2 analytically  !
 ! A151  A(18,13,36)           126.8546         calculate D2E/DX2 analytically  !
 ! A152  A(18,13,37)            86.3501         calculate D2E/DX2 analytically  !
 ! A153  A(36,13,39)            68.7942         calculate D2E/DX2 analytically  !
 ! A154  A(12,15,27)            92.3798         calculate D2E/DX2 analytically  !
 ! A155  A(27,15,54)            84.1908         calculate D2E/DX2 analytically  !
 ! A156  A(13,17,24)            80.0673         calculate D2E/DX2 analytically  !
 ! A157  A(7,18,16)            107.5329         calculate D2E/DX2 analytically  !
 ! A158  A(7,18,19)             95.4016         calculate D2E/DX2 analytically  !
 ! A159  A(7,18,20)             98.8454         calculate D2E/DX2 analytically  !
 ! A160  A(7,18,39)            102.5912         calculate D2E/DX2 analytically  !
 ! A161  A(7,18,40)            102.9694         calculate D2E/DX2 analytically  !
 ! A162  A(7,18,42)             87.7611         calculate D2E/DX2 analytically  !
 ! A163  A(13,18,19)           151.1303         calculate D2E/DX2 analytically  !
 ! A164  A(13,18,20)           100.5292         calculate D2E/DX2 analytically  !
 ! A165  A(13,18,40)            99.1783         calculate D2E/DX2 analytically  !
 ! A166  A(13,18,42)           129.5267         calculate D2E/DX2 analytically  !
 ! A167  A(16,18,19)           156.1641         calculate D2E/DX2 analytically  !
 ! A168  A(16,18,20)            81.7105         calculate D2E/DX2 analytically  !
 ! A169  A(16,18,40)           100.1765         calculate D2E/DX2 analytically  !
 ! A170  A(16,18,42)           128.2193         calculate D2E/DX2 analytically  !
 ! A171  A(19,18,20)            88.566          calculate D2E/DX2 analytically  !
 ! A172  A(19,18,39)           130.8648         calculate D2E/DX2 analytically  !
 ! A173  A(19,18,40)            80.3684         calculate D2E/DX2 analytically  !
 ! A174  A(20,18,39)           131.8707         calculate D2E/DX2 analytically  !
 ! A175  A(20,18,40)           156.3174         calculate D2E/DX2 analytically  !
 ! A176  A(40,18,42)           124.7476         calculate D2E/DX2 analytically  !
 ! A177  A(6,20,18)             84.7448         calculate D2E/DX2 analytically  !
 ! A178  A(5,21,14)            109.3299         calculate D2E/DX2 analytically  !
 ! A179  A(5,21,22)            105.7372         calculate D2E/DX2 analytically  !
 ! A180  A(5,21,23)             99.472          calculate D2E/DX2 analytically  !
 ! A181  A(5,21,48)             86.6679         calculate D2E/DX2 analytically  !
 ! A182  A(5,21,49)             93.4082         calculate D2E/DX2 analytically  !
 ! A183  A(5,21,51)             95.3795         calculate D2E/DX2 analytically  !
 ! A184  A(12,21,22)            98.3117         calculate D2E/DX2 analytically  !
 ! A185  A(12,21,23)            99.913          calculate D2E/DX2 analytically  !
 ! A186  A(12,21,48)           128.2515         calculate D2E/DX2 analytically  !
 ! A187  A(12,21,49)           148.3425         calculate D2E/DX2 analytically  !
 ! A188  A(14,21,22)            92.3222         calculate D2E/DX2 analytically  !
 ! A189  A(14,21,23)            83.8579         calculate D2E/DX2 analytically  !
 ! A190  A(14,21,48)           131.7521         calculate D2E/DX2 analytically  !
 ! A191  A(14,21,49)           157.2318         calculate D2E/DX2 analytically  !
 ! A192  A(22,21,23)           154.3066         calculate D2E/DX2 analytically  !
 ! A193  A(22,21,48)           127.7804         calculate D2E/DX2 analytically  !
 ! A194  A(22,21,49)            82.288          calculate D2E/DX2 analytically  !
 ! A195  A(23,21,49)            91.4533         calculate D2E/DX2 analytically  !
 ! A196  A(23,21,51)           133.7129         calculate D2E/DX2 analytically  !
 ! A197  A(49,21,51)           131.2064         calculate D2E/DX2 analytically  !
 ! A198  A(1,23,21)             85.0534         calculate D2E/DX2 analytically  !
 ! A199  A(10,24,17)           100.2264         calculate D2E/DX2 analytically  !
 ! A200  A(10,24,25)            84.5642         calculate D2E/DX2 analytically  !
 ! A201  A(10,24,26)            84.4618         calculate D2E/DX2 analytically  !
 ! A202  A(10,24,28)            85.096          calculate D2E/DX2 analytically  !
 ! A203  A(10,24,33)           137.2203         calculate D2E/DX2 analytically  !
 ! A204  A(10,24,36)            90.5985         calculate D2E/DX2 analytically  !
 ! A205  A(17,24,25)           100.4217         calculate D2E/DX2 analytically  !
 ! A206  A(17,24,26)            85.337          calculate D2E/DX2 analytically  !
 ! A207  A(17,24,32)            83.4839         calculate D2E/DX2 analytically  !
 ! A208  A(17,24,33)            93.0942         calculate D2E/DX2 analytically  !
 ! A209  A(25,24,28)            80.5745         calculate D2E/DX2 analytically  !
 ! A210  A(25,24,32)           104.8637         calculate D2E/DX2 analytically  !
 ! A211  A(26,24,28)            94.6384         calculate D2E/DX2 analytically  !
 ! A212  A(26,24,32)            85.735          calculate D2E/DX2 analytically  !
 ! A213  A(26,24,33)           137.3989         calculate D2E/DX2 analytically  !
 ! A214  A(26,24,36)           133.2613         calculate D2E/DX2 analytically  !
 ! A215  A(28,24,32)            91.1705         calculate D2E/DX2 analytically  !
 ! A216  A(28,24,33)            83.2879         calculate D2E/DX2 analytically  !
 ! A217  A(28,24,36)           131.2871         calculate D2E/DX2 analytically  !
 ! A218  A(32,24,36)            99.4519         calculate D2E/DX2 analytically  !
 ! A219  A(33,24,36)            67.6945         calculate D2E/DX2 analytically  !
 ! A220  A(33,25,36)            84.8938         calculate D2E/DX2 analytically  !
 ! A221  A(9,26,24)             97.6177         calculate D2E/DX2 analytically  !
 ! A222  A(9,26,27)             97.8083         calculate D2E/DX2 analytically  !
 ! A223  A(24,26,27)            80.3557         calculate D2E/DX2 analytically  !
 ! A224  A(11,27,15)            84.0496         calculate D2E/DX2 analytically  !
 ! A225  A(11,27,26)            82.4587         calculate D2E/DX2 analytically  !
 ! A226  A(11,27,28)            87.6675         calculate D2E/DX2 analytically  !
 ! A227  A(11,27,29)           162.9039         calculate D2E/DX2 analytically  !
 ! A228  A(11,27,30)           142.2794         calculate D2E/DX2 analytically  !
 ! A229  A(11,27,55)            82.9653         calculate D2E/DX2 analytically  !
 ! A230  A(11,27,57)           132.1203         calculate D2E/DX2 analytically  !
 ! A231  A(15,27,26)            77.2267         calculate D2E/DX2 analytically  !
 ! A232  A(15,27,29)            79.5932         calculate D2E/DX2 analytically  !
 ! A233  A(15,27,30)           133.6458         calculate D2E/DX2 analytically  !
 ! A234  A(15,27,55)            90.5426         calculate D2E/DX2 analytically  !
 ! A235  A(15,27,57)            88.2413         calculate D2E/DX2 analytically  !
 ! A236  A(26,27,28)           103.6085         calculate D2E/DX2 analytically  !
 ! A237  A(26,27,29)            89.0728         calculate D2E/DX2 analytically  !
 ! A238  A(26,27,30)           104.5085         calculate D2E/DX2 analytically  !
 ! A239  A(26,27,55)           161.8401         calculate D2E/DX2 analytically  !
 ! A240  A(26,27,57)           141.187          calculate D2E/DX2 analytically  !
 ! A241  A(28,27,29)           108.8204         calculate D2E/DX2 analytically  !
 ! A242  A(28,27,55)            86.5423         calculate D2E/DX2 analytically  !
 ! A243  A(28,27,57)            95.9364         calculate D2E/DX2 analytically  !
 ! A244  A(29,27,55)           102.0202         calculate D2E/DX2 analytically  !
 ! A245  A(30,27,55)            93.649          calculate D2E/DX2 analytically  !
 ! A246  A(24,28,27)            79.9045         calculate D2E/DX2 analytically  !
 ! A247  A(24,28,30)            85.3741         calculate D2E/DX2 analytically  !
 ! A248  A(27,30,31)           112.2375         calculate D2E/DX2 analytically  !
 ! A249  A(27,30,32)            93.1063         calculate D2E/DX2 analytically  !
 ! A250  A(27,30,34)           142.7797         calculate D2E/DX2 analytically  !
 ! A251  A(28,30,29)           112.5576         calculate D2E/DX2 analytically  !
 ! A252  A(28,30,31)           106.5307         calculate D2E/DX2 analytically  !
 ! A253  A(28,30,32)            99.1875         calculate D2E/DX2 analytically  !
 ! A254  A(28,30,34)            88.7983         calculate D2E/DX2 analytically  !
 ! A255  A(28,30,57)            97.7197         calculate D2E/DX2 analytically  !
 ! A256  A(29,30,31)           101.8402         calculate D2E/DX2 analytically  !
 ! A257  A(29,30,32)            79.6566         calculate D2E/DX2 analytically  !
 ! A258  A(29,30,34)           154.0162         calculate D2E/DX2 analytically  !
 ! A259  A(31,30,32)           151.0926         calculate D2E/DX2 analytically  !
 ! A260  A(31,30,34)            85.0069         calculate D2E/DX2 analytically  !
 ! A261  A(32,30,34)            82.5236         calculate D2E/DX2 analytically  !
 ! A262  A(32,30,57)           133.6725         calculate D2E/DX2 analytically  !
 ! A263  A(34,30,57)           140.6674         calculate D2E/DX2 analytically  !
 ! A264  A(24,32,30)            83.5773         calculate D2E/DX2 analytically  !
 ! A265  A(30,32,33)            84.3997         calculate D2E/DX2 analytically  !
 ! A266  A(24,33,34)           116.1512         calculate D2E/DX2 analytically  !
 ! A267  A(24,33,35)           114.2412         calculate D2E/DX2 analytically  !
 ! A268  A(25,33,32)           116.7599         calculate D2E/DX2 analytically  !
 ! A269  A(25,33,34)           109.0031         calculate D2E/DX2 analytically  !
 ! A270  A(25,33,35)            99.2342         calculate D2E/DX2 analytically  !
 ! A271  A(32,33,34)            97.823          calculate D2E/DX2 analytically  !
 ! A272  A(32,33,35)           105.6702         calculate D2E/DX2 analytically  !
 ! A273  A(34,33,35)           129.5424         calculate D2E/DX2 analytically  !
 ! A274  A(30,34,33)            81.7993         calculate D2E/DX2 analytically  !
 ! A275  A(13,36,24)            66.4454         calculate D2E/DX2 analytically  !
 ! A276  A(13,36,25)            97.7546         calculate D2E/DX2 analytically  !
 ! A277  A(13,36,38)           114.3799         calculate D2E/DX2 analytically  !
 ! A278  A(17,36,25)           106.4927         calculate D2E/DX2 analytically  !
 ! A279  A(17,36,37)           114.9427         calculate D2E/DX2 analytically  !
 ! A280  A(17,36,38)           113.4299         calculate D2E/DX2 analytically  !
 ! A281  A(24,36,37)           102.2474         calculate D2E/DX2 analytically  !
 ! A282  A(24,36,38)           164.0009         calculate D2E/DX2 analytically  !
 ! A283  A(25,36,37)            83.9972         calculate D2E/DX2 analytically  !
 ! A284  A(25,36,38)           137.9771         calculate D2E/DX2 analytically  !
 ! A285  A(37,36,38)            90.6489         calculate D2E/DX2 analytically  !
 ! A286  A(36,37,39)            81.0999         calculate D2E/DX2 analytically  !
 ! A287  A(36,38,39)            80.5914         calculate D2E/DX2 analytically  !
 ! A288  A(13,39,38)            93.8002         calculate D2E/DX2 analytically  !
 ! A289  A(13,39,40)           100.3657         calculate D2E/DX2 analytically  !
 ! A290  A(13,39,41)           150.8323         calculate D2E/DX2 analytically  !
 ! A291  A(16,39,37)           106.5539         calculate D2E/DX2 analytically  !
 ! A292  A(16,39,38)           112.8048         calculate D2E/DX2 analytically  !
 ! A293  A(16,39,40)           102.5793         calculate D2E/DX2 analytically  !
 ! A294  A(16,39,41)           101.6488         calculate D2E/DX2 analytically  !
 ! A295  A(18,39,37)            86.9365         calculate D2E/DX2 analytically  !
 ! A296  A(18,39,38)           155.1576         calculate D2E/DX2 analytically  !
 ! A297  A(18,39,41)           120.0965         calculate D2E/DX2 analytically  !
 ! A298  A(37,39,38)            77.2552         calculate D2E/DX2 analytically  !
 ! A299  A(37,39,40)            84.8697         calculate D2E/DX2 analytically  !
 ! A300  A(37,39,41)           149.3459         calculate D2E/DX2 analytically  !
 ! A301  A(38,39,40)           143.572          calculate D2E/DX2 analytically  !
 ! A302  A(38,39,41)            80.9844         calculate D2E/DX2 analytically  !
 ! A303  A(40,39,41)           100.6274         calculate D2E/DX2 analytically  !
 ! A304  A(6,42,18)             67.9676         calculate D2E/DX2 analytically  !
 ! A305  A(6,42,19)            111.7445         calculate D2E/DX2 analytically  !
 ! A306  A(6,42,43)            136.8205         calculate D2E/DX2 analytically  !
 ! A307  A(18,42,43)           143.2175         calculate D2E/DX2 analytically  !
 ! A308  A(18,42,44)           103.0336         calculate D2E/DX2 analytically  !
 ! A309  A(19,42,20)           103.8699         calculate D2E/DX2 analytically  !
 ! A310  A(19,42,43)           111.4306         calculate D2E/DX2 analytically  !
 ! A311  A(19,42,44)           104.1716         calculate D2E/DX2 analytically  !
 ! A312  A(20,42,43)           112.3233         calculate D2E/DX2 analytically  !
 ! A313  A(20,42,44)           110.6482         calculate D2E/DX2 analytically  !
 ! A314  A(43,42,44)           113.6629         calculate D2E/DX2 analytically  !
 ! A315  A(42,44,45)            96.4014         calculate D2E/DX2 analytically  !
 ! A316  A(1,45,44)            105.6076         calculate D2E/DX2 analytically  !
 ! A317  A(1,45,47)            135.2733         calculate D2E/DX2 analytically  !
 ! A318  A(3,45,44)            113.5014         calculate D2E/DX2 analytically  !
 ! A319  A(3,45,46)            114.3764         calculate D2E/DX2 analytically  !
 ! A320  A(3,45,47)            103.406          calculate D2E/DX2 analytically  !
 ! A321  A(6,45,46)            106.9778         calculate D2E/DX2 analytically  !
 ! A322  A(6,45,47)            139.7987         calculate D2E/DX2 analytically  !
 ! A323  A(44,45,46)            93.8251         calculate D2E/DX2 analytically  !
 ! A324  A(44,45,47)           119.0943         calculate D2E/DX2 analytically  !
 ! A325  A(46,45,47)           113.1459         calculate D2E/DX2 analytically  !
 ! A326  A(45,46,48)           101.5623         calculate D2E/DX2 analytically  !
 ! A327  A(1,48,21)             68.0153         calculate D2E/DX2 analytically  !
 ! A328  A(1,48,49)            112.0219         calculate D2E/DX2 analytically  !
 ! A329  A(1,48,50)            138.326          calculate D2E/DX2 analytically  !
 ! A330  A(21,48,46)           104.429          calculate D2E/DX2 analytically  !
 ! A331  A(21,48,50)           140.385          calculate D2E/DX2 analytically  !
 ! A332  A(23,48,46)           108.8102         calculate D2E/DX2 analytically  !
 ! A333  A(23,48,49)           104.284          calculate D2E/DX2 analytically  !
 ! A334  A(23,48,50)           111.243          calculate D2E/DX2 analytically  !
 ! A335  A(46,48,49)           107.1491         calculate D2E/DX2 analytically  !
 ! A336  A(46,48,50)           115.1712         calculate D2E/DX2 analytically  !
 ! A337  A(49,48,50)           109.5476         calculate D2E/DX2 analytically  !
 ! A338  A(12,51,22)           108.1869         calculate D2E/DX2 analytically  !
 ! A339  A(12,51,53)           109.332          calculate D2E/DX2 analytically  !
 ! A340  A(14,51,22)           100.3283         calculate D2E/DX2 analytically  !
 ! A341  A(14,51,52)           114.8901         calculate D2E/DX2 analytically  !
 ! A342  A(14,51,53)            99.413          calculate D2E/DX2 analytically  !
 ! A343  A(14,51,54)            94.699          calculate D2E/DX2 analytically  !
 ! A344  A(21,51,52)            93.1167         calculate D2E/DX2 analytically  !
 ! A345  A(21,51,53)           153.1562         calculate D2E/DX2 analytically  !
 ! A346  A(21,51,54)           123.0429         calculate D2E/DX2 analytically  !
 ! A347  A(22,51,52)            98.4458         calculate D2E/DX2 analytically  !
 ! A348  A(22,51,53)           142.4806         calculate D2E/DX2 analytically  !
 ! A349  A(22,51,54)           153.3851         calculate D2E/DX2 analytically  !
 ! A350  A(52,51,53)           101.6752         calculate D2E/DX2 analytically  !
 ! A351  A(12,54,53)           100.3577         calculate D2E/DX2 analytically  !
 ! A352  A(12,54,55)            98.5625         calculate D2E/DX2 analytically  !
 ! A353  A(12,54,56)           142.4908         calculate D2E/DX2 analytically  !
 ! A354  A(15,54,51)            94.8015         calculate D2E/DX2 analytically  !
 ! A355  A(15,54,52)           107.3408         calculate D2E/DX2 analytically  !
 ! A356  A(15,54,53)           106.0967         calculate D2E/DX2 analytically  !
 ! A357  A(15,54,55)           101.9831         calculate D2E/DX2 analytically  !
 ! A358  A(15,54,56)            87.363          calculate D2E/DX2 analytically  !
 ! A359  A(51,54,55)           130.8074         calculate D2E/DX2 analytically  !
 ! A360  A(51,54,56)           134.7622         calculate D2E/DX2 analytically  !
 ! A361  A(52,54,53)            94.8344         calculate D2E/DX2 analytically  !
 ! A362  A(52,54,55)            80.1649         calculate D2E/DX2 analytically  !
 ! A363  A(52,54,56)           164.5284         calculate D2E/DX2 analytically  !
 ! A364  A(53,54,55)           151.6714         calculate D2E/DX2 analytically  !
 ! A365  A(53,54,56)            85.375          calculate D2E/DX2 analytically  !
 ! A366  A(55,54,56)            92.3037         calculate D2E/DX2 analytically  !
 ! A367  A(27,55,54)            83.2287         calculate D2E/DX2 analytically  !
 ! A368  A(54,55,57)            83.9218         calculate D2E/DX2 analytically  !
 ! A369  A(54,56,57)            81.1115         calculate D2E/DX2 analytically  !
 ! A370  A(27,57,31)           100.5672         calculate D2E/DX2 analytically  !
 ! A371  A(27,57,56)           101.6207         calculate D2E/DX2 analytically  !
 ! A372  A(27,57,58)           159.3954         calculate D2E/DX2 analytically  !
 ! A373  A(29,57,31)            95.3487         calculate D2E/DX2 analytically  !
 ! A374  A(29,57,55)           110.0232         calculate D2E/DX2 analytically  !
 ! A375  A(29,57,56)            85.6845         calculate D2E/DX2 analytically  !
 ! A376  A(29,57,58)           146.5757         calculate D2E/DX2 analytically  !
 ! A377  A(30,57,55)            94.5485         calculate D2E/DX2 analytically  !
 ! A378  A(30,57,56)           138.2679         calculate D2E/DX2 analytically  !
 ! A379  A(30,57,58)           130.0986         calculate D2E/DX2 analytically  !
 ! A380  A(31,57,55)           104.604          calculate D2E/DX2 analytically  !
 ! A381  A(31,57,56)           153.1717         calculate D2E/DX2 analytically  !
 ! A382  A(31,57,58)            80.3896         calculate D2E/DX2 analytically  !
 ! A383  A(55,57,56)           100.1384         calculate D2E/DX2 analytically  !
 ! A384  A(55,57,58)           103.0803         calculate D2E/DX2 analytically  !
 ! A385  A(56,57,58)            84.0975         calculate D2E/DX2 analytically  !
 ! A386  A(57,58,59)            90.3191         calculate D2E/DX2 analytically  !
 ! A387  A(58,59,60)           133.8427         calculate D2E/DX2 analytically  !
 ! A388  L(2,1,46,3,-1)        189.2108         calculate D2E/DX2 analytically  !
 ! A389  L(3,1,5,2,-1)         168.9839         calculate D2E/DX2 analytically  !
 ! A390  L(4,1,23,2,-1)        177.5744         calculate D2E/DX2 analytically  !
 ! A391  L(3,6,7,4,-1)         184.3617         calculate D2E/DX2 analytically  !
 ! A392  L(4,6,20,3,-1)        191.218          calculate D2E/DX2 analytically  !
 ! A393  L(8,6,44,1,-1)        191.1639         calculate D2E/DX2 analytically  !
 ! A394  L(9,6,42,7,-1)        169.4722         calculate D2E/DX2 analytically  !
 ! A395  L(2,12,52,5,-1)       173.5521         calculate D2E/DX2 analytically  !
 ! A396  L(5,12,15,2,-1)       169.5093         calculate D2E/DX2 analytically  !
 ! A397  L(11,12,14,2,-1)      168.3214         calculate D2E/DX2 analytically  !
 ! A398  L(7,13,17,8,-1)       167.8614         calculate D2E/DX2 analytically  !
 ! A399  L(39,18,42,7,-1)      190.3524         calculate D2E/DX2 analytically  !
 ! A400  L(48,21,51,5,-1)      182.0474         calculate D2E/DX2 analytically  !
 ! A401  L(10,24,32,17,-1)     183.7104         calculate D2E/DX2 analytically  !
 ! A402  L(17,24,28,10,-1)     185.3225         calculate D2E/DX2 analytically  !
 ! A403  L(25,24,26,10,-1)     169.026          calculate D2E/DX2 analytically  !
 ! A404  L(15,27,28,11,-1)     171.7171         calculate D2E/DX2 analytically  !
 ! A405  L(2,1,46,3,-2)        187.9582         calculate D2E/DX2 analytically  !
 ! A406  L(3,1,5,2,-2)         179.6096         calculate D2E/DX2 analytically  !
 ! A407  L(4,1,23,2,-2)        194.8702         calculate D2E/DX2 analytically  !
 ! A408  L(3,6,7,4,-2)         192.0674         calculate D2E/DX2 analytically  !
 ! A409  L(4,6,20,3,-2)        176.509          calculate D2E/DX2 analytically  !
 ! A410  L(8,6,44,1,-2)        187.654          calculate D2E/DX2 analytically  !
 ! A411  L(9,6,42,7,-2)        183.8835         calculate D2E/DX2 analytically  !
 ! A412  L(2,12,52,5,-2)       173.1444         calculate D2E/DX2 analytically  !
 ! A413  L(5,12,15,2,-2)       189.3682         calculate D2E/DX2 analytically  !
 ! A414  L(11,12,14,2,-2)      186.3465         calculate D2E/DX2 analytically  !
 ! A415  L(7,13,17,8,-2)       175.0391         calculate D2E/DX2 analytically  !
 ! A416  L(39,18,42,7,-2)      182.1529         calculate D2E/DX2 analytically  !
 ! A417  L(48,21,51,5,-2)      182.5911         calculate D2E/DX2 analytically  !
 ! A418  L(10,24,32,17,-2)     169.7335         calculate D2E/DX2 analytically  !
 ! A419  L(17,24,28,10,-2)     180.6114         calculate D2E/DX2 analytically  !
 ! A420  L(25,24,26,10,-2)     176.1262         calculate D2E/DX2 analytically  !
 ! A421  L(15,27,28,11,-2)     181.9117         calculate D2E/DX2 analytically  !
 ! D1    D(3,1,2,12)           178.6271         calculate D2E/DX2 analytically  !
 ! D2    D(4,1,2,12)           -78.3023         calculate D2E/DX2 analytically  !
 ! D3    D(5,1,2,12)            -0.9824         calculate D2E/DX2 analytically  !
 ! D4    D(6,1,2,12)          -131.0325         calculate D2E/DX2 analytically  !
 ! D5    D(23,1,2,12)           86.8274         calculate D2E/DX2 analytically  !
 ! D6    D(45,1,2,12)         -177.6068         calculate D2E/DX2 analytically  !
 ! D7    D(48,1,2,12)           73.8241         calculate D2E/DX2 analytically  !
 ! D8    D(2,1,5,12)             1.0492         calculate D2E/DX2 analytically  !
 ! D9    D(2,1,5,21)            75.5865         calculate D2E/DX2 analytically  !
 ! D10   D(4,1,5,12)           102.185          calculate D2E/DX2 analytically  !
 ! D11   D(4,1,5,21)           176.7224         calculate D2E/DX2 analytically  !
 ! D12   D(6,1,5,12)            94.48           calculate D2E/DX2 analytically  !
 ! D13   D(6,1,5,21)           169.0173         calculate D2E/DX2 analytically  !
 ! D14   D(9,1,5,12)            50.1594         calculate D2E/DX2 analytically  !
 ! D15   D(9,1,5,21)           124.6967         calculate D2E/DX2 analytically  !
 ! D16   D(23,1,5,12)          -76.501          calculate D2E/DX2 analytically  !
 ! D17   D(23,1,5,21)           -1.9636         calculate D2E/DX2 analytically  !
 ! D18   D(45,1,5,12)          177.5927         calculate D2E/DX2 analytically  !
 ! D19   D(45,1,5,21)         -107.8699         calculate D2E/DX2 analytically  !
 ! D20   D(46,1,5,12)         -171.3571         calculate D2E/DX2 analytically  !
 ! D21   D(46,1,5,21)          -96.8198         calculate D2E/DX2 analytically  !
 ! D22   D(48,1,5,12)         -122.812          calculate D2E/DX2 analytically  !
 ! D23   D(48,1,5,21)          -48.2747         calculate D2E/DX2 analytically  !
 ! D24   D(2,1,6,7)             87.8948         calculate D2E/DX2 analytically  !
 ! D25   D(2,1,6,8)              4.6904         calculate D2E/DX2 analytically  !
 ! D26   D(2,1,6,20)           -76.6198         calculate D2E/DX2 analytically  !
 ! D27   D(2,1,6,42)          -146.7427         calculate D2E/DX2 analytically  !
 ! D28   D(2,1,6,44)           177.0364         calculate D2E/DX2 analytically  !
 ! D29   D(5,1,6,7)             -1.695          calculate D2E/DX2 analytically  !
 ! D30   D(5,1,6,8)            -84.8995         calculate D2E/DX2 analytically  !
 ! D31   D(5,1,6,20)          -166.2097         calculate D2E/DX2 analytically  !
 ! D32   D(5,1,6,42)           123.6674         calculate D2E/DX2 analytically  !
 ! D33   D(5,1,6,44)            87.4465         calculate D2E/DX2 analytically  !
 ! D34   D(23,1,6,7)           163.6306         calculate D2E/DX2 analytically  !
 ! D35   D(23,1,6,8)            80.4261         calculate D2E/DX2 analytically  !
 ! D36   D(23,1,6,20)           -0.8841         calculate D2E/DX2 analytically  !
 ! D37   D(23,1,6,42)          -71.007          calculate D2E/DX2 analytically  !
 ! D38   D(23,1,6,44)         -107.2279         calculate D2E/DX2 analytically  !
 ! D39   D(46,1,6,7)           -89.8201         calculate D2E/DX2 analytically  !
 ! D40   D(46,1,6,8)          -173.0246         calculate D2E/DX2 analytically  !
 ! D41   D(46,1,6,20)          105.6652         calculate D2E/DX2 analytically  !
 ! D42   D(46,1,6,42)           35.5423         calculate D2E/DX2 analytically  !
 ! D43   D(46,1,6,44)           -0.6786         calculate D2E/DX2 analytically  !
 ! D44   D(48,1,6,7)          -122.8334         calculate D2E/DX2 analytically  !
 ! D45   D(48,1,6,8)           153.9621         calculate D2E/DX2 analytically  !
 ! D46   D(48,1,6,20)           72.652          calculate D2E/DX2 analytically  !
 ! D47   D(48,1,6,42)            2.529          calculate D2E/DX2 analytically  !
 ! D48   D(48,1,6,44)          -33.6918         calculate D2E/DX2 analytically  !
 ! D49   D(3,1,9,8)            -10.0975         calculate D2E/DX2 analytically  !
 ! D50   D(3,1,9,10)          -104.2477         calculate D2E/DX2 analytically  !
 ! D51   D(3,1,9,11)           171.0706         calculate D2E/DX2 analytically  !
 ! D52   D(3,1,9,26)            78.888          calculate D2E/DX2 analytically  !
 ! D53   D(5,1,9,8)            178.4664         calculate D2E/DX2 analytically  !
 ! D54   D(5,1,9,10)            84.3162         calculate D2E/DX2 analytically  !
 ! D55   D(5,1,9,11)            -0.3655         calculate D2E/DX2 analytically  !
 ! D56   D(5,1,9,26)           -92.5481         calculate D2E/DX2 analytically  !
 ! D57   D(23,1,9,8)           -99.2797         calculate D2E/DX2 analytically  !
 ! D58   D(23,1,9,10)          166.5701         calculate D2E/DX2 analytically  !
 ! D59   D(23,1,9,11)           81.8885         calculate D2E/DX2 analytically  !
 ! D60   D(23,1,9,26)          -10.2942         calculate D2E/DX2 analytically  !
 ! D61   D(45,1,9,8)            36.4134         calculate D2E/DX2 analytically  !
 ! D62   D(45,1,9,10)          -57.7368         calculate D2E/DX2 analytically  !
 ! D63   D(45,1,9,11)         -142.4185         calculate D2E/DX2 analytically  !
 ! D64   D(45,1,9,26)          125.3989         calculate D2E/DX2 analytically  !
 ! D65   D(46,1,9,8)           103.4614         calculate D2E/DX2 analytically  !
 ! D66   D(46,1,9,10)            9.3112         calculate D2E/DX2 analytically  !
 ! D67   D(46,1,9,11)          -75.3705         calculate D2E/DX2 analytically  !
 ! D68   D(46,1,9,26)         -167.5531         calculate D2E/DX2 analytically  !
 ! D69   D(48,1,9,8)          -158.6397         calculate D2E/DX2 analytically  !
 ! D70   D(48,1,9,10)          107.2101         calculate D2E/DX2 analytically  !
 ! D71   D(48,1,9,11)           22.5285         calculate D2E/DX2 analytically  !
 ! D72   D(48,1,9,26)          -69.6542         calculate D2E/DX2 analytically  !
 ! D73   D(2,1,23,21)          -85.3257         calculate D2E/DX2 analytically  !
 ! D74   D(3,1,23,21)         -167.527          calculate D2E/DX2 analytically  !
 ! D75   D(5,1,23,21)            1.804          calculate D2E/DX2 analytically  !
 ! D76   D(6,1,23,21)         -167.0202         calculate D2E/DX2 analytically  !
 ! D77   D(9,1,23,21)          -79.0424         calculate D2E/DX2 analytically  !
 ! D78   D(45,1,23,21)         139.8169         calculate D2E/DX2 analytically  !
 ! D79   D(46,1,23,21)          85.6106         calculate D2E/DX2 analytically  !
 ! D80   D(2,1,45,44)          103.5016         calculate D2E/DX2 analytically  !
 ! D81   D(2,1,45,47)          -78.4096         calculate D2E/DX2 analytically  !
 ! D82   D(4,1,45,44)           -0.2117         calculate D2E/DX2 analytically  !
 ! D83   D(4,1,45,47)          177.8771         calculate D2E/DX2 analytically  !
 ! D84   D(5,1,45,44)          -71.5262         calculate D2E/DX2 analytically  !
 ! D85   D(5,1,45,47)          106.5626         calculate D2E/DX2 analytically  !
 ! D86   D(9,1,45,44)           44.0074         calculate D2E/DX2 analytically  !
 ! D87   D(9,1,45,47)         -137.9038         calculate D2E/DX2 analytically  !
 ! D88   D(23,1,45,44)        -171.3942         calculate D2E/DX2 analytically  !
 ! D89   D(23,1,45,47)           6.6945         calculate D2E/DX2 analytically  !
 ! D90   D(48,1,45,44)        -131.2984         calculate D2E/DX2 analytically  !
 ! D91   D(48,1,45,47)          46.7904         calculate D2E/DX2 analytically  !
 ! D92   D(2,1,48,21)          -41.8943         calculate D2E/DX2 analytically  !
 ! D93   D(2,1,48,49)          -74.8724         calculate D2E/DX2 analytically  !
 ! D94   D(2,1,48,50)          100.8487         calculate D2E/DX2 analytically  !
 ! D95   D(3,1,48,21)         -133.3202         calculate D2E/DX2 analytically  !
 ! D96   D(3,1,48,49)         -166.2983         calculate D2E/DX2 analytically  !
 ! D97   D(3,1,48,50)            9.4228         calculate D2E/DX2 analytically  !
 ! D98   D(4,1,48,21)          101.2749         calculate D2E/DX2 analytically  !
 ! D99   D(4,1,48,49)           68.2968         calculate D2E/DX2 analytically  !
 ! D100  D(4,1,48,50)         -115.9821         calculate D2E/DX2 analytically  !
 ! D101  D(5,1,48,21)           36.9242         calculate D2E/DX2 analytically  !
 ! D102  D(5,1,48,49)            3.9461         calculate D2E/DX2 analytically  !
 ! D103  D(5,1,48,50)          179.6672         calculate D2E/DX2 analytically  !
 ! D104  D(6,1,48,21)          175.1611         calculate D2E/DX2 analytically  !
 ! D105  D(6,1,48,49)          142.183          calculate D2E/DX2 analytically  !
 ! D106  D(6,1,48,50)          -42.096          calculate D2E/DX2 analytically  !
 ! D107  D(9,1,48,21)           13.7062         calculate D2E/DX2 analytically  !
 ! D108  D(9,1,48,49)          -19.2719         calculate D2E/DX2 analytically  !
 ! D109  D(9,1,48,50)          156.4492         calculate D2E/DX2 analytically  !
 ! D110  D(45,1,48,21)        -179.7102         calculate D2E/DX2 analytically  !
 ! D111  D(45,1,48,49)         147.3117         calculate D2E/DX2 analytically  !
 ! D112  D(45,1,48,50)         -36.9673         calculate D2E/DX2 analytically  !
 ! D113  D(12,2,9,4)            84.8326         calculate D2E/DX2 analytically  !
 ! D114  D(12,2,9,6)           137.7963         calculate D2E/DX2 analytically  !
 ! D115  D(12,2,9,8)          -167.6168         calculate D2E/DX2 analytically  !
 ! D116  D(12,2,9,10)          -73.3928         calculate D2E/DX2 analytically  !
 ! D117  D(12,2,9,11)           -8.5507         calculate D2E/DX2 analytically  !
 ! D118  D(12,2,9,26)          -87.9252         calculate D2E/DX2 analytically  !
 ! D119  D(1,2,12,5)             1.057          calculate D2E/DX2 analytically  !
 ! D120  D(1,2,12,11)           83.626          calculate D2E/DX2 analytically  !
 ! D121  D(1,2,12,14)         -102.7205         calculate D2E/DX2 analytically  !
 ! D122  D(1,2,12,15)          171.6888         calculate D2E/DX2 analytically  !
 ! D123  D(1,2,12,21)          -48.5856         calculate D2E/DX2 analytically  !
 ! D124  D(1,2,12,51)          -97.9914         calculate D2E/DX2 analytically  !
 ! D125  D(1,2,12,54)          172.6275         calculate D2E/DX2 analytically  !
 ! D126  D(9,2,12,5)           -74.4274         calculate D2E/DX2 analytically  !
 ! D127  D(9,2,12,11)            8.1416         calculate D2E/DX2 analytically  !
 ! D128  D(9,2,12,14)         -178.2049         calculate D2E/DX2 analytically  !
 ! D129  D(9,2,12,15)           96.2044         calculate D2E/DX2 analytically  !
 ! D130  D(9,2,12,21)         -124.0699         calculate D2E/DX2 analytically  !
 ! D131  D(9,2,12,51)         -173.4757         calculate D2E/DX2 analytically  !
 ! D132  D(9,2,12,54)           97.1431         calculate D2E/DX2 analytically  !
 ! D133  D(1,3,6,45)            73.2841         calculate D2E/DX2 analytically  !
 ! D134  D(1,4,6,9)             77.7707         calculate D2E/DX2 analytically  !
 ! D135  D(1,5,12,2)            -0.9973         calculate D2E/DX2 analytically  !
 ! D136  D(1,5,12,11)          -88.9506         calculate D2E/DX2 analytically  !
 ! D137  D(1,5,12,14)           78.86           calculate D2E/DX2 analytically  !
 ! D138  D(1,5,12,51)          133.1215         calculate D2E/DX2 analytically  !
 ! D139  D(1,5,12,52)         -174.1417         calculate D2E/DX2 analytically  !
 ! D140  D(1,5,12,54)         -171.0435         calculate D2E/DX2 analytically  !
 ! D141  D(1,5,21,14)          -84.6729         calculate D2E/DX2 analytically  !
 ! D142  D(1,5,21,22)          177.0792         calculate D2E/DX2 analytically  !
 ! D143  D(1,5,21,23)            2.0923         calculate D2E/DX2 analytically  !
 ! D144  D(1,5,21,48)           48.6778         calculate D2E/DX2 analytically  !
 ! D145  D(1,5,21,49)           94.1378         calculate D2E/DX2 analytically  !
 ! D146  D(1,5,21,51)         -133.9133         calculate D2E/DX2 analytically  !
 ! D147  D(1,6,7,13)           -94.1413         calculate D2E/DX2 analytically  !
 ! D148  D(1,6,7,18)          -170.9245         calculate D2E/DX2 analytically  !
 ! D149  D(4,6,7,13)          -103.0571         calculate D2E/DX2 analytically  !
 ! D150  D(4,6,7,18)          -179.8403         calculate D2E/DX2 analytically  !
 ! D151  D(8,6,7,13)            -4.1463         calculate D2E/DX2 analytically  !
 ! D152  D(8,6,7,18)           -80.9295         calculate D2E/DX2 analytically  !
 ! D153  D(9,6,7,13)           -52.7545         calculate D2E/DX2 analytically  !
 ! D154  D(9,6,7,18)          -129.5377         calculate D2E/DX2 analytically  !
 ! D155  D(20,6,7,13)           75.8581         calculate D2E/DX2 analytically  !
 ! D156  D(20,6,7,18)           -0.9251         calculate D2E/DX2 analytically  !
 ! D157  D(42,6,7,13)          123.362          calculate D2E/DX2 analytically  !
 ! D158  D(42,6,7,18)           46.5788         calculate D2E/DX2 analytically  !
 ! D159  D(44,6,7,13)          172.6415         calculate D2E/DX2 analytically  !
 ! D160  D(44,6,7,18)           95.8583         calculate D2E/DX2 analytically  !
 ! D161  D(45,6,7,13)         -178.9393         calculate D2E/DX2 analytically  !
 ! D162  D(45,6,7,18)          104.2775         calculate D2E/DX2 analytically  !
 ! D163  D(1,6,8,13)           135.7463         calculate D2E/DX2 analytically  !
 ! D164  D(3,6,8,13)          -173.1798         calculate D2E/DX2 analytically  !
 ! D165  D(4,6,8,13)            83.5222         calculate D2E/DX2 analytically  !
 ! D166  D(7,6,8,13)             4.1187         calculate D2E/DX2 analytically  !
 ! D167  D(20,6,8,13)          -85.0062         calculate D2E/DX2 analytically  !
 ! D168  D(42,6,8,13)          -69.886          calculate D2E/DX2 analytically  !
 ! D169  D(45,6,8,13)          178.8619         calculate D2E/DX2 analytically  !
 ! D170  D(3,6,9,2)              4.6473         calculate D2E/DX2 analytically  !
 ! D171  D(3,6,9,10)          -167.5067         calculate D2E/DX2 analytically  !
 ! D172  D(3,6,9,11)           120.2137         calculate D2E/DX2 analytically  !
 ! D173  D(3,6,9,26)           -89.5288         calculate D2E/DX2 analytically  !
 ! D174  D(7,6,9,2)            173.6213         calculate D2E/DX2 analytically  !
 ! D175  D(7,6,9,10)             1.4673         calculate D2E/DX2 analytically  !
 ! D176  D(7,6,9,11)           -70.8123         calculate D2E/DX2 analytically  !
 ! D177  D(7,6,9,26)            79.4452         calculate D2E/DX2 analytically  !
 ! D178  D(20,6,9,2)            89.1253         calculate D2E/DX2 analytically  !
 ! D179  D(20,6,9,10)          -83.0286         calculate D2E/DX2 analytically  !
 ! D180  D(20,6,9,11)         -155.3082         calculate D2E/DX2 analytically  !
 ! D181  D(20,6,9,26)           -5.0507         calculate D2E/DX2 analytically  !
 ! D182  D(44,6,9,2)          -104.917          calculate D2E/DX2 analytically  !
 ! D183  D(44,6,9,10)           82.929          calculate D2E/DX2 analytically  !
 ! D184  D(44,6,9,11)           10.6494         calculate D2E/DX2 analytically  !
 ! D185  D(44,6,9,26)          160.9069         calculate D2E/DX2 analytically  !
 ! D186  D(45,6,9,2)           -42.0013         calculate D2E/DX2 analytically  !
 ! D187  D(45,6,9,10)          145.8448         calculate D2E/DX2 analytically  !
 ! D188  D(45,6,9,11)           73.5652         calculate D2E/DX2 analytically  !
 ! D189  D(45,6,9,26)         -136.1773         calculate D2E/DX2 analytically  !
 ! D190  D(1,6,20,18)          169.3641         calculate D2E/DX2 analytically  !
 ! D191  D(3,6,20,18)          169.1764         calculate D2E/DX2 analytically  !
 ! D192  D(7,6,20,18)            0.8212         calculate D2E/DX2 analytically  !
 ! D193  D(8,6,20,18)           82.0116         calculate D2E/DX2 analytically  !
 ! D194  D(9,6,20,18)           85.0752         calculate D2E/DX2 analytically  !
 ! D195  D(44,6,20,18)         -84.8221         calculate D2E/DX2 analytically  !
 ! D196  D(45,6,20,18)        -139.0841         calculate D2E/DX2 analytically  !
 ! D197  D(1,6,42,18)         -176.4781         calculate D2E/DX2 analytically  !
 ! D198  D(1,6,42,19)         -143.5843         calculate D2E/DX2 analytically  !
 ! D199  D(1,6,42,43)           37.2799         calculate D2E/DX2 analytically  !
 ! D200  D(3,6,42,18)          134.1345         calculate D2E/DX2 analytically  !
 ! D201  D(3,6,42,19)          167.0282         calculate D2E/DX2 analytically  !
 ! D202  D(3,6,42,43)          -12.1076         calculate D2E/DX2 analytically  !
 ! D203  D(4,6,42,18)         -105.017          calculate D2E/DX2 analytically  !
 ! D204  D(4,6,42,19)          -72.1232         calculate D2E/DX2 analytically  !
 ! D205  D(4,6,42,43)          108.741          calculate D2E/DX2 analytically  !
 ! D206  D(7,6,42,18)          -34.1739         calculate D2E/DX2 analytically  !
 ! D207  D(7,6,42,19)           -1.2802         calculate D2E/DX2 analytically  !
 ! D208  D(7,6,42,43)          179.584          calculate D2E/DX2 analytically  !
 ! D209  D(8,6,42,18)           39.0618         calculate D2E/DX2 analytically  !
 ! D210  D(8,6,42,19)           71.9556         calculate D2E/DX2 analytically  !
 ! D211  D(8,6,42,43)         -107.1802         calculate D2E/DX2 analytically  !
 ! D212  D(45,6,42,18)        -179.4319         calculate D2E/DX2 analytically  !
 ! D213  D(45,6,42,19)        -146.5382         calculate D2E/DX2 analytically  !
 ! D214  D(45,6,42,43)          34.326          calculate D2E/DX2 analytically  !
 ! D215  D(4,6,45,46)            0.3527         calculate D2E/DX2 analytically  !
 ! D216  D(4,6,45,47)          176.7138         calculate D2E/DX2 analytically  !
 ! D217  D(7,6,45,46)           73.6646         calculate D2E/DX2 analytically  !
 ! D218  D(7,6,45,47)         -109.9743         calculate D2E/DX2 analytically  !
 ! D219  D(8,6,45,46)          -98.3772         calculate D2E/DX2 analytically  !
 ! D220  D(8,6,45,47)           77.9839         calculate D2E/DX2 analytically  !
 ! D221  D(9,6,45,46)          -43.4375         calculate D2E/DX2 analytically  !
 ! D222  D(9,6,45,47)          132.9236         calculate D2E/DX2 analytically  !
 ! D223  D(20,6,45,46)         173.6776         calculate D2E/DX2 analytically  !
 ! D224  D(20,6,45,47)          -9.9613         calculate D2E/DX2 analytically  !
 ! D225  D(42,6,45,46)         133.5            calculate D2E/DX2 analytically  !
 ! D226  D(42,6,45,47)         -50.1389         calculate D2E/DX2 analytically  !
 ! D227  D(6,7,13,8)             4.0071         calculate D2E/DX2 analytically  !
 ! D228  D(6,7,13,10)           87.4288         calculate D2E/DX2 analytically  !
 ! D229  D(6,7,13,16)          -75.0476         calculate D2E/DX2 analytically  !
 ! D230  D(6,7,13,36)          171.2334         calculate D2E/DX2 analytically  !
 ! D231  D(6,7,13,37)         -179.1006         calculate D2E/DX2 analytically  !
 ! D232  D(6,7,13,39)         -125.4659         calculate D2E/DX2 analytically  !
 ! D233  D(6,7,18,16)           84.9921         calculate D2E/DX2 analytically  !
 ! D234  D(6,7,18,19)          -88.4322         calculate D2E/DX2 analytically  !
 ! D235  D(6,7,18,20)            0.9533         calculate D2E/DX2 analytically  !
 ! D236  D(6,7,18,39)          137.5797         calculate D2E/DX2 analytically  !
 ! D237  D(6,7,18,40)         -169.7657         calculate D2E/DX2 analytically  !
 ! D238  D(6,7,18,42)          -44.5732         calculate D2E/DX2 analytically  !
 ! D239  D(13,8,9,1)          -137.3182         calculate D2E/DX2 analytically  !
 ! D240  D(13,8,9,2)           166.6153         calculate D2E/DX2 analytically  !
 ! D241  D(13,8,9,4)           -82.8703         calculate D2E/DX2 analytically  !
 ! D242  D(13,8,9,10)            1.8972         calculate D2E/DX2 analytically  !
 ! D243  D(13,8,9,11)           40.11           calculate D2E/DX2 analytically  !
 ! D244  D(13,8,9,26)           80.9488         calculate D2E/DX2 analytically  !
 ! D245  D(6,8,13,7)            -4.2794         calculate D2E/DX2 analytically  !
 ! D246  D(6,8,13,10)          -80.7759         calculate D2E/DX2 analytically  !
 ! D247  D(6,8,13,16)           94.4814         calculate D2E/DX2 analytically  !
 ! D248  D(6,8,13,17)         -179.3185         calculate D2E/DX2 analytically  !
 ! D249  D(6,8,13,18)           42.6031         calculate D2E/DX2 analytically  !
 ! D250  D(6,8,13,36)         -170.4641         calculate D2E/DX2 analytically  !
 ! D251  D(6,8,13,37)          -15.2554         calculate D2E/DX2 analytically  !
 ! D252  D(6,8,13,39)           84.0537         calculate D2E/DX2 analytically  !
 ! D253  D(9,8,13,7)            74.4857         calculate D2E/DX2 analytically  !
 ! D254  D(9,8,13,10)           -2.0109         calculate D2E/DX2 analytically  !
 ! D255  D(9,8,13,16)          173.2464         calculate D2E/DX2 analytically  !
 ! D256  D(9,8,13,17)         -100.5534         calculate D2E/DX2 analytically  !
 ! D257  D(9,8,13,18)          121.3682         calculate D2E/DX2 analytically  !
 ! D258  D(9,8,13,36)          -91.6991         calculate D2E/DX2 analytically  !
 ! D259  D(9,8,13,37)           63.5097         calculate D2E/DX2 analytically  !
 ! D260  D(9,8,13,39)          162.8188         calculate D2E/DX2 analytically  !
 ! D261  D(1,9,10,13)           98.7958         calculate D2E/DX2 analytically  !
 ! D262  D(1,9,10,24)          178.7202         calculate D2E/DX2 analytically  !
 ! D263  D(2,9,10,13)          -97.9912         calculate D2E/DX2 analytically  !
 ! D264  D(2,9,10,24)          -18.0669         calculate D2E/DX2 analytically  !
 ! D265  D(4,9,10,13)          102.7394         calculate D2E/DX2 analytically  !
 ! D266  D(4,9,10,24)         -177.3362         calculate D2E/DX2 analytically  !
 ! D267  D(6,9,10,13)           51.092          calculate D2E/DX2 analytically  !
 ! D268  D(6,9,10,24)          131.0164         calculate D2E/DX2 analytically  !
 ! D269  D(8,9,10,13)           -1.9395         calculate D2E/DX2 analytically  !
 ! D270  D(8,9,10,24)           77.9849         calculate D2E/DX2 analytically  !
 ! D271  D(11,9,10,13)        -165.6241         calculate D2E/DX2 analytically  !
 ! D272  D(11,9,10,24)         -85.6998         calculate D2E/DX2 analytically  !
 ! D273  D(26,9,10,13)         -83.1588         calculate D2E/DX2 analytically  !
 ! D274  D(26,9,10,24)          -3.2344         calculate D2E/DX2 analytically  !
 ! D275  D(1,9,11,12)          -47.3865         calculate D2E/DX2 analytically  !
 ! D276  D(1,9,11,27)         -140.8811         calculate D2E/DX2 analytically  !
 ! D277  D(2,9,11,12)            8.831          calculate D2E/DX2 analytically  !
 ! D278  D(2,9,11,27)          -84.6637         calculate D2E/DX2 analytically  !
 ! D279  D(4,9,11,12)          -99.2132         calculate D2E/DX2 analytically  !
 ! D280  D(4,9,11,27)          167.2922         calculate D2E/DX2 analytically  !
 ! D281  D(6,9,11,12)         -106.8401         calculate D2E/DX2 analytically  !
 ! D282  D(6,9,11,27)          159.6653         calculate D2E/DX2 analytically  !
 ! D283  D(8,9,11,12)          135.2145         calculate D2E/DX2 analytically  !
 ! D284  D(8,9,11,27)           41.7199         calculate D2E/DX2 analytically  !
 ! D285  D(10,9,11,12)         174.6202         calculate D2E/DX2 analytically  !
 ! D286  D(10,9,11,27)          81.1256         calculate D2E/DX2 analytically  !
 ! D287  D(26,9,11,12)          94.3358         calculate D2E/DX2 analytically  !
 ! D288  D(26,9,11,27)           0.8412         calculate D2E/DX2 analytically  !
 ! D289  D(1,9,26,24)         -179.0095         calculate D2E/DX2 analytically  !
 ! D290  D(1,9,26,27)           99.7487         calculate D2E/DX2 analytically  !
 ! D291  D(2,9,26,24)          179.2137         calculate D2E/DX2 analytically  !
 ! D292  D(2,9,26,27)           97.9719         calculate D2E/DX2 analytically  !
 ! D293  D(4,9,26,24)           24.3624         calculate D2E/DX2 analytically  !
 ! D294  D(4,9,26,27)          -56.8794         calculate D2E/DX2 analytically  !
 ! D295  D(6,9,26,24)          -81.7826         calculate D2E/DX2 analytically  !
 ! D296  D(6,9,26,27)         -163.0244         calculate D2E/DX2 analytically  !
 ! D297  D(8,9,26,24)          -82.6331         calculate D2E/DX2 analytically  !
 ! D298  D(8,9,26,27)         -163.8749         calculate D2E/DX2 analytically  !
 ! D299  D(10,9,26,24)           3.0758         calculate D2E/DX2 analytically  !
 ! D300  D(10,9,26,27)         -78.1659         calculate D2E/DX2 analytically  !
 ! D301  D(11,9,26,24)          80.3752         calculate D2E/DX2 analytically  !
 ! D302  D(11,9,26,27)          -0.8666         calculate D2E/DX2 analytically  !
 ! D303  D(9,10,13,7)          -81.3909         calculate D2E/DX2 analytically  !
 ! D304  D(9,10,13,8)            1.7509         calculate D2E/DX2 analytically  !
 ! D305  D(9,10,13,16)         -12.9462         calculate D2E/DX2 analytically  !
 ! D306  D(9,10,13,17)          87.0515         calculate D2E/DX2 analytically  !
 ! D307  D(9,10,13,18)         -76.7316         calculate D2E/DX2 analytically  !
 ! D308  D(9,10,13,36)         141.9859         calculate D2E/DX2 analytically  !
 ! D309  D(9,10,13,37)        -163.353          calculate D2E/DX2 analytically  !
 ! D310  D(9,10,13,39)        -157.1115         calculate D2E/DX2 analytically  !
 ! D311  D(24,10,13,7)         179.7294         calculate D2E/DX2 analytically  !
 ! D312  D(24,10,13,8)         -97.1288         calculate D2E/DX2 analytically  !
 ! D313  D(24,10,13,16)       -111.8259         calculate D2E/DX2 analytically  !
 ! D314  D(24,10,13,17)        -11.8282         calculate D2E/DX2 analytically  !
 ! D315  D(24,10,13,18)       -175.6113         calculate D2E/DX2 analytically  !
 ! D316  D(24,10,13,36)         43.1063         calculate D2E/DX2 analytically  !
 ! D317  D(24,10,13,37)         97.7673         calculate D2E/DX2 analytically  !
 ! D318  D(24,10,13,39)        104.0089         calculate D2E/DX2 analytically  !
 ! D319  D(9,10,24,17)         -80.939          calculate D2E/DX2 analytically  !
 ! D320  D(9,10,24,25)         179.4199         calculate D2E/DX2 analytically  !
 ! D321  D(9,10,24,26)           3.2937         calculate D2E/DX2 analytically  !
 ! D322  D(9,10,24,28)          98.4496         calculate D2E/DX2 analytically  !
 ! D323  D(9,10,24,33)         173.0563         calculate D2E/DX2 analytically  !
 ! D324  D(9,10,24,36)        -130.144          calculate D2E/DX2 analytically  !
 ! D325  D(13,10,24,17)         11.8293         calculate D2E/DX2 analytically  !
 ! D326  D(13,10,24,25)        -87.8117         calculate D2E/DX2 analytically  !
 ! D327  D(13,10,24,26)         96.0621         calculate D2E/DX2 analytically  !
 ! D328  D(13,10,24,28)       -168.7821         calculate D2E/DX2 analytically  !
 ! D329  D(13,10,24,33)        -94.1754         calculate D2E/DX2 analytically  !
 ! D330  D(13,10,24,36)        -37.3757         calculate D2E/DX2 analytically  !
 ! D331  D(9,11,12,2)           -7.6285         calculate D2E/DX2 analytically  !
[...]
 474,0.00006168,-0.00023156,-0.00030821,0.00005900,-0.00005426,0.000046
 27,-0.00001055,-0.00001895,0.00003484,0.00004817,0.00015590,-0.0000952
 5,0.00023758,0.00002404,-0.00001146,0.00002151,0.00000467,-0.00004387,
 -0.00002534,-0.00010853,0.00005596,-0.00009283,-0.00003208,0.00004972,
 0.00001554,0.00000556,-0.00001598,0.00005708,0.00036398,-0.00006216,-0
 .00012652,0.00002496,-0.00000722,-0.00003814,-0.00002922,-0.00004948,0
 .00020709,0.00070719,0.00108303,-0.00124934,0.00118676,-0.00185041,-0.
 00008066,0.00030461,-0.00032897,0.00076978,-0.00263026,0.00496051,0.00
 043298,-0.00148970,-0.00263345,0.00208470,-0.02362902,0.00348052,0.008
 55689,-0.09531716,0.00891451,0.06777964,0.12407850,0.00001907,-0.00002
 595,0.00003609,0.00004823,-0.00005984,-0.00002738,-0.00000828,0.000003
 87,0.00000153,-0.00001583,-0.00001931,-0.00000349,0.00000604,0.0000755
 3,0.00000095,0.00015253,0.00001545,-0.00005952,-0.00001302,0.00001161,
 -0.00001182,0.00001419,-0.00003769,0.00003241,-0.00022230,0.00021426,-
 0.00003826,-0.00006020,-0.00003223,-0.00001982,-0.00007897,-0.00022810
 ,0.00024732,-0.00024393,-0.00022759,0.00018177,0.00009299,-0.00003002,
 -0.00002657,0.00003498,-0.00003769,-0.00003491,0.00010533,0.00028368,-
 0.00005724,-0.00002350,-0.00000168,0.00000037,0.00006264,0.00001649,0.
 00004133,-0.00004466,-0.00001507,0.00001718,0.00000317,-0.00000881,0.0
 0001479,-0.00001240,-0.00000806,0.00001469,0.00000471,0.00002641,-0.00
 003325,0.00001520,0.00010458,-0.00007455,0.00000229,-0.00000621,0.0000
 0385,-0.00024886,0.00027229,-0.00021896,-0.00005479,-0.00006506,-0.000
 02708,-0.00020421,-0.00056265,-0.00012725,0.00452303,0.00086216,0.0013
 2294,-0.00009066,0.00047231,-0.00020362,-0.00280518,0.00342564,-0.0016
 6394,0.00079260,-0.00042464,0.00123646,0.00321533,-0.00114537,0.003520
 19,-0.00042677,0.00034253,-0.00032895,-0.00025268,0.00025106,-0.000090
 80,-0.00013598,0.00017925,0.00019226,-0.00001639,-0.00000834,-0.000003
 19,0.00005310,0.00002490,-0.00007056,0.00000441,0.00000147,0.00001435,
 0.00000832,-0.00004176,0.00001753,-0.00001699,0.00003909,-0.00001170,0
 .00001113,-0.00000109,0.00001500,0.00002076,-0.00003104,0.00000396,-0.
 00005284,0.00003025,0.00000587,0.00001951,-0.00000275,-0.00002931,-0.0
 0001466,0.00001765,0.00000207,0.00000215,-0.00002041,0.00004267,-0.000
 00313,0.00000258,-0.00000010,0.00001498,-0.00000044,-0.00003288,-0.000
 05107,-0.00002193,0.00004992,-0.00002190,0.00000760,0.00001619,0.00001
 611,0.00000743,-0.00004959,0.00012522,-0.00017726,0.00046506,0.0000487
 4,0.00051342,-0.00016488,-0.00023252,-0.00007784,0.00001532,-0.0001615
 8,0.00054487,-0.00112011,0.00064439,0.00383122,0.00137792,0.00873334,0
 .00431652,-0.00323089,0.01879569,-0.02691781,-0.01607330,-0.02452356,0
 .02187087,-0.00000384,-0.00009174,0.00004546,0.00003255,-0.00001658,-0
 .00000040,-0.00000887,0.00000484,-0.00000186,-0.00003583,-0.00002194,0
 .00003770,-0.00001433,-0.00028677,0.00001972,0.00024393,-0.00001403,-0
 .00010248,-0.00006129,0.00000216,0.00003455,-0.00002264,0.00000907,0.0
 0000253,-0.00038837,0.00022483,-0.00003062,-0.00012847,-0.00008209,0.0
 0000833,-0.00017819,-0.00013949,-0.00027301,0.00020779,0.00063029,0.00
 041913,0.00036706,0.00002595,0.00000562,-0.00002136,0.00003721,-0.0000
 3025,-0.00065632,-0.00007054,0.00033185,-0.00005442,-0.00002078,-0.000
 01451,-0.00012374,0.00006517,-0.00016468,-0.00006088,-0.00003461,-0.00
 001576,0.00001087,0.00001383,0.00001651,-0.00002512,-0.00000753,0.0000
 3326,-0.00003865,0.00007963,-0.00028263,0.00008980,0.00034651,-0.00005
 156,0.00000126,-0.00000234,0.00003247,0.00058185,-0.00018324,0.0001914
 9,0.00003335,0.00005212,0.00005337,-0.00069764,-0.00088319,-0.00011943
 ,0.00538415,0.00020956,0.00325959,-0.00011065,0.00006974,-0.00032507,0
 .00185881,-0.00180143,0.00101174,-0.00087585,0.00059870,-0.00343207,-0
 .00519077,0.00235878,-0.00402559,0.00077132,-0.00053066,0.00057044,0.0
 0049534,-0.00028849,0.00015580,0.00074637,-0.00026606,-0.00019840,0.00
 007467,-0.00004095,0.00002413,-0.00023603,0.00009350,0.00001085,0.0000
 0439,-0.00003163,-0.00001457,0.00010074,-0.00003195,0.00002575,-0.0000
 4709,0.00009021,0.00001751,0.00002322,-0.00000122,0.00002873,0.0000704
 9,-0.00009241,-0.00000533,-0.00012659,0.00001502,0.00005999,0.00006825
 ,-0.00000371,-0.00008638,-0.00000602,0.00003363,0.00000729,-0.00003342
 ,-0.00004060,0.00011789,0.00000738,0.00001398,0.00000264,0.00004448,-0
 .00000094,-0.00009477,-0.00008506,-0.00004223,0.00014783,-0.00002850,0
 .00001595,0.00003238,0.00004711,0.00002504,-0.00014538,-0.00011850,-0.
 00107980,0.00019751,0.00034068,-0.00026377,0.00058008,-0.00010454,0.00
 005015,0.00019188,0.00007321,0.00178156,-0.00384346,0.00047318,0.00104
 692,0.00140930,-0.00546378,-0.00098882,-0.02134075,0.03766104,-0.00728
 744,-0.03556412,-0.05822485,0.01366300,0.08979075,-0.00004909,-0.00016
 239,0.00015699,0.00010083,0.00003399,-0.00003189,-0.00000718,0.0000126
 6,-0.00001763,-0.00000784,0.00002713,-0.00000340,-0.00003096,-0.000109
 26,0.00000247,0.00001724,-0.00004034,0.00001628,0.00003770,-0.00001031
 ,0.00000879,0.00001353,-0.00000149,-0.00000386,-0.00011515,0.00004156,
 -0.00012165,0.00001162,-0.00001883,0.00007255,0.00000355,-0.00010618,-
 0.00002692,-0.00025354,0.00006986,-0.00006576,-0.00013646,-0.00002770,
 0.00003824,-0.00001691,-0.00000347,-0.00003545,-0.00007985,0.00005789,
 0.00044208,-0.00001082,0.00000860,-0.00000869,0.00001827,-0.00001628,-
 0.00001512,-0.00001287,0.00003957,0.00001080,0.00000469,0.00000625,0.0
 0000734,0.00000663,0.00000499,-0.00000524,0.00005592,0.00006624,-0.000
 12544,0.00003891,0.00005180,-0.00001652,0.00001949,-0.00000125,-0.0000
 1057,0.00005853,0.00010246,-0.00015489,0.00000121,-0.00004053,-0.00001
 268,-0.00009397,-0.00033186,-0.00004436,-0.00020693,0.00061852,0.00013
 200,-0.00005948,0.00013152,0.00002696,0.00001500,-0.00027360,0.0001984
 2,-0.00002292,-0.00028375,0.00098718,0.00057839,-0.00029169,0.00058563
 ,-0.00005592,0.00012299,-0.00004372,-0.00009861,0.00002382,0.00008605,
 0.00003440,-0.00003073,0.00008658,-0.00001456,0.00002104,-0.00001224,0
 .00008529,-0.00007716,0.00005963,0.00000853,0.00000424,0.00000353,-0.0
 0005350,0.00003947,-0.00000819,0.00004123,0.00001851,-0.00002052,-0.00
 000080,-0.00000372,-0.00000709,-0.00001446,0.00001976,-0.00000410,0.00
 001525,-0.00001307,-0.00003531,-0.00001772,0.00000296,0.00001848,0.000
 00343,0.00000224,0.00000209,0.00003808,-0.00000497,-0.00001889,0.00000
 666,-0.00001043,-0.00000711,-0.00001711,0.00000360,0.00001918,-0.00005
 622,0.00000847,-0.00002605,-0.00002464,-0.00000313,0.00000897,-0.00001
 477,0.00000609,0.00000194,-0.00009565,-0.00036592,0.00002197,-0.000213
 61,0.00015812,0.00012447,0.00013471,0.00013256,-0.00006431,0.00072579,
 0.00067643,-0.00026240,0.00006424,0.00010068,-0.00020951,-0.00829560,0
 .00300308,0.00054708,-0.01676055,0.00457960,-0.00143401,-0.00286257,-0
 .00174591,-0.00336900,0.05146168,0.00001342,0.00001397,0.00000803,0.00
 001101,-0.00000771,0.00000603,-0.00000142,0.00000097,-0.00000273,-0.00
 001489,-0.00000261,-0.00000893,0.00002689,0.00004758,0.00001974,0.0000
 0637,-0.00000761,0.00000570,-0.00000106,0.00000061,-0.00000283,0.00001
 798,-0.00001897,0.00000592,0.00000208,0.00001545,-0.00001689,0.0000154
 4,-0.00000080,-0.00002354,-0.00005736,-0.00000304,0.00002818,-0.000033
 07,-0.00012795,-0.00010609,0.00000601,-0.00001342,-0.00001379,0.000012
 20,-0.00001158,0.00000886,0.00002373,-0.00003477,0.00002557,0.00000256
 ,0.00000296,-0.00000285,0.00001624,-0.00000546,-0.00000292,-0.00000440
 ,-0.00000045,-0.00000247,-0.00000013,-0.00000274,0.00000349,0.00000073
 ,0.00000167,0.00000002,-0.00000371,-0.00000668,-0.00000889,0.00000460,
 0.00000644,0.00001465,-0.00000332,-0.00000676,0.00000239,-0.00009557,-
 0.00000386,0.00005248,0.00000381,0.00002249,0.00001491,-0.00003412,0.0
 0010343,0.00012568,0.00003863,0.00003888,-0.00025267,0.00004721,0.0000
 2332,0.00002931,0.00005372,-0.00003809,0.00106847,0.00009343,-0.000135
 10,0.00028339,0.00096260,0.00024870,0.00010835,0.00003162,-0.00004654,
 0.00005795,0.00008305,-0.00004581,0.00000616,-0.00000115,-0.00000396,-
 0.00003263,-0.00000488,0.00000255,-0.00000450,-0.00001821,-0.00000256,
 -0.00000207,-0.00000243,-0.00000205,0.00000487,0.00001141,0.00000438,-
 0.00000190,-0.00000164,0.00000389,0.00000658,0.00000180,-0.00000171,0.
 00000221,0.00000385,-0.00000628,-0.00000082,-0.00000610,0.00000396,-0.
 00000057,0.00000278,0.00000017,-0.00000396,0.00000072,-0.00000172,0.00
 000126,-0.00000815,0.00000181,0.00000539,0.00000167,-0.00000200,0.0000
 0077,0.00000386,-0.00000040,-0.00000586,-0.00000785,0.00000276,0.00001
 369,0.00000257,-0.00000165,0.00000219,0.00000441,0.00000136,-0.0000126
 4,-0.00002243,-0.00001580,-0.00003346,-0.00002794,0.00019521,0.0001245
 7,0.00000090,0.00014552,-0.00006358,-0.00025128,-0.00088043,0.00015277
 ,-0.00017820,0.00001587,-0.00006052,0.00564193,0.00051216,-0.00091850,
 0.00179341,0.00223097,-0.00249334,-0.00007597,-0.00962349,0.00242579,-
 0.01028538,0.02310957,-0.00002563,-0.00065806,0.00102144,0.00053832,0.
 00021589,-0.00000911,-0.00006330,0.00008039,-0.00011285,-0.00017298,0.
 00011983,-0.00016085,0.00012785,0.00051274,0.00013235,0.00038352,-0.00
 023963,0.00007042,0.00031391,-0.00005332,0.00000867,0.00013431,-0.0002
 0539,0.00003256,-0.00086163,0.00047295,-0.00086560,0.00021766,-0.00010
 483,0.00038300,0.00006936,-0.00001235,0.00033897,-0.00026999,-0.001734
 57,-0.00125155,-0.00111091,-0.00029057,0.00023426,-0.00005733,-0.00017
 704,-0.00005617,0.00037987,0.00223624,0.00116727,-0.00006823,0.0000803
 0,-0.00011336,0.00019390,-0.00010209,-0.00019161,-0.00020634,0.0002796
 7,0.00010025,0.00004118,-0.00001156,0.00011721,0.00005303,0.00000310,-
 0.00000445,0.00031127,0.00024447,-0.00043747,0.00014805,-0.00006664,-0
 .00009506,0.00005019,-0.00001908,-0.00002091,-0.00109480,0.00119069,-0
 .00095288,0.00013217,-0.00026562,-0.00007296,-0.00041351,-0.00131919,-
 0.00026037,0.00097561,0.00173486,0.00211633,-0.00043081,0.00074599,-0.
 00042216,-0.00000826,-0.00219245,0.00279963,0.00106579,-0.00251080,0.0
 0541187,0.00584001,-0.00478275,0.00244003,-0.00026284,0.00065017,0.000
 26009,0.00036196,-0.00025071,0.00071465,0.00045850,-0.00021234,0.00005
 663,-0.00017322,0.00019787,-0.00010869,0.00064634,-0.00066706,0.000567
 68,0.00008023,0.00000293,0.00006716,-0.00033409,0.00034010,-0.00008051
 ,0.00031268,0.00021476,-0.00008865,0.00002356,-0.00004421,-0.00003274,
 -0.00007049,0.00008609,-0.00004354,0.00000502,0.00002427,-0.00030747,-
 0.00010674,0.00002003,0.00008418,0.00001609,0.00000862,0.00002623,0.00
 018340,-0.00003191,-0.00005198,0.00002367,-0.00006974,-0.00003491,-0.0
 0006867,0.00002304,0.00005697,-0.00033934,0.00012454,-0.00007600,0.000
 01410,-0.00002363,0.00000746,-0.00003052,0.00003658,-0.00006320,-0.000
 47022,-0.00032358,0.00057451,-0.00163404,0.00324454,-0.00022187,0.0001
 9105,0.00059960,-0.00087220,0.00079418,-0.01242603,0.00215675,0.000528
 06,0.00050670,-0.00118955,0.05978194,-0.00902964,-0.01617247,-0.042437
 02,0.01166744,-0.01376999,0.03817736,-0.00778712,0.01331835,-0.0496676
 0,0.01559797,0.06885287,-0.00002843,-0.00066706,0.00099742,0.00053450,
 0.00021015,-0.00002589,-0.00006340,0.00007776,-0.00010936,-0.00017069,
 0.00010908,-0.00014976,0.00009339,0.00038729,0.00015759,0.00036444,-0.
 00023034,0.00007268,0.00027888,-0.00006019,0.00001256,0.00013635,-0.00
 019709,0.00002773,-0.00081647,0.00049066,-0.00082984,0.00020544,-0.000
 09719,0.00036660,0.00005570,-0.00002808,0.00033157,-0.00015284,-0.0014
 5886,-0.00134443,-0.00103754,-0.00024870,0.00018609,-0.00005789,-0.000
 15094,-0.00006690,0.00050791,0.00199099,0.00115716,-0.00005625,0.00008
 001,-0.00009768,0.00015012,-0.00007928,-0.00016128,-0.00018595,0.00027
 025,0.00006672,0.00004142,-0.00000812,0.00011081,0.00004509,0.00000425
 ,-0.00000702,0.00037869,0.00025313,-0.00054767,0.00018252,0.00013169,-
 0.00011840,0.00004597,-0.00003635,-0.00001819,-0.00069116,0.00095168,-
 0.00076552,0.00009952,-0.00022106,-0.00005665,-0.00042974,-0.00119207,
 -0.00015382,0.00010638,0.00167692,0.00166126,-0.00034633,0.00054059,-0
 .00020265,-0.00027002,-0.00103780,0.00244098,0.00207789,-0.00236492,0.
 00470351,0.00464174,-0.00344319,0.00145390,-0.00024566,0.00042508,0.00
 008290,0.00018865,-0.00015962,0.00057438,0.00036905,-0.00018213,0.0001
 1750,-0.00014076,0.00015907,-0.00008509,0.00053757,-0.00052880,0.00047
 845,0.00006835,-0.00000169,0.00006182,-0.00027871,0.00027103,-0.000064
 62,0.00026715,0.00019446,-0.00007073,0.00002361,-0.00003971,-0.0000244
 1,-0.00005566,0.00006235,-0.00003423,-0.00001041,0.00001763,-0.0002703
 1,-0.00008733,0.00001859,0.00006557,0.00001787,0.00000678,0.00002892,0
 .00016136,-0.00003258,-0.00003837,0.00002715,-0.00006756,-0.00003054,-
 0.00005707,0.00001990,0.00004186,-0.00036842,0.00010136,-0.00003910,-0
 .00001995,-0.00001229,0.00002582,-0.00002230,0.00004077,-0.00009581,-0
 .00058899,-0.00091337,0.00045136,-0.00155825,0.00244182,-0.00000401,0.
 00047738,0.00068232,-0.00076908,-0.00074461,-0.00978718,0.00208459,0.0
 0056189,-0.00000066,-0.00098887,0.02049521,0.00168539,-0.00292286,-0.0
 3565572,0.00969343,-0.02069768,0.02732792,-0.00580740,0.02672735,-0.02
 390052,0.00219805,-0.01219562,0.00757196,-0.00000358,0.00018701,-0.000
 27743,-0.00011862,-0.00007050,-0.00002230,0.00001584,-0.00002474,0.000
 03254,0.00004291,-0.00004390,0.00004031,0.00001146,-0.00009486,-0.0000
 0799,-0.00010580,0.00007074,-0.00002116,-0.00008641,0.00001389,-0.0000
 0694,-0.00001744,0.00003544,0.00000795,0.00019598,-0.00004714,0.000242
 22,-0.00003918,0.00002782,-0.00013753,-0.00001105,-0.00004821,-0.00002
 401,0.00009812,0.00024304,-0.00002145,0.00030589,0.00005231,-0.0000848
 9,0.00003916,0.00005075,0.00002678,0.00009289,-0.00059851,-0.00012700,
 0.00002134,-0.00001680,0.00002862,-0.00003064,0.00002594,0.00004717,0.
 00005931,-0.00007853,-0.00002647,-0.00001177,0.00000146,-0.00003047,-0
 .00001693,0.00000042,0.00000079,-0.00007036,-0.00006958,0.00013073,-0.
 00006691,0.00010853,0.00005718,-0.00001377,-0.00001008,0.00000499,0.00
 027001,-0.00039112,0.00026035,-0.00003579,0.00009806,0.00005584,0.0000
 9215,0.00035804,0.00022451,0.00018242,-0.00021636,-0.00085339,0.000110
 01,-0.00019190,0.00010959,-0.00017234,0.00087464,0.00015089,-0.0000958
 9,0.00059207,-0.00118626,-0.00069146,0.00103472,-0.00048759,0.00009815
 ,-0.00018975,0.00000486,-0.00001569,0.00003477,-0.00014989,-0.00012476
 ,0.00001188,0.00002665,0.00003384,-0.00003485,0.00001860,-0.00020532,0
 .00018685,-0.00016617,-0.00002821,0.00000255,-0.00001033,0.00010132,-0
 .00009066,0.00001912,-0.00008553,-0.00006001,0.00002926,-0.00000724,0.
 00001094,0.00001048,0.00001904,-0.00002486,0.00001143,-0.00000097,-0.0
 0000437,0.00008273,0.00002881,-0.00000570,-0.00002289,-0.00000525,-0.0
 0000315,-0.00000623,-0.00004850,0.00001162,0.00001222,-0.00000452,0.00
 001865,0.00000934,0.00001902,-0.00000712,-0.00001545,0.00008779,-0.000
 04243,0.00002780,-0.00002753,0.00000017,0.00000263,0.00000718,-0.00000
 856,0.00001425,0.00026160,-0.00009526,-0.00041464,0.00022007,-0.001532
 11,0.00037893,-0.00011117,-0.00004768,0.00038613,-0.00124315,0.0063730
 5,-0.00049022,0.00004946,-0.00025365,0.00040464,-0.00612724,-0.0137316
 6,0.00082679,0.00812163,0.00003167,0.00351042,-0.00888676,0.00209513,-
 0.00933613,0.00406263,-0.01569463,0.00434956,0.00386177,0.02117651,-0.
 00001606,0.00040442,-0.00059150,-0.00035935,-0.00007741,0.00001037,0.0
 0004418,-0.00005092,0.00007274,0.00010648,-0.00006860,0.00009589,-0.00
 002449,-0.00021031,-0.00010378,-0.00026990,0.00012584,-0.00002566,-0.0
 0012880,0.00003594,-0.00000646,-0.00008821,0.00014150,-0.00003456,0.00
 047795,-0.00038319,0.00043562,-0.00011058,0.00003354,-0.00015489,-0.00
 008103,0.00011372,-0.00029597,0.00026177,0.00090549,0.00080294,0.00051
 816,0.00013935,-0.00004302,0.00007231,0.00010501,0.00008575,-0.0005616
 9,-0.00124855,-0.00098435,0.00002157,-0.00005329,0.00004338,-0.0001365
 1,0.00005486,0.00002551,0.00011325,-0.00014266,-0.00001105,-0.00002512
 ,0.00000750,-0.00007300,-0.00001625,-0.00000131,-0.00000061,-0.0002758
 1,-0.00018159,0.00045284,-0.00010978,-0.00013528,0.00008124,-0.0000170
 0,0.00001811,0.00000274,0.00043116,-0.00035085,0.00045756,-0.00003014,
 0.00009403,0.00000960,0.00012896,0.00048825,0.00007493,0.00013450,-0.0
 0097115,0.00079628,0.00024458,-0.00024145,0.00009591,0.00010595,-0.000
 45192,-0.00123184,-0.00056466,0.00107093,-0.00217537,-0.00123353,0.001
 44478,-0.00247650,0.00023874,-0.00037595,-0.00003853,0.00000653,-0.000
 05278,-0.00021855,0.00004990,0.00006150,-0.00024356,0.00008055,-0.0000
 6342,0.00004277,-0.00024290,0.00022892,-0.00014781,-0.00002774,0.00000
 137,-0.00004333,0.00011274,-0.00010761,0.00002261,-0.00011128,-0.00011
 912,0.00003162,-0.00002012,0.00002394,-0.00000018,0.00001082,0.0000010
 2,0.00001101,0.00004581,-0.00001783,0.00013478,0.00002726,-0.00000960,
 -0.00001083,-0.00000575,-0.00000991,-0.00002163,-0.00007516,0.00002656
 ,-0.00000942,-0.00001883,0.00003915,0.00001146,0.00001689,-0.00000930,
 0.00000439,0.00023415,-0.00004060,-0.00004793,0.00004320,0.00000180,-0
 .00002640,0.00000123,-0.00003144,0.00011175,0.00027623,0.00066913,-0.0
 0021164,0.00117181,-0.00191292,0.00004101,-0.00034695,-0.00033645,0.00
 048314,0.00024393,0.00747085,-0.00196255,-0.00022777,0.00007965,0.0009
 4262,-0.02469440,0.00018180,0.00230155,0.01279259,-0.00162776,0.000736
 88,-0.03891711,0.00906806,-0.04202935,0.05222442,-0.01613438,-0.064976
 65,-0.00150072,0.00238051,0.10977804\\0.00000183,0.00000890,0.00000291
 ,-0.00000188,0.00000336,0.00000121,-0.00000009,0.00000038,-0.00000003,
 -0.00000015,0.00000021,0.00000038,0.00000030,0.00000054,0.00000117,-0.
 00000379,0.00000070,-0.00000067,0.00000022,-0.00000121,-0.00000041,-0.
 00000161,-0.00000042,-0.00000052,0.00000660,-0.00000867,-0.00000194,-0
 .00000581,-0.00000108,0.00000141,-0.00000030,-0.00000002,0.00000003,-0
 .00000593,0.00000079,0.00000089,0.00001248,0.00000524,-0.00000320,-0.0
 0000208,0.00000210,-0.00000030,-0.00000339,0.00000123,-0.00000001,-0.0
 0000274,-0.00000187,-0.00000139,-0.00000003,-0.00000055,-0.00000033,-0
 .00000079,-0.00000525,0.00000100,-0.00000035,0.00000024,-0.00000071,0.
 00000121,0.00000106,-0.00000083,0.00001473,-0.00000091,-0.00000073,-0.
 00000248,-0.00000115,-0.00000012,-0.00000291,-0.00000059,0.00000219,-0
 .00000437,-0.00000197,0.00000162,0.00000037,-0.00000184,0.00000002,-0.
 00000059,0.00000084,-0.00000057,0.00000878,0.00000218,0.00001155,0.000
 00134,0.00000120,0.00000130,0.00000018,-0.00000039,0.00000215,0.000009
 41,-0.00000370,0.00000476,0.00000149,-0.00000175,0.00001742,-0.0000002
 3,-0.00000052,-0.00000016,-0.00000136,-0.00000232,-0.00000035,0.000001
 66,-0.00000119,-0.00000028,0.00000041,-0.00000080,-0.00000087,0.000005
 44,0.00000188,-0.00000743,-0.00000127,-0.00000039,-0.00000022,-0.00000
 267,-0.00000039,0.00000450,-0.00000229,-0.00000434,-0.00000115,0.00000
 023,-0.00000097,-0.00000122,-0.00000009,-0.00000110,-0.00000239,0.0000
 0027,0.00000122,0.00000014,0.00000007,0.00000061,-0.00000012,-0.000000
 09,-0.00000030,-0.00000036,-0.00000052,0.00000095,0.00000017,0.0000007
 0,0.00000051,0.00000005,0.00000008,0.00000043,0.00000033,-0.00000242,-
 0.00000018,0.00000001,-0.00000296,0.00000190,0.00000202,-0.00000154,0.
 00000004,-0.00000018,-0.00000047,0.00000300,0.00000592,0.00000355,-0.0
 0000001,-0.00000251,0.00000154,-0.00000165,0.00000321,-0.00000492,0.00
 000584,0.00000144,-0.00000279,0.00000175,0.00000225,-0.00001341,0.0000
 1438,0.00001317,0.00000155,-0.00002634,-0.00005160,0.00001084,0.000009
 22,0.00001435,-0.00000081,-0.00000541,-0.00004217,-0.00000814,0.000006
 59,0.00002520\\\@
 The archive entry for this job was punched.


 EDUCATION DOESN'T COST 
           ... IT PAYS!

 -- POSTMARK, UNIV. OF MISSISSIPPI, DEC 78
 Job cpu time:       4 days 20 hours  4 minutes  2.9 seconds.
 Elapsed time:       0 days  2 hours 25 minutes 28.4 seconds.
 File lengths (MBytes):  RWF=  11052 Int=      0 D2E=      0 Chk=    123 Scr=      2
 Normal termination of Gaussian 16 at Thu Dec 29 06:57:09 2022.
