 Entering Gaussian System, Link 0=/apps/GAU16/avx2/g16/g16
 Initial command:
 /apps/GAU16/avx2//g16/l1.exe "/localscratch/chegho/Gau-122039.inp" -scrdir="/localscratch/chegho/"
 Entering Link 1 = /apps/GAU16/avx2//g16/l1.exe PID=    122043.
  
 Copyright (c) 1988-2019, Gaussian, Inc.  All Rights Reserved.
  
 This is part of the Gaussian(R) 16 program.  It is based on
 the Gaussian(R) 09 system (copyright 2009, Gaussian, Inc.),
 the Gaussian(R) 03 system (copyright 2003, Gaussian, Inc.),
 the Gaussian(R) 98 system (copyright 1998, Gaussian, Inc.),
 the Gaussian(R) 94 system (copyright 1995, Gaussian, Inc.),
 the Gaussian 92(TM) system (copyright 1992, Gaussian, Inc.),
 the Gaussian 90(TM) system (copyright 1990, Gaussian, Inc.),
 the Gaussian 88(TM) system (copyright 1988, Gaussian, Inc.),
 the Gaussian 86(TM) system (copyright 1986, Carnegie Mellon
 University), and the Gaussian 82(TM) system (copyright 1983,
 Carnegie Mellon University). Gaussian is a federally registered
 trademark of Gaussian, Inc.
  
 This software contains proprietary and confidential information,
 including trade secrets, belonging to Gaussian, Inc.
  
 This software is provided under written license and may be
 used, copied, transmitted, or stored only in accord with that
 written license.
  
 The following legend is applicable only to US Government
 contracts under FAR:
  
                    RESTRICTED RIGHTS LEGEND
  
 Use, reproduction and disclosure by the US Government is
 subject to restrictions as set forth in subparagraphs (a)
 and (c) of the Commercial Computer Software - Restricted
 Rights clause in FAR 52.227-19.
  
 Gaussian, Inc.
 340 Quinnipiac St., Bldg. 40, Wallingford CT 06492
  
  
 ---------------------------------------------------------------
 Warning -- This program may not be used in any manner that
 competes with the business of Gaussian, Inc. or will provide
 assistance to any competitor of Gaussian, Inc.  The licensee
 of this program is prohibited from giving any competitor of
 Gaussian, Inc. access to this program.  By using this program,
 the user acknowledges that Gaussian, Inc. is engaged in the
 business of creating and licensing software in the field of
 computational chemistry and represents and warrants to the
 licensee that it is not a competitor of Gaussian, Inc. and that
 it will not use this program in any manner prohibited above.
 ---------------------------------------------------------------
  

 Cite this work as:
 Gaussian 16, Revision C.01,
 M. J. Frisch, G. W. Trucks, H. B. Schlegel, G. E. Scuseria, 
 M. A. Robb, J. R. Cheeseman, G. Scalmani, V. Barone, 
 G. A. Petersson, H. Nakatsuji, X. Li, M. Caricato, A. V. Marenich, 
 J. Bloino, B. G. Janesko, R. Gomperts, B. Mennucci, H. P. Hratchian, 
 J. V. Ortiz, A. F. Izmaylov, J. L. Sonnenberg, D. Williams-Young, 
 F. Ding, F. Lipparini, F. Egidi, J. Goings, B. Peng, A. Petrone, 
 T. Henderson, D. Ranasinghe, V. G. Zakrzewski, J. Gao, N. Rega, 
 G. Zheng, W. Liang, M. Hada, M. Ehara, K. Toyota, R. Fukuda, 
 J. Hasegawa, M. Ishida, T. Nakajima, Y. Honda, O. Kitao, H. Nakai, 
 T. Vreven, K. Throssell, J. A. Montgomery, Jr., J. E. Peralta, 
 F. Ogliaro, M. J. Bearpark, J. J. Heyd, E. N. Brothers, K. N. Kudin, 
 V. N. Staroverov, T. A. Keith, R. Kobayashi, J. Normand, 
 K. Raghavachari, A. P. Rendell, J. C. Burant, S. S. Iyengar, 
 J. Tomasi, M. Cossi, J. M. Millam, M. Klene, C. Adamo, R. Cammi, 
 J. W. Ochterski, R. L. Martin, K. Morokuma, O. Farkas, 
 J. B. Foresman, and D. J. Fox, Gaussian, Inc., Wallingford CT, 2019.
 
 ******************************************
 Gaussian 16:  ES64L-G16RevC.01  3-Jul-2019
                 7-Feb-2023 
 ******************************************
 %nprocshared=48
 Will use up to   48 processors via shared memory.
 %chk=Mo19S40_n_2.chk
 %mem=100GB
 ---------------------------------------
 # opt freq b3lyp/gen nosymm pseudo=read
 ---------------------------------------
 1/18=20,19=15,26=3,38=1/1,3;
 2/9=110,12=2,15=1,17=6,18=5,40=1/2;
 3/5=7,11=2,16=1,17=8,25=1,30=1,71=1,74=-5/1,2,3;
 4//1;
 5/5=2,38=5/2;
 6/7=2,8=2,9=2,10=2,28=1/1;
 7/30=1/1,2,3,16;
 1/18=20,19=15,26=3/3(2);
 2/9=110,15=1/2;
 99//99;
 2/9=110,15=1/2;
 3/5=7,6=1,11=2,16=1,17=8,25=1,30=1,71=1,74=-5,82=7/1,2,3;
 4/5=5,16=3,69=1/1;
 5/5=2,38=5/2;
 7/30=1/1,2,3,16;
 1/18=20,19=15,26=3/3(-5);
 2/9=110,15=1/2;
 6/7=2,8=2,9=2,10=2,19=2,28=1/1;
 99/9=1/99;
 -------------------
 Title Card Required
 -------------------
 Symbolic Z-matrix:
 Charge =  0 Multiplicity = 1
 42                   -0.21253   1.43156   12.9731 
 16                    1.49259   3.19345   12.56773 
 16                   -1.53717   3.34229   13.63892 
 16                   -0.89222   0.96947   10.71089 
 16                    1.61859  -0.31266   12.17881 
 42                   -2.35851   2.78513   11.44161 
 16                   -3.09889   2.6653    8.90122 
 16                   -0.93076   4.63332   10.57967 
 42                    0.57652   2.86135   10.511 
 16                   -0.21346   2.63205   7.88347 
 16                    2.36633   1.55338   9.48616 
 42                    3.2963    1.45938   11.84423 
 42                   -1.74424   4.65906   8.12377 
 16                    4.06481   1.91967   14.11815 
 16                    4.50122   3.51306   11.21688 
 16                   -3.17029   6.44595   8.99497 
 16                   -0.01202   6.33641   7.85745 
 42                   -4.46915   4.40806   9.23212 
 16                   -6.4579    2.96342   9.90596 
 16                   -3.97104   4.78388   11.68366 
 42                    2.5811   -0.03555   14.20438 
 16                    4.49781  -1.61024   14.24363 
 16                    1.01972   1.53995   15.26567 
 42                    1.21309   4.25485   7.39113 
 16                    0.48306   4.27929   5.00231 
 16                    2.14938   4.76215   9.54286 
 42                    3.90723   3.38624   8.53745 
 16                    3.0752    2.99289   6.36194 
 16                    5.41831   5.31804   8.45636 
 42                    4.4072    5.02505   6.19574 
 16                    6.15235   4.60086   5.11458 
 16                    3.75827   7.26298   6.74626 
 42                    2.83397   7.35007   4.63576 
 16                    3.14324   5.29685   3.87889 
 16                    0.66822   7.74994   4.78634 
 42                   -0.96177   5.82891   5.78095 
 16                   -2.69237   4.13587   5.93546 
 16                   -2.57475   7.13641   4.95271 
 42                   -4.02606   6.08499   6.86102 
 16                   -5.67697   4.48193   7.25299 
 16                   -5.24969   7.81604   6.54575 
 42                   -5.37003   2.96667   11.82538 
 16                   -6.69997   3.11093   13.45884 
 16                   -4.12172   0.95162   11.78447 
 42                   -2.83659   1.39573   13.77712 
 16                   -1.5686   -0.65341   13.61393 
 16                   -3.85108   1.61167   15.63368 
 42                   -0.11796  -0.45191   15.46603 
 16                    1.42821  -2.01358   15.22271 
 16                   -1.01775  -0.64274   17.3675 
 42                    5.30327   0.21229   13.14424 
 16                    4.70477  -0.30743   10.95655 
 16                    7.26682   1.28505   12.815 
 42                    5.91994   1.82602   10.77144 
 16                    5.54699   1.51529   8.37585 
 16                    7.81633   3.4025    10.46579 
 42                    6.89726   3.42451   8.45331 
 16                    8.51964   3.32615   7.08061 
 16                    3.71672   8.84275   3.41836 
 

 GradGradGradGradGradGradGradGradGradGradGradGradGradGradGradGradGradGrad
 Berny optimization.
 Initialization pass.
                           ----------------------------
                           !    Initial Parameters    !
                           ! (Angstroms and Degrees)  !
 --------------------------                            --------------------------
 ! Name  Definition              Value          Derivative Info.                !
 --------------------------------------------------------------------------------
 ! R1    R(1,2)                  2.4852         estimate D2E/DX2                !
 ! R2    R(1,3)                  2.4184         estimate D2E/DX2                !
 ! R3    R(1,4)                  2.4069         estimate D2E/DX2                !
 ! R4    R(1,5)                  2.6507         estimate D2E/DX2                !
 ! R5    R(1,6)                  2.9636         estimate D2E/DX2                !
 ! R6    R(1,9)                  2.9545         estimate D2E/DX2                !
 ! R7    R(1,23)                 2.605          estimate D2E/DX2                !
 ! R8    R(1,45)                 2.7447         estimate D2E/DX2                !
 ! R9    R(1,46)                 2.5684         estimate D2E/DX2                !
 ! R10   R(2,9)                  2.2759         estimate D2E/DX2                !
 ! R11   R(2,12)                 2.6046         estimate D2E/DX2                !
 ! R12   R(3,6)                  2.4111         estimate D2E/DX2                !
 ! R13   R(3,45)                 2.3445         estimate D2E/DX2                !
 ! R14   R(4,6)                  2.4455         estimate D2E/DX2                !
 ! R15   R(4,9)                  2.4034         estimate D2E/DX2                !
 ! R16   R(5,12)                 2.4631         estimate D2E/DX2                !
 ! R17   R(5,21)                 2.2597         estimate D2E/DX2                !
 ! R18   R(6,7)                  2.6488         estimate D2E/DX2                !
 ! R19   R(6,8)                  2.4894         estimate D2E/DX2                !
 ! R20   R(6,9)                  3.08           estimate D2E/DX2                !
 ! R21   R(6,20)                 2.5795         estimate D2E/DX2                !
 ! R22   R(6,42)                 3.0413         estimate D2E/DX2                !
 ! R23   R(6,44)                 2.5668         estimate D2E/DX2                !
 ! R24   R(6,45)                 2.7593         estimate D2E/DX2                !
 ! R25   R(7,13)                 2.5327         estimate D2E/DX2                !
 ! R26   R(7,18)                 2.2415         estimate D2E/DX2                !
 ! R27   R(8,9)                  2.3273         estimate D2E/DX2                !
 ! R28   R(8,13)                 2.5872         estimate D2E/DX2                !
 ! R29   R(9,10)                 2.7533         estimate D2E/DX2                !
 ! R30   R(9,11)                 2.4422         estimate D2E/DX2                !
 ! R31   R(9,26)                 2.6503         estimate D2E/DX2                !
 ! R32   R(10,13)                2.5514         estimate D2E/DX2                !
 ! R33   R(10,24)                2.2161         estimate D2E/DX2                !
 ! R34   R(11,12)                2.5366         estimate D2E/DX2                !
 ! R35   R(11,27)                2.5756         estimate D2E/DX2                !
 ! R36   R(12,14)                2.444          estimate D2E/DX2                !
 ! R37   R(12,15)                2.4623         estimate D2E/DX2                !
 ! R38   R(12,21)                2.8839         estimate D2E/DX2                !
 ! R39   R(12,51)                2.6969         estimate D2E/DX2                !
 ! R40   R(12,52)                2.4276         estimate D2E/DX2                !
 ! R41   R(12,54)                2.8581         estimate D2E/DX2                !
 ! R42   R(13,16)                2.4465         estimate D2E/DX2                !
 ! R43   R(13,17)                2.4259         estimate D2E/DX2                !
 ! R44   R(13,18)                2.9524         estimate D2E/DX2                !
 ! R45   R(13,24)                3.0734         estimate D2E/DX2                !
 ! R46   R(13,36)                2.7331         estimate D2E/DX2                !
 ! R47   R(13,37)                2.4416         estimate D2E/DX2                !
 ! R48   R(13,39)                2.9723         estimate D2E/DX2                !
 ! R49   R(14,21)                2.456          estimate D2E/DX2                !
 ! R50   R(14,51)                2.3232         estimate D2E/DX2                !
 ! R51   R(15,27)                2.7474         estimate D2E/DX2                !
 ! R52   R(15,54)                2.2488         estimate D2E/DX2                !
 ! R53   R(16,18)                2.4282         estimate D2E/DX2                !
 ! R54   R(16,39)                2.3273         estimate D2E/DX2                !
 ! R55   R(17,24)                2.4599         estimate D2E/DX2                !
 ! R56   R(17,36)                2.3391         estimate D2E/DX2                !
 ! R57   R(18,19)                2.5488         estimate D2E/DX2                !
 ! R58   R(18,20)                2.5297         estimate D2E/DX2                !
 ! R59   R(18,39)                2.9378         estimate D2E/DX2                !
 ! R60   R(18,40)                2.3198         estimate D2E/DX2                !
 ! R61   R(18,42)                3.1007         estimate D2E/DX2                !
 ! R62   R(19,42)                2.2063         estimate D2E/DX2                !
 ! R63   R(20,42)                2.2977         estimate D2E/DX2                !
 ! R64   R(21,22)                2.4809         estimate D2E/DX2                !
 ! R65   R(21,23)                2.4589         estimate D2E/DX2                !
 ! R66   R(21,48)                3.0083         estimate D2E/DX2                !
 ! R67   R(21,49)                2.5057         estimate D2E/DX2                !
 ! R68   R(21,51)                2.9318         estimate D2E/DX2                !
 ! R69   R(22,51)                2.2757         estimate D2E/DX2                !
 ! R70   R(23,48)                2.3026         estimate D2E/DX2                !
 ! R71   R(24,25)                2.498          estimate D2E/DX2                !
 ! R72   R(24,26)                2.4008         estimate D2E/DX2                !
 ! R73   R(24,27)                3.054          estimate D2E/DX2                !
 ! R74   R(24,28)                2.4737         estimate D2E/DX2                !
 ! R75   R(25,36)                2.2572         estimate D2E/DX2                !
 ! R76   R(26,27)                2.4483         estimate D2E/DX2                !
 ! R77   R(27,28)                2.3622         estimate D2E/DX2                !
 ! R78   R(27,29)                2.4539         estimate D2E/DX2                !
 ! R79   R(27,30)                2.9016         estimate D2E/DX2                !
 ! R80   R(27,55)                2.4931         estimate D2E/DX2                !
 ! R81   R(27,57)                2.9915         estimate D2E/DX2                !
 ! R82   R(28,30)                2.4355         estimate D2E/DX2                !
 ! R83   R(29,30)                2.4937         estimate D2E/DX2                !
 ! R84   R(29,57)                2.4027         estimate D2E/DX2                !
 ! R85   R(30,31)                2.0963         estimate D2E/DX2                !
 ! R86   R(30,32)                2.3943         estimate D2E/DX2                !
 ! R87   R(30,34)                2.6532         estimate D2E/DX2                !
 ! R88   R(32,33)                2.3057         estimate D2E/DX2                !
 ! R89   R(33,34)                2.21           estimate D2E/DX2                !
 ! R90   R(33,35)                2.2075         estimate D2E/DX2                !
 ! R91   R(33,59)                2.1188         estimate D2E/DX2                !
 ! R92   R(35,36)                2.7086         estimate D2E/DX2                !
 ! R93   R(36,37)                2.426          estimate D2E/DX2                !
 ! R94   R(36,38)                2.2355         estimate D2E/DX2                !
 ! R95   R(37,39)                2.5366         estimate D2E/DX2                !
 ! R96   R(38,39)                2.6179         estimate D2E/DX2                !
 ! R97   R(39,40)                2.3343         estimate D2E/DX2                !
 ! R98   R(39,41)                2.1432         estimate D2E/DX2                !
 ! R99   R(42,43)                2.1113         estimate D2E/DX2                !
 ! R100  R(42,44)                2.3707         estimate D2E/DX2                !
 ! R101  R(44,45)                2.4124         estimate D2E/DX2                !
 ! R102  R(45,46)                2.4153         estimate D2E/DX2                !
 ! R103  R(45,47)                2.1266         estimate D2E/DX2                !
 ! R104  R(46,48)                2.3612         estimate D2E/DX2                !
 ! R105  R(48,49)                2.211          estimate D2E/DX2                !
 ! R106  R(48,50)                2.1123         estimate D2E/DX2                !
 ! R107  R(51,52)                2.3269         estimate D2E/DX2                !
 ! R108  R(51,53)                2.2616         estimate D2E/DX2                !
 ! R109  R(51,54)                2.9351         estimate D2E/DX2                !
 ! R110  R(52,54)                2.4622         estimate D2E/DX2                !
 ! R111  R(53,54)                2.5066         estimate D2E/DX2                !
 ! R112  R(54,55)                2.4443         estimate D2E/DX2                !
 ! R113  R(54,56)                2.485          estimate D2E/DX2                !
 ! R114  R(54,57)                2.9806         estimate D2E/DX2                !
 ! R115  R(55,57)                2.3397         estimate D2E/DX2                !
 ! R116  R(56,57)                2.2125         estimate D2E/DX2                !
 ! R117  R(57,58)                2.1275         estimate D2E/DX2                !
 ! A1    A(2,1,3)               81.9859         estimate D2E/DX2                !
 ! A2    A(2,1,4)              100.1691         estimate D2E/DX2                !
 ! A3    A(2,1,5)               86.7702         estimate D2E/DX2                !
 ! A4    A(2,1,6)               95.0904         estimate D2E/DX2                !
 ! A5    A(2,1,23)              77.8481         estimate D2E/DX2                !
 ! A6    A(2,1,45)             135.4794         estimate D2E/DX2                !
 ! A7    A(3,1,4)              104.8193         estimate D2E/DX2                !
 ! A8    A(3,1,9)               89.6198         estimate D2E/DX2                !
 ! A9    A(3,1,23)              89.079          estimate D2E/DX2                !
 ! A10   A(3,1,46)             106.4681         estimate D2E/DX2                !
 ! A11   A(4,1,5)               77.708          estimate D2E/DX2                !
 ! A12   A(4,1,45)              90.1629         estimate D2E/DX2                !
 ! A13   A(4,1,46)              85.9608         estimate D2E/DX2                !
 ! A14   A(5,1,6)              130.2343         estimate D2E/DX2                !
 ! A15   A(5,1,9)               83.3522         estimate D2E/DX2                !
 ! A16   A(5,1,23)              87.9551         estimate D2E/DX2                !
 ! A17   A(5,1,45)             137.7            estimate D2E/DX2                !
 ! A18   A(5,1,46)              84.5675         estimate D2E/DX2                !
 ! A19   A(6,1,23)             141.1065         estimate D2E/DX2                !
 ! A20   A(6,1,46)              96.7413         estimate D2E/DX2                !
 ! A21   A(9,1,23)             125.9393         estimate D2E/DX2                !
 ! A22   A(9,1,45)             120.3823         estimate D2E/DX2                !
 ! A23   A(9,1,46)             137.884          estimate D2E/DX2                !
 ! A24   A(23,1,45)            101.2436         estimate D2E/DX2                !
 ! A25   A(23,1,46)             93.6665         estimate D2E/DX2                !
 ! A26   A(1,2,12)              92.7769         estimate D2E/DX2                !
 ! A27   A(9,2,12)              86.0183         estimate D2E/DX2                !
 ! A28   A(1,5,12)              92.1683         estimate D2E/DX2                !
 ! A29   A(1,5,21)              86.8441         estimate D2E/DX2                !
 ! A30   A(1,6,7)              132.6377         estimate D2E/DX2                !
 ! A31   A(1,6,8)               95.8957         estimate D2E/DX2                !
 ! A32   A(1,6,20)             139.2953         estimate D2E/DX2                !
 ! A33   A(1,6,42)             132.7716         estimate D2E/DX2                !
 ! A34   A(1,6,44)              95.8622         estimate D2E/DX2                !
 ! A35   A(3,6,4)              103.8643         estimate D2E/DX2                !
 ! A36   A(3,6,8)               87.0544         estimate D2E/DX2                !
 ! A37   A(3,6,9)               86.8483         estimate D2E/DX2                !
 ! A38   A(3,6,20)              87.0412         estimate D2E/DX2                !
 ! A39   A(3,6,42)             102.0361         estimate D2E/DX2                !
 ! A40   A(3,6,44)             106.1019         estimate D2E/DX2                !
 ! A41   A(4,6,7)               81.2244         estimate D2E/DX2                !
 ! A42   A(4,6,8)               95.9621         estimate D2E/DX2                !
 ! A43   A(4,6,42)             132.511          estimate D2E/DX2                !
 ! A44   A(4,6,44)              85.4943         estimate D2E/DX2                !
 ! A45   A(4,6,45)              89.0229         estimate D2E/DX2                !
 ! A46   A(7,6,8)               82.0577         estimate D2E/DX2                !
 ! A47   A(7,6,9)               88.7222         estimate D2E/DX2                !
 ! A48   A(7,6,20)              87.1521         estimate D2E/DX2                !
 ! A49   A(7,6,42)              81.1958         estimate D2E/DX2                !
 ! A50   A(7,6,44)              84.4785         estimate D2E/DX2                !
 ! A51   A(7,6,45)             137.78           estimate D2E/DX2                !
 ! A52   A(8,6,20)              79.3827         estimate D2E/DX2                !
 ! A53   A(8,6,42)             124.5613         estimate D2E/DX2                !
 ! A54   A(8,6,45)             140.0205         estimate D2E/DX2                !
 ! A55   A(9,6,20)             127.221          estimate D2E/DX2                !
 ! A56   A(9,6,44)             135.451          estimate D2E/DX2                !
 ! A57   A(9,6,45)             115.6781         estimate D2E/DX2                !
 ! A58   A(20,6,44)             96.4041         estimate D2E/DX2                !
 ! A59   A(20,6,45)            101.6792         estimate D2E/DX2                !
 ! A60   A(42,6,45)             75.622          estimate D2E/DX2                !
 ! A61   A(6,7,13)              96.2741         estimate D2E/DX2                !
 ! A62   A(6,7,18)              89.6627         estimate D2E/DX2                !
 ! A63   A(6,8,13)              98.9589         estimate D2E/DX2                !
 ! A64   A(9,8,13)             100.5561         estimate D2E/DX2                !
 ! A65   A(1,9,8)               99.8405         estimate D2E/DX2                !
 ! A66   A(1,9,10)             132.7152         estimate D2E/DX2                !
 ! A67   A(1,9,11)             106.6333         estimate D2E/DX2                !
 ! A68   A(1,9,26)             144.0953         estimate D2E/DX2                !
 ! A69   A(2,9,4)              106.5995         estimate D2E/DX2                !
 ! A70   A(2,9,6)               96.5532         estimate D2E/DX2                !
 ! A71   A(2,9,8)               97.0606         estimate D2E/DX2                !
 ! A72   A(2,9,11)              99.3458         estimate D2E/DX2                !
 ! A73   A(2,9,26)              89.2316         estimate D2E/DX2                !
 ! A74   A(4,9,8)              101.6009         estimate D2E/DX2                !
 ! A75   A(4,9,10)              80.7046         estimate D2E/DX2                !
 ! A76   A(4,9,11)              93.5075         estimate D2E/DX2                !
 ! A77   A(4,9,26)             163.2557         estimate D2E/DX2                !
 ! A78   A(6,9,10)              90.7372         estimate D2E/DX2                !
 ! A79   A(6,9,11)             144.2827         estimate D2E/DX2                !
 ! A80   A(6,9,26)             133.9198         estimate D2E/DX2                !
 ! A81   A(8,9,10)              84.5913         estimate D2E/DX2                !
 ! A82   A(8,9,11)             153.4794         estimate D2E/DX2                !
 ! A83   A(8,9,26)              81.3195         estimate D2E/DX2                !
 ! A84   A(10,9,11)             76.4205         estimate D2E/DX2                !
 ! A85   A(10,9,26)             83.1886         estimate D2E/DX2                !
 ! A86   A(11,9,26)             78.2228         estimate D2E/DX2                !
 ! A87   A(9,10,13)             90.9227         estimate D2E/DX2                !
 ! A88   A(9,10,24)             88.0707         estimate D2E/DX2                !
 ! A89   A(9,11,12)             84.1702         estimate D2E/DX2                !
 ! A90   A(9,11,27)            102.2332         estimate D2E/DX2                !
 ! A91   A(12,11,27)            98.5954         estimate D2E/DX2                !
 ! A92   A(2,12,5)              88.2552         estimate D2E/DX2                !
 ! A93   A(2,12,11)             88.8349         estimate D2E/DX2                !
 ! A94   A(2,12,14)             80.4402         estimate D2E/DX2                !
 ! A95   A(2,12,15)             81.6258         estimate D2E/DX2                !
 ! A96   A(2,12,21)             86.9071         estimate D2E/DX2                !
 ! A97   A(2,12,51)            133.5766         estimate D2E/DX2                !
 ! A98   A(2,12,54)            130.8864         estimate D2E/DX2                !
 ! A99   A(5,12,11)             84.4462         estimate D2E/DX2                !
 ! A100  A(5,12,14)            102.9027         estimate D2E/DX2                !
 ! A101  A(5,12,51)             96.2422         estimate D2E/DX2                !
 ! A102  A(5,12,52)             85.4837         estimate D2E/DX2                !
 ! A103  A(5,12,54)            140.2231         estimate D2E/DX2                !
 ! A104  A(11,12,15)            84.9311         estimate D2E/DX2                !
 ! A105  A(11,12,21)           133.5589         estimate D2E/DX2                !
 ! A106  A(11,12,51)           137.5691         estimate D2E/DX2                !
 ! A107  A(11,12,52)            84.2466         estimate D2E/DX2                !
 ! A108  A(11,12,54)            89.0177         estimate D2E/DX2                !
 ! A109  A(14,12,15)            85.7615         estimate D2E/DX2                !
 ! A110  A(14,12,52)           107.1481         estimate D2E/DX2                !
 ! A111  A(14,12,54)            92.0869         estimate D2E/DX2                !
 ! A112  A(15,12,21)           139.6601         estimate D2E/DX2                !
 ! A113  A(15,12,51)            98.2985         estimate D2E/DX2                !
 ! A114  A(15,12,52)           103.2934         estimate D2E/DX2                !
 ! A115  A(21,12,52)            93.777          estimate D2E/DX2                !
 ! A116  A(21,12,54)           126.966          estimate D2E/DX2                !
 ! A117  A(7,13,8)              82.4702         estimate D2E/DX2                !
 ! A118  A(7,13,10)             74.0028         estimate D2E/DX2                !
 ! A119  A(7,13,16)             98.8518         estimate D2E/DX2                !
 ! A120  A(7,13,17)            163.7233         estimate D2E/DX2                !
 ! A121  A(7,13,24)            118.9668         estimate D2E/DX2                !
 ! A122  A(7,13,36)            138.87           estimate D2E/DX2                !
 ! A123  A(7,13,37)             84.1879         estimate D2E/DX2                !
 ! A124  A(7,13,39)             95.5924         estimate D2E/DX2                !
 ! A125  A(8,13,10)             83.8492         estimate D2E/DX2                !
 ! A126  A(8,13,16)             81.519          estimate D2E/DX2                !
 ! A127  A(8,13,17)             83.4873         estimate D2E/DX2                !
 ! A128  A(8,13,18)             86.158          estimate D2E/DX2                !
 ! A129  A(8,13,24)             85.5509         estimate D2E/DX2                !
 ! A130  A(8,13,36)            136.7139         estimate D2E/DX2                !
 ! A131  A(8,13,39)            130.498          estimate D2E/DX2                !
 ! A132  A(10,13,16)           164.4722         estimate D2E/DX2                !
 ! A133  A(10,13,17)            96.3482         estimate D2E/DX2                !
 ! A134  A(10,13,18)           121.4368         estimate D2E/DX2                !
 ! A135  A(10,13,36)            95.0231         estimate D2E/DX2                !
 ! A136  A(10,13,37)            88.7586         estimate D2E/DX2                !
 ! A137  A(10,13,39)           143.2946         estimate D2E/DX2                !
 ! A138  A(16,13,17)            87.1511         estimate D2E/DX2                !
 ! A139  A(16,13,24)           137.8857         estimate D2E/DX2                !
 ! A140  A(16,13,36)            99.1779         estimate D2E/DX2                !
 ! A141  A(16,13,37)           104.4366         estimate D2E/DX2                !
 ! A142  A(17,13,18)           139.3786         estimate D2E/DX2                !
 ! A143  A(17,13,37)           109.0902         estimate D2E/DX2                !
 ! A144  A(17,13,39)            99.7778         estimate D2E/DX2                !
 ! A145  A(18,13,36)           128.4941         estimate D2E/DX2                !
 ! A146  A(18,13,37)            87.6984         estimate D2E/DX2                !
 ! A147  A(24,13,36)            64.9424         estimate D2E/DX2                !
 ! A148  A(24,13,37)            97.5753         estimate D2E/DX2                !
 ! A149  A(24,13,39)           134.4689         estimate D2E/DX2                !
 ! A150  A(36,13,39)            69.5288         estimate D2E/DX2                !
 ! A151  A(12,15,27)            95.9797         estimate D2E/DX2                !
 ! A152  A(27,15,54)            84.7552         estimate D2E/DX2                !
 ! A153  A(24,17,36)            81.3928         estimate D2E/DX2                !
 ! A154  A(7,18,16)            108.126          estimate D2E/DX2                !
 ! A155  A(7,18,19)             94.3205         estimate D2E/DX2                !
 ! A156  A(7,18,20)             97.9438         estimate D2E/DX2                !
 ! A157  A(7,18,39)            103.4418         estimate D2E/DX2                !
 ! A158  A(7,18,40)            102.5388         estimate D2E/DX2                !
 ! A159  A(7,18,42)             86.54           estimate D2E/DX2                !
 ! A160  A(13,18,19)           150.1808         estimate D2E/DX2                !
 ! A161  A(13,18,20)            99.7557         estimate D2E/DX2                !
 ! A162  A(13,18,40)            99.0653         estimate D2E/DX2                !
 ! A163  A(13,18,42)           128.437          estimate D2E/DX2                !
 ! A164  A(16,18,19)           156.7634         estimate D2E/DX2                !
 ! A165  A(16,18,20)            82.2207         estimate D2E/DX2                !
 ! A166  A(16,18,40)            99.6981         estimate D2E/DX2                !
 ! A167  A(16,18,42)           128.8463         estimate D2E/DX2                !
 ! A168  A(19,18,20)            88.9479         estimate D2E/DX2                !
 ! A169  A(19,18,39)           130.8897         estimate D2E/DX2                !
 ! A170  A(19,18,40)            80.6385         estimate D2E/DX2                !
 ! A171  A(20,18,39)           131.8875         estimate D2E/DX2                !
 ! A172  A(20,18,40)           157.6072         estimate D2E/DX2                !
 ! A173  A(40,18,42)           125.2448         estimate D2E/DX2                !
 ! A174  A(6,20,18)             85.2413         estimate D2E/DX2                !
 ! A175  A(5,21,14)            108.8737         estimate D2E/DX2                !
 ! A176  A(5,21,22)            105.3922         estimate D2E/DX2                !
 ! A177  A(5,21,23)            101.2442         estimate D2E/DX2                !
 ! A178  A(5,21,48)             88.6708         estimate D2E/DX2                !
 ! A179  A(5,21,49)             94.1005         estimate D2E/DX2                !
 ! A180  A(5,21,51)             94.6875         estimate D2E/DX2                !
 ! A181  A(12,21,22)            98.6484         estimate D2E/DX2                !
 ! A182  A(12,21,23)           100.286          estimate D2E/DX2                !
 ! A183  A(12,21,48)           129.6039         estimate D2E/DX2                !
 ! A184  A(12,21,49)           148.86           estimate D2E/DX2                !
 ! A185  A(14,21,22)            92.2424         estimate D2E/DX2                !
 ! A186  A(14,21,23)            83.6083         estimate D2E/DX2                !
 ! A187  A(14,21,48)           131.8307         estimate D2E/DX2                !
 ! A188  A(14,21,49)           157.0257         estimate D2E/DX2                !
 ! A189  A(22,21,23)           152.9263         estimate D2E/DX2                !
 ! A190  A(22,21,48)           126.7749         estimate D2E/DX2                !
 ! A191  A(22,21,49)            81.2564         estimate D2E/DX2                !
 ! A192  A(23,21,49)            92.1911         estimate D2E/DX2                !
 ! A193  A(23,21,51)           133.7472         estimate D2E/DX2                !
 ! A194  A(49,21,51)           129.8576         estimate D2E/DX2                !
 ! A195  A(1,23,21)             83.9078         estimate D2E/DX2                !
 ! A196  A(1,23,48)             78.8644         estimate D2E/DX2                !
 ! A197  A(10,24,17)           104.8886         estimate D2E/DX2                !
 ! A198  A(10,24,25)            91.8047         estimate D2E/DX2                !
 ! A199  A(10,24,26)           101.9269         estimate D2E/DX2                !
 ! A200  A(10,24,27)           106.0342         estimate D2E/DX2                !
 ! A201  A(10,24,28)           101.7377         estimate D2E/DX2                !
 ! A202  A(13,24,25)            86.8738         estimate D2E/DX2                !
 ! A203  A(13,24,26)            97.6905         estimate D2E/DX2                !
 ! A204  A(13,24,27)           142.8232         estimate D2E/DX2                !
 ! A205  A(13,24,28)           152.9482         estimate D2E/DX2                !
 ! A206  A(17,24,25)            91.5733         estimate D2E/DX2                !
 ! A207  A(17,24,26)            81.1137         estimate D2E/DX2                !
 ! A208  A(17,24,27)           127.5073         estimate D2E/DX2                !
 ! A209  A(17,24,28)           152.3067         estimate D2E/DX2                !
 ! A210  A(25,24,27)           128.2824         estimate D2E/DX2                !
 ! A211  A(25,24,28)            80.0443         estimate D2E/DX2                !
 ! A212  A(26,24,28)           100.7845         estimate D2E/DX2                !
 ! A213  A(24,25,36)            82.1781         estimate D2E/DX2                !
 ! A214  A(9,26,24)             86.813          estimate D2E/DX2                !
 ! A215  A(9,26,27)             99.9654         estimate D2E/DX2                !
 ! A216  A(11,27,15)            78.6366         estimate D2E/DX2                !
 ! A217  A(11,27,24)            79.2157         estimate D2E/DX2                !
 ! A218  A(11,27,26)            79.5786         estimate D2E/DX2                !
 ! A219  A(11,27,28)            90.5736         estimate D2E/DX2                !
 ! A220  A(11,27,29)           160.1824         estimate D2E/DX2                !
 ! A221  A(11,27,30)           143.3478         estimate D2E/DX2                !
 ! A222  A(11,27,55)            83.3            estimate D2E/DX2                !
 ! A223  A(11,27,57)           128.1296         estimate D2E/DX2                !
 ! A224  A(15,27,24)           122.9332         estimate D2E/DX2                !
 ! A225  A(15,27,26)            74.2638         estimate D2E/DX2                !
 ! A226  A(15,27,29)            82.1115         estimate D2E/DX2                !
 ! A227  A(15,27,30)           136.3647         estimate D2E/DX2                !
 ! A228  A(15,27,55)            87.4585         estimate D2E/DX2                !
 ! A229  A(15,27,57)            79.0905         estimate D2E/DX2                !
 ! A230  A(24,27,29)           107.8733         estimate D2E/DX2                !
 ! A231  A(24,27,30)            71.8469         estimate D2E/DX2                !
 ! A232  A(24,27,55)           140.2948         estimate D2E/DX2                !
 ! A233  A(24,27,57)           150.175          estimate D2E/DX2                !
 ! A234  A(26,27,28)           102.6442         estimate D2E/DX2                !
 ! A235  A(26,27,29)            90.7609         estimate D2E/DX2                !
 ! A236  A(26,27,30)            97.9163         estimate D2E/DX2                !
 ! A237  A(26,27,55)           157.0172         estimate D2E/DX2                !
 ! A238  A(26,27,57)           136.2211         estimate D2E/DX2                !
 ! A239  A(28,27,29)           108.5148         estimate D2E/DX2                !
 ! A240  A(28,27,55)            92.6942         estimate D2E/DX2                !
 ! A241  A(28,27,57)           109.1647         estimate D2E/DX2                !
 ! A242  A(29,27,55)           100.5809         estimate D2E/DX2                !
 ! A243  A(30,27,55)           104.9638         estimate D2E/DX2                !
 ! A244  A(30,27,57)            78.3371         estimate D2E/DX2                !
 ! A245  A(24,28,30)            90.826          estimate D2E/DX2                !
 ! A246  A(30,29,57)            98.9652         estimate D2E/DX2                !
 ! A247  A(27,30,31)           116.4482         estimate D2E/DX2                !
 ! A248  A(27,30,32)           107.1964         estimate D2E/DX2                !
 ! A249  A(27,30,34)           132.8838         estimate D2E/DX2                !
 ! A250  A(28,30,29)           104.947          estimate D2E/DX2                !
 ! A251  A(28,30,31)           108.763          estimate D2E/DX2                !
 ! A252  A(28,30,32)           128.0242         estimate D2E/DX2                !
 ! A253  A(28,30,34)            83.3688         estimate D2E/DX2                !
 ! A254  A(29,30,31)            98.8455         estimate D2E/DX2                !
 ! A255  A(29,30,32)            77.9733         estimate D2E/DX2                !
 ! A256  A(31,30,32)           122.2333         estimate D2E/DX2                !
 ! A257  A(31,30,34)            88.1065         estimate D2E/DX2                !
 ! A258  A(32,30,34)            88.6197         estimate D2E/DX2                !
 ! A259  A(30,32,33)            86.1862         estimate D2E/DX2                !
 ! A260  A(32,33,34)           102.8437         estimate D2E/DX2                !
 ! A261  A(32,33,35)           109.7367         estimate D2E/DX2                !
 ! A262  A(32,33,59)           112.6763         estimate D2E/DX2                !
 ! A263  A(34,33,35)           109.2046         estimate D2E/DX2                !
 ! A264  A(34,33,59)           113.5424         estimate D2E/DX2                !
 ! A265  A(35,33,59)           108.6826         estimate D2E/DX2                !
 ! A266  A(30,34,33)            82.1131         estimate D2E/DX2                !
 ! A267  A(33,35,36)           119.1424         estimate D2E/DX2                !
 ! A268  A(13,36,25)           100.6668         estimate D2E/DX2                !
 ! A269  A(13,36,35)           142.2455         estimate D2E/DX2                !
 ! A270  A(13,36,38)           111.1849         estimate D2E/DX2                !
 ! A271  A(17,36,25)           101.2608         estimate D2E/DX2                !
 ! A272  A(17,36,35)            85.8573         estimate D2E/DX2                !
 ! A273  A(17,36,37)           112.6139         estimate D2E/DX2                !
 ! A274  A(17,36,38)           119.6682         estimate D2E/DX2                !
 ! A275  A(25,36,35)            88.5696         estimate D2E/DX2                !
 ! A276  A(25,36,37)            89.9702         estimate D2E/DX2                !
 ! A277  A(25,36,38)           137.3565         estimate D2E/DX2                !
 ! A278  A(35,36,37)           161.379          estimate D2E/DX2                !
 ! A279  A(35,36,38)            83.3007         estimate D2E/DX2                !
 ! A280  A(37,36,38)            85.2423         estimate D2E/DX2                !
 ! A281  A(36,37,39)            82.0713         estimate D2E/DX2                !
 ! A282  A(36,38,39)            83.9743         estimate D2E/DX2                !
 ! A283  A(13,39,38)            94.4027         estimate D2E/DX2                !
 ! A284  A(13,39,40)            98.1724         estimate D2E/DX2                !
 ! A285  A(13,39,41)           152.6597         estimate D2E/DX2                !
 ! A286  A(16,39,37)           105.0942         estimate D2E/DX2                !
 ! A287  A(16,39,38)           113.7185         estimate D2E/DX2                !
 ! A288  A(16,39,40)           102.2748         estimate D2E/DX2                !
 ! A289  A(16,39,41)           102.6826         estimate D2E/DX2                !
 ! A290  A(18,39,37)            86.2837         estimate D2E/DX2                !
 ! A291  A(18,39,38)           154.3169         estimate D2E/DX2                !
 ! A292  A(18,39,41)           119.5819         estimate D2E/DX2                !
 ! A293  A(37,39,38)            75.5907         estimate D2E/DX2                !
 ! A294  A(37,39,40)            84.5735         estimate D2E/DX2                !
 ! A295  A(37,39,41)           150.1285         estimate D2E/DX2                !
 ! A296  A(38,39,40)           142.2131         estimate D2E/DX2                !
 ! A297  A(38,39,41)            83.39           estimate D2E/DX2                !
 ! A298  A(40,39,41)           100.1132         estimate D2E/DX2                !
 ! A299  A(6,42,18)             68.5623         estimate D2E/DX2                !
 ! A300  A(6,42,19)            112.2335         estimate D2E/DX2                !
 ! A301  A(6,42,43)            136.5054         estimate D2E/DX2                !
 ! A302  A(18,42,43)           142.9686         estimate D2E/DX2                !
 ! A303  A(18,42,44)           103.1618         estimate D2E/DX2                !
 ! A304  A(19,42,20)           104.3426         estimate D2E/DX2                !
 ! A305  A(19,42,43)           111.259          estimate D2E/DX2                !
 ! A306  A(19,42,44)           104.0853         estimate D2E/DX2                !
 ! A307  A(20,42,43)           112.1605         estimate D2E/DX2                !
 ! A308  A(20,42,44)           110.5215         estimate D2E/DX2                !
 ! A309  A(43,42,44)           113.7723         estimate D2E/DX2                !
 ! A310  A(42,44,45)            96.3024         estimate D2E/DX2                !
 ! A311  A(1,45,44)            105.6491         estimate D2E/DX2                !
 ! A312  A(1,45,47)            135.2737         estimate D2E/DX2                !
 ! A313  A(3,45,44)            113.5421         estimate D2E/DX2                !
 ! A314  A(3,45,46)            114.1706         estimate D2E/DX2                !
 ! A315  A(3,45,47)            103.3886         estimate D2E/DX2                !
 ! A316  A(6,45,46)            106.204          estimate D2E/DX2                !
 ! A317  A(6,45,47)            140.3943         estimate D2E/DX2                !
 ! A318  A(44,45,46)            93.8804         estimate D2E/DX2                !
 ! A319  A(44,45,47)           119.0565         estimate D2E/DX2                !
 ! A320  A(46,45,47)           113.3018         estimate D2E/DX2                !
 ! A321  A(1,46,48)             78.5836         estimate D2E/DX2                !
 ! A322  A(45,46,48)           101.3695         estimate D2E/DX2                !
 ! A323  A(21,48,46)           103.5358         estimate D2E/DX2                !
 ! A324  A(21,48,50)           140.5548         estimate D2E/DX2                !
 ! A325  A(23,48,46)           108.0058         estimate D2E/DX2                !
 ! A326  A(23,48,49)           104.8268         estimate D2E/DX2                !
 ! A327  A(23,48,50)           111.5284         estimate D2E/DX2                !
 ! A328  A(46,48,49)           106.4409         estimate D2E/DX2                !
 ! A329  A(46,48,50)           115.8932         estimate D2E/DX2                !
 ! A330  A(49,48,50)           109.4601         estimate D2E/DX2                !
 ! A331  A(12,51,22)           109.8652         estimate D2E/DX2                !
 ! A332  A(12,51,53)           110.8911         estimate D2E/DX2                !
 ! A333  A(14,51,22)           101.3834         estimate D2E/DX2                !
 ! A334  A(14,51,52)           114.9079         estimate D2E/DX2                !
 ! A335  A(14,51,53)           100.0932         estimate D2E/DX2                !
 ! A336  A(14,51,54)            92.6842         estimate D2E/DX2                !
 ! A337  A(21,51,52)            94.7191         estimate D2E/DX2                !
 ! A338  A(21,51,53)           154.0107         estimate D2E/DX2                !
 ! A339  A(21,51,54)           122.2684         estimate D2E/DX2                !
 ! A340  A(22,51,52)           100.6198         estimate D2E/DX2                !
 ! A341  A(22,51,53)           139.2437         estimate D2E/DX2                !
 ! A342  A(22,51,54)           154.8535         estimate D2E/DX2                !
 ! A343  A(52,51,53)           101.0923         estimate D2E/DX2                !
 ! A344  A(12,54,53)            99.1812         estimate D2E/DX2                !
 ! A345  A(12,54,55)           102.2106         estimate D2E/DX2                !
 ! A346  A(12,54,56)           145.9034         estimate D2E/DX2                !
 ! A347  A(12,54,57)           131.4307         estimate D2E/DX2                !
 ! A348  A(15,54,51)            96.8795         estimate D2E/DX2                !
 ! A349  A(15,54,52)           108.8915         estimate D2E/DX2                !
 ! A350  A(15,54,53)           109.8407         estimate D2E/DX2                !
 ! A351  A(15,54,55)           101.142          estimate D2E/DX2                !
 ! A352  A(15,54,56)            91.7124         estimate D2E/DX2                !
 ! A353  A(15,54,57)            87.6265         estimate D2E/DX2                !
 ! A354  A(51,54,55)           133.6602         estimate D2E/DX2                !
 ! A355  A(51,54,56)           127.4871         estimate D2E/DX2                !
 ! A356  A(52,54,53)            90.9682         estimate D2E/DX2                !
 ! A357  A(52,54,55)            83.5828         estimate D2E/DX2                !
 ! A358  A(52,54,56)           159.3222         estimate D2E/DX2                !
 ! A359  A(52,54,57)           133.2342         estimate D2E/DX2                !
 ! A360  A(53,54,55)           148.6048         estimate D2E/DX2                !
 ! A361  A(53,54,56)            80.045          estimate D2E/DX2                !
 ! A362  A(53,54,57)           125.0035         estimate D2E/DX2                !
 ! A363  A(55,54,56)            94.3896         estimate D2E/DX2                !
 ! A364  A(27,55,54)            86.642          estimate D2E/DX2                !
 ! A365  A(27,57,54)            69.1162         estimate D2E/DX2                !
 ! A366  A(27,57,56)           112.9225         estimate D2E/DX2                !
 ! A367  A(27,57,58)           141.2406         estimate D2E/DX2                !
 ! A368  A(29,57,54)           102.6991         estimate D2E/DX2                !
 ! A369  A(29,57,55)           106.7319         estimate D2E/DX2                !
 ! A370  A(29,57,56)           105.2114         estimate D2E/DX2                !
 ! A371  A(29,57,58)           120.4419         estimate D2E/DX2                !
 ! A372  A(54,57,58)           136.6415         estimate D2E/DX2                !
 ! A373  A(55,57,56)           105.1723         estimate D2E/DX2                !
 ! A374  A(55,57,58)           112.3961         estimate D2E/DX2                !
 ! A375  A(56,57,58)           105.6437         estimate D2E/DX2                !
 ! A376  L(2,1,46,3,-1)        188.454          estimate D2E/DX2                !
 ! A377  L(3,1,5,2,-1)         168.756          estimate D2E/DX2                !
 ! A378  L(4,1,23,2,-1)        178.0172         estimate D2E/DX2                !
 ! A379  L(3,6,7,4,-1)         185.0887         estimate D2E/DX2                !
 ! A380  L(4,6,20,3,-1)        190.9055         estimate D2E/DX2                !
 ! A381  L(8,6,44,1,-1)        191.7579         estimate D2E/DX2                !
 ! A382  L(9,6,42,7,-1)        169.918          estimate D2E/DX2                !
 ! A383  L(2,9,10,4,-1)        187.3041         estimate D2E/DX2                !
 ! A384  L(2,12,52,5,-1)       173.739          estimate D2E/DX2                !
 ! A385  L(5,12,15,2,-1)       169.881          estimate D2E/DX2                !
 ! A386  L(11,12,14,2,-1)      169.2751         estimate D2E/DX2                !
 ! A387  L(8,13,37,7,-1)       166.6581         estimate D2E/DX2                !
 ! A388  L(18,13,24,8,-1)      171.7089         estimate D2E/DX2                !
 ! A389  L(39,18,42,7,-1)      189.9819         estimate D2E/DX2                !
 ! A390  L(48,21,51,5,-1)      183.3583         estimate D2E/DX2                !
 ! A391  L(25,24,26,10,-1)     193.7316         estimate D2E/DX2                !
 ! A392  L(15,27,28,11,-1)     169.2102         estimate D2E/DX2                !
 ! A393  L(29,30,34,28,-1)     188.3158         estimate D2E/DX2                !
 ! A394  L(51,54,57,15,-1)     184.506          estimate D2E/DX2                !
 ! A395  L(2,1,46,3,-2)        188.5913         estimate D2E/DX2                !
 ! A396  L(3,1,5,2,-2)         179.3871         estimate D2E/DX2                !
 ! A397  L(4,1,23,2,-2)        194.5048         estimate D2E/DX2                !
 ! A398  L(3,6,7,4,-2)         190.5875         estimate D2E/DX2                !
 ! A399  L(4,6,20,3,-2)        174.9276         estimate D2E/DX2                !
 ! A400  L(8,6,44,1,-2)        187.4962         estimate D2E/DX2                !
 ! A401  L(9,6,42,7,-2)        185.3468         estimate D2E/DX2                !
 ! A402  L(2,9,10,4,-2)        183.544          estimate D2E/DX2                !
 ! A403  L(2,12,52,5,-2)       173.642          estimate D2E/DX2                !
 ! A404  L(5,12,15,2,-2)       190.4744         estimate D2E/DX2                !
 ! A405  L(11,12,14,2,-2)      187.8739         estimate D2E/DX2                !
 ! A406  L(8,13,37,7,-2)       183.9005         estimate D2E/DX2                !
 ! A407  L(18,13,24,8,-2)      167.6144         estimate D2E/DX2                !
 ! A408  L(39,18,42,7,-2)      182.1194         estimate D2E/DX2                !
 ! A409  L(48,21,51,5,-2)      183.5325         estimate D2E/DX2                !
 ! A410  L(25,24,26,10,-2)     184.0455         estimate D2E/DX2                !
 ! A411  L(15,27,28,11,-2)     178.6113         estimate D2E/DX2                !
 ! A412  L(29,30,34,28,-2)     169.2822         estimate D2E/DX2                !
 ! A413  L(51,54,57,15,-2)     174.596          estimate D2E/DX2                !
 ! D1    D(3,1,2,12)           178.1314         estimate D2E/DX2                !
 ! D2    D(4,1,2,12)           -78.1495         estimate D2E/DX2                !
 ! D3    D(5,1,2,12)            -1.2557         estimate D2E/DX2                !
 ! D4    D(6,1,2,12)          -131.3823         estimate D2E/DX2                !
 ! D5    D(23,1,2,12)           87.3457         estimate D2E/DX2                !
 ! D6    D(45,1,2,12)         -178.8992         estimate D2E/DX2                !
 ! D7    D(2,1,5,12)             1.3273         estimate D2E/DX2                !
 ! D8    D(2,1,5,21)            76.3014         estimate D2E/DX2                !
 ! D9    D(4,1,5,12)           102.4715         estimate D2E/DX2                !
 ! D10   D(4,1,5,21)           177.4456         estimate D2E/DX2                !
 ! D11   D(6,1,5,12)            95.2646         estimate D2E/DX2                !
 ! D12   D(6,1,5,21)           170.2387         estimate D2E/DX2                !
 ! D13   D(9,1,5,12)            49.9326         estimate D2E/DX2                !
 ! D14   D(9,1,5,21)           124.9067         estimate D2E/DX2                !
 ! D15   D(23,1,5,12)          -76.6114         estimate D2E/DX2                !
 ! D16   D(23,1,5,21)           -1.6373         estimate D2E/DX2                !
 ! D17   D(45,1,5,12)          178.8721         estimate D2E/DX2                !
 ! D18   D(45,1,5,21)         -106.1537         estimate D2E/DX2                !
 ! D19   D(46,1,5,12)         -170.4918         estimate D2E/DX2                !
 ! D20   D(46,1,5,21)          -95.5177         estimate D2E/DX2                !
 ! D21   D(2,1,6,7)             90.572          estimate D2E/DX2                !
 ! D22   D(2,1,6,8)              5.951          estimate D2E/DX2                !
 ! D23   D(2,1,6,20)           -74.6106         estimate D2E/DX2                !
 ! D24   D(2,1,6,42)          -144.7923         estimate D2E/DX2                !
 ! D25   D(2,1,6,44)           178.4548         estimate D2E/DX2                !
 ! D26   D(5,1,6,7)              0.499          estimate D2E/DX2                !
 ! D27   D(5,1,6,8)            -84.122          estimate D2E/DX2                !
 ! D28   D(5,1,6,20)          -164.6837         estimate D2E/DX2                !
 ! D29   D(5,1,6,42)           125.1346         estimate D2E/DX2                !
 ! D30   D(5,1,6,44)            88.3817         estimate D2E/DX2                !
 ! D31   D(23,1,6,7)           167.5003         estimate D2E/DX2                !
 ! D32   D(23,1,6,8)            82.8793         estimate D2E/DX2                !
 ! D33   D(23,1,6,20)            2.3177         estimate D2E/DX2                !
 ! D34   D(23,1,6,42)          -67.8641         estimate D2E/DX2                !
 ! D35   D(23,1,6,44)         -104.6169         estimate D2E/DX2                !
 ! D36   D(46,1,6,7)           -88.0763         estimate D2E/DX2                !
 ! D37   D(46,1,6,8)          -172.6973         estimate D2E/DX2                !
 ! D38   D(46,1,6,20)          106.7411         estimate D2E/DX2                !
 ! D39   D(46,1,6,42)           36.5593         estimate D2E/DX2                !
 ! D40   D(46,1,6,44)           -0.1935         estimate D2E/DX2                !
 ! D41   D(3,1,9,8)            -12.1345         estimate D2E/DX2                !
 ! D42   D(3,1,9,10)          -103.8502         estimate D2E/DX2                !
 ! D43   D(3,1,9,11)           169.4575         estimate D2E/DX2                !
 ! D44   D(3,1,9,26)            76.6267         estimate D2E/DX2                !
 ! D45   D(5,1,9,8)            176.6825         estimate D2E/DX2                !
 ! D46   D(5,1,9,10)            84.9668         estimate D2E/DX2                !
 ! D47   D(5,1,9,11)            -1.7256         estimate D2E/DX2                !
 ! D48   D(5,1,9,26)           -94.5563         estimate D2E/DX2                !
 ! D49   D(23,1,9,8)          -100.7212         estimate D2E/DX2                !
 ! D50   D(23,1,9,10)          167.563          estimate D2E/DX2                !
 ! D51   D(23,1,9,11)           80.8707         estimate D2E/DX2                !
 ! D52   D(23,1,9,26)          -11.9601         estimate D2E/DX2                !
 ! D53   D(45,1,9,8)            34.0416         estimate D2E/DX2                !
 ! D54   D(45,1,9,10)          -57.6741         estimate D2E/DX2                !
 ! D55   D(45,1,9,11)         -144.3665         estimate D2E/DX2                !
 ! D56   D(45,1,9,26)          122.8028         estimate D2E/DX2                !
 ! D57   D(46,1,9,8)           102.4086         estimate D2E/DX2                !
 ! D58   D(46,1,9,10)           10.6928         estimate D2E/DX2                !
 ! D59   D(46,1,9,11)          -75.9995         estimate D2E/DX2                !
 ! D60   D(46,1,9,26)         -168.8303         estimate D2E/DX2                !
 ! D61   D(2,1,23,21)          -85.6243         estimate D2E/DX2                !
 ! D62   D(2,1,23,48)         -164.8451         estimate D2E/DX2                !
 ! D63   D(3,1,23,21)         -167.6245         estimate D2E/DX2                !
 ! D64   D(3,1,23,48)          113.1547         estimate D2E/DX2                !
 ! D65   D(5,1,23,21)            1.5108         estimate D2E/DX2                !
 ! D66   D(5,1,23,48)          -77.71           estimate D2E/DX2                !
 ! D67   D(6,1,23,21)         -168.5954         estimate D2E/DX2                !
 ! D68   D(6,1,23,48)          112.1838         estimate D2E/DX2                !
 ! D69   D(9,1,23,21)          -78.7619         estimate D2E/DX2                !
 ! D70   D(9,1,23,48)         -157.9827         estimate D2E/DX2                !
 ! D71   D(45,1,23,21)         139.884          estimate D2E/DX2                !
 ! D72   D(45,1,23,48)          60.6632         estimate D2E/DX2                !
 ! D73   D(46,1,23,21)          85.932          estimate D2E/DX2                !
 ! D74   D(46,1,23,48)           6.7112         estimate D2E/DX2                !
 ! D75   D(2,1,45,44)          104.4932         estimate D2E/DX2                !
 ! D76   D(2,1,45,47)          -77.2559         estimate D2E/DX2                !
 ! D77   D(4,1,45,44)           -0.2622         estimate D2E/DX2                !
 ! D78   D(4,1,45,47)          177.9886         estimate D2E/DX2                !
 ! D79   D(5,1,45,44)          -72.0098         estimate D2E/DX2                !
 ! D80   D(5,1,45,47)          106.2411         estimate D2E/DX2                !
 ! D81   D(9,1,45,44)           44.4087         estimate D2E/DX2                !
 ! D82   D(9,1,45,47)         -137.3405         estimate D2E/DX2                !
 ! D83   D(23,1,45,44)        -171.4732         estimate D2E/DX2                !
 ! D84   D(23,1,45,47)           6.7777         estimate D2E/DX2                !
 ! D85   D(3,1,46,48)          -96.6734         estimate D2E/DX2                !
 ! D86   D(4,1,46,48)          159.0559         estimate D2E/DX2                !
 ! D87   D(5,1,46,48)           81.0418         estimate D2E/DX2                !
 ! D88   D(6,1,46,48)         -149.0092         estimate D2E/DX2                !
 ! D89   D(9,1,46,48)          154.8659         estimate D2E/DX2                !
 ! D90   D(23,1,46,48)          -6.5504         estimate D2E/DX2                !
 ! D91   D(12,2,9,4)            86.5256         estimate D2E/DX2                !
 ! D92   D(12,2,9,6)           137.8963         estimate D2E/DX2                !
 ! D93   D(12,2,9,8)          -169.0937         estimate D2E/DX2                !
 ! D94   D(12,2,9,11)          -10.0065         estimate D2E/DX2                !
 ! D95   D(12,2,9,26)          -87.9381         estimate D2E/DX2                !
 ! D96   D(1,2,12,5)             1.3499         estimate D2E/DX2                !
 ! D97   D(1,2,12,11)           85.8279         estimate D2E/DX2                !
 ! D98   D(1,2,12,14)         -102.0459         estimate D2E/DX2                !
 ! D99   D(1,2,12,15)          170.8754         estimate D2E/DX2                !
 ! D100  D(1,2,12,21)          -47.9088         estimate D2E/DX2                !
 ! D101  D(1,2,12,51)          -95.6099         estimate D2E/DX2                !
 ! D102  D(1,2,12,54)          173.5189         estimate D2E/DX2                !
 ! D103  D(9,2,12,5)           -74.9744         estimate D2E/DX2                !
 ! D104  D(9,2,12,11)            9.5037         estimate D2E/DX2                !
 ! D105  D(9,2,12,14)         -178.3702         estimate D2E/DX2                !
 ! D106  D(9,2,12,15)           94.5512         estimate D2E/DX2                !
 ! D107  D(9,2,12,21)         -124.2331         estimate D2E/DX2                !
 ! D108  D(9,2,12,51)         -171.9341         estimate D2E/DX2                !
 ! D109  D(9,2,12,54)           97.1946         estimate D2E/DX2                !
 ! D110  D(1,3,6,45)            73.8034         estimate D2E/DX2                !
 ! D111  D(1,4,6,9)             78.0526         estimate D2E/DX2                !
 ! D112  D(1,5,12,2)            -1.265          estimate D2E/DX2                !
 ! D113  D(1,5,12,11)          -90.2636         estimate D2E/DX2                !
 ! D114  D(1,5,12,14)           78.5145         estimate D2E/DX2                !
 ! D115  D(1,5,12,51)          132.3988         estimate D2E/DX2                !
 ! D116  D(1,5,12,52)         -174.907          estimate D2E/DX2                !
 ! D117  D(1,5,12,54)         -172.0            estimate D2E/DX2                !
 ! D118  D(1,5,21,14)          -85.2526         estimate D2E/DX2                !
 ! D119  D(1,5,21,22)          176.8729         estimate D2E/DX2                !
 ! D120  D(1,5,21,23)            1.7674         estimate D2E/DX2                !
 ! D121  D(1,5,21,48)           48.941          estimate D2E/DX2                !
 ! D122  D(1,5,21,49)           94.8246         estimate D2E/DX2                !
 ! D123  D(1,5,21,51)         -134.5915         estimate D2E/DX2                !
 ! D124  D(1,6,7,13)           -94.4586         estimate D2E/DX2                !
 ! D125  D(1,6,7,18)          -170.4622         estimate D2E/DX2                !
 ! D126  D(4,6,7,13)          -101.0753         estimate D2E/DX2                !
 ! D127  D(4,6,7,18)          -177.0788         estimate D2E/DX2                !
 ! D128  D(8,6,7,13)            -3.7412         estimate D2E/DX2                !
 ! D129  D(8,6,7,18)           -79.7447         estimate D2E/DX2                !
 ! D130  D(9,6,7,13)           -51.4371         estimate D2E/DX2                !
 ! D131  D(9,6,7,18)          -127.4406         estimate D2E/DX2                !
 ! D132  D(20,6,7,13)           75.9286         estimate D2E/DX2                !
 ! D133  D(20,6,7,18)           -0.075          estimate D2E/DX2                !
 ! D134  D(42,6,7,13)          123.2161         estimate D2E/DX2                !
 ! D135  D(42,6,7,18)           47.2126         estimate D2E/DX2                !
 ! D136  D(44,6,7,13)          172.648          estimate D2E/DX2                !
 ! D137  D(44,6,7,18)           96.6444         estimate D2E/DX2                !
 ! D138  D(45,6,7,13)         -179.7834         estimate D2E/DX2                !
 ! D139  D(45,6,7,18)          104.2131         estimate D2E/DX2                !
 ! D140  D(1,6,8,13)           135.9959         estimate D2E/DX2                !
 ! D141  D(3,6,8,13)          -172.4276         estimate D2E/DX2                !
 ! D142  D(4,6,8,13)            83.9294         estimate D2E/DX2                !
 ! D143  D(7,6,8,13)             3.6852         estimate D2E/DX2                !
 ! D144  D(20,6,8,13)          -84.8887         estimate D2E/DX2                !
 ! D145  D(42,6,8,13)          -69.8298         estimate D2E/DX2                !
 ! D146  D(45,6,8,13)          179.5457         estimate D2E/DX2                !
 ! D147  D(3,6,9,2)              5.0212         estimate D2E/DX2                !
 ! D148  D(3,6,9,10)          -171.492          estimate D2E/DX2                !
 ! D149  D(3,6,9,11)           121.1102         estimate D2E/DX2                !
 ! D150  D(3,6,9,26)           -90.2507         estimate D2E/DX2                !
 ! D151  D(7,6,9,2)            174.3419         estimate D2E/DX2                !
 ! D152  D(7,6,9,10)            -2.1713         estimate D2E/DX2                !
 ! D153  D(7,6,9,11)           -69.5691         estimate D2E/DX2                !
 ! D154  D(7,6,9,26)            79.07           estimate D2E/DX2                !
 ! D155  D(20,6,9,2)            88.8933         estimate D2E/DX2                !
 ! D156  D(20,6,9,10)          -87.6199         estimate D2E/DX2                !
 ! D157  D(20,6,9,11)         -155.0177         estimate D2E/DX2                !
 ! D158  D(20,6,9,26)           -6.3786         estimate D2E/DX2                !
 ! D159  D(44,6,9,2)          -104.8564         estimate D2E/DX2                !
 ! D160  D(44,6,9,10)           78.6304         estimate D2E/DX2                !
 ! D161  D(44,6,9,11)           11.2326         estimate D2E/DX2                !
 ! D162  D(44,6,9,26)          159.8717         estimate D2E/DX2                !
 ! D163  D(45,6,9,2)           -41.4446         estimate D2E/DX2                !
 ! D164  D(45,6,9,10)          142.0423         estimate D2E/DX2                !
 ! D165  D(45,6,9,11)           74.6444         estimate D2E/DX2                !
 ! D166  D(45,6,9,26)         -136.7165         estimate D2E/DX2                !
 ! D167  D(1,6,20,18)          169.2091         estimate D2E/DX2                !
 ! D168  D(3,6,20,18)          170.0692         estimate D2E/DX2                !
 ! D169  D(7,6,20,18)            0.0667         estimate D2E/DX2                !
 ! D170  D(8,6,20,18)           82.5144         estimate D2E/DX2                !
 ! D171  D(9,6,20,18)           86.2923         estimate D2E/DX2                !
 ! D172  D(44,6,20,18)         -84.0487         estimate D2E/DX2                !
 ! D173  D(45,6,20,18)        -138.2541         estimate D2E/DX2                !
 ! D174  D(1,6,42,18)         -176.9762         estimate D2E/DX2                !
 ! D175  D(1,6,42,19)         -143.8976         estimate D2E/DX2                !
 ! D176  D(1,6,42,43)           36.698          estimate D2E/DX2                !
 ! D177  D(3,6,42,18)          133.9684         estimate D2E/DX2                !
 ! D178  D(3,6,42,19)          167.047          estimate D2E/DX2                !
 ! D179  D(3,6,42,43)          -12.3574         estimate D2E/DX2                !
 ! D180  D(4,6,42,18)         -104.1729         estimate D2E/DX2                !
 ! D181  D(4,6,42,19)          -71.0943         estimate D2E/DX2                !
 ! D182  D(4,6,42,43)          109.5014         estimate D2E/DX2                !
 ! D183  D(7,6,42,18)          -34.7466         estimate D2E/DX2                !
 ! D184  D(7,6,42,19)           -1.668          estimate D2E/DX2                !
 ! D185  D(7,6,42,43)          178.9276         estimate D2E/DX2                !
 ! D186  D(8,6,42,18)           39.2032         estimate D2E/DX2                !
 ! D187  D(8,6,42,19)           72.2818         estimate D2E/DX2                !
 ! D188  D(8,6,42,43)         -107.1226         estimate D2E/DX2                !
 ! D189  D(45,6,42,18)        -179.1698         estimate D2E/DX2                !
 ! D190  D(45,6,42,19)        -146.0912         estimate D2E/DX2                !
 ! D191  D(45,6,42,43)          34.5044         estimate D2E/DX2                !
 ! D192  D(4,6,45,46)           -0.4079         estimate D2E/DX2                !
 ! D193  D(4,6,45,47)          175.4479         estimate D2E/DX2                !
 ! D194  D(7,6,45,46)           75.359          estimate D2E/DX2                !
 ! D195  D(7,6,45,47)         -108.7852         estimate D2E/DX2                !
 ! D196  D(8,6,45,46)          -98.5336         estimate D2E/DX2                !
 ! D197  D(8,6,45,47)           77.3222         estimate D2E/DX2                !
 ! D198  D(9,6,45,46)          -44.1824         estimate D2E/DX2                !
 ! D199  D(9,6,45,47)          131.6734         estimate D2E/DX2                !
 ! D200  D(20,6,45,46)         174.1199         estimate D2E/DX2                !
 ! D201  D(20,6,45,47)         -10.0243         estimate D2E/DX2                !
 ! D202  D(42,6,45,46)         134.1842         estimate D2E/DX2                !
 ! D203  D(42,6,45,47)         -49.96           estimate D2E/DX2                !
 ! D204  D(6,7,13,8)             3.596          estimate D2E/DX2                !
 ! D205  D(6,7,13,10)           89.3214         estimate D2E/DX2                !
 ! D206  D(6,7,13,16)          -76.5498         estimate D2E/DX2                !
 ! D207  D(6,7,13,17)           34.1765         estimate D2E/DX2                !
 ! D208  D(6,7,13,24)           84.2378         estimate D2E/DX2                !
 ! D209  D(6,7,13,36)          168.3791         estimate D2E/DX2                !
 ! D210  D(6,7,13,37)          179.6955         estimate D2E/DX2                !
 ! D211  D(6,7,13,39)         -126.5892         estimate D2E/DX2                !
 ! D212  D(6,7,18,16)           84.4458         estimate D2E/DX2                !
 ! D213  D(6,7,18,19)          -89.4617         estimate D2E/DX2                !
 ! D214  D(6,7,18,20)            0.0771         estimate D2E/DX2                !
 ! D215  D(6,7,18,39)          136.6689         estimate D2E/DX2                !
 ! D216  D(6,7,18,40)         -170.8168         estimate D2E/DX2                !
 ! D217  D(6,7,18,42)          -45.4504         estimate D2E/DX2                !
 ! D218  D(13,8,9,1)          -134.6384         estimate D2E/DX2                !
 ! D219  D(13,8,9,2)           169.8716         estimate D2E/DX2                !
 ! D220  D(13,8,9,4)           -81.5082         estimate D2E/DX2                !
 ! D221  D(13,8,9,10)           -2.1733         estimate D2E/DX2                !
 ! D222  D(13,8,9,11)           41.944          estimate D2E/DX2                !
 ! D223  D(13,8,9,26)           81.7386         estimate D2E/DX2                !
 ! D224  D(6,8,13,7)            -3.8506         estimate D2E/DX2                !
 ! D225  D(6,8,13,10)          -78.4627         estimate D2E/DX2                !
 ! D226  D(6,8,13,16)           96.3237         estimate D2E/DX2                !
 ! D227  D(6,8,13,17)         -175.5993         estimate D2E/DX2                !
 ! D228  D(6,8,13,18)           43.7455         estimate D2E/DX2                !
 ! D229  D(6,8,13,24)         -123.869          estimate D2E/DX2                !
 ! D230  D(6,8,13,36)         -169.2664         estimate D2E/DX2                !
 ! D231  D(6,8,13,39)           87.088          estimate D2E/DX2                !
 ! D232  D(9,8,13,7)            76.9605         estimate D2E/DX2                !
 ! D233  D(9,8,13,10)            2.3484         estimate D2E/DX2                !
 ! D234  D(9,8,13,16)          177.1348         estimate D2E/DX2                !
 ! D235  D(9,8,13,17)          -94.7881         estimate D2E/DX2                !
 ! D236  D(9,8,13,18)          124.5566         estimate D2E/DX2                !
 ! D237  D(9,8,13,24)          -43.0579         estimate D2E/DX2                !
 ! D238  D(9,8,13,36)          -88.4553         estimate D2E/DX2                !
 ! D239  D(9,8,13,39)          167.8991         estimate D2E/DX2                !
 ! D240  D(1,9,10,13)          100.5755         estimate D2E/DX2                !
 ! D241  D(1,9,10,24)         -179.5203         estimate D2E/DX2                !
 ! D242  D(4,9,10,13)          104.8862         estimate D2E/DX2                !
 ! D243  D(4,9,10,24)         -175.2096         estimate D2E/DX2                !
 ! D244  D(6,9,10,13)           54.4888         estimate D2E/DX2                !
 ! D245  D(6,9,10,24)          134.393          estimate D2E/DX2                !
 ! D246  D(8,9,10,13)            2.1668         estimate D2E/DX2                !
 ! D247  D(8,9,10,24)           82.071          estimate D2E/DX2                !
 ! D248  D(11,9,10,13)        -159.1839         estimate D2E/DX2                !
 ! D249  D(11,9,10,24)         -79.2797         estimate D2E/DX2                !
 ! D250  D(26,9,10,13)         -79.7062         estimate D2E/DX2                !
 ! D251  D(26,9,10,24)           0.198          estimate D2E/DX2                !
 ! D252  D(1,9,11,12)          -45.7065         estimate D2E/DX2                !
 ! D253  D(1,9,11,27)         -143.2678         estimate D2E/DX2                !
 ! D254  D(2,9,11,12)           10.3065         estimate D2E/DX2                !
 ! D255  D(2,9,11,27)          -87.2548         estimate D2E/DX2                !
 ! D256  D(4,9,11,12)          -97.1604         estimate D2E/DX2                !
 ! D257  D(4,9,11,27)          165.2783         estimate D2E/DX2                !
 ! D258  D(6,9,11,12)         -104.9715         estimate D2E/DX2                !
 ! D259  D(6,9,11,27)          157.4672         estimate D2E/DX2                !
 ! D260  D(8,9,11,12)          137.808          estimate D2E/DX2                !
 ! D261  D(8,9,11,27)           40.2467         estimate D2E/DX2                !
 ! D262  D(10,9,11,12)        -176.7156         estimate D2E/DX2                !
 ! D263  D(10,9,11,27)          85.7231         estimate D2E/DX2                !
 ! D264  D(26,9,11,12)          97.5439         estimate D2E/DX2                !
 ! D265  D(26,9,11,27)          -0.0174         estimate D2E/DX2                !
 ! D266  D(1,9,26,24)          179.4642         estimate D2E/DX2                !
 ! D267  D(1,9,26,27)          102.1774         estimate D2E/DX2                !
 ! D268  D(2,9,26,24)          177.017          estimate D2E/DX2                !
 ! D269  D(2,9,26,27)           99.7302         estimate D2E/DX2                !
 ! D270  D(4,9,26,24)           15.7351         estimate D2E/DX2                !
 ! D271  D(4,9,26,27)          -61.5517         estimate D2E/DX2                !
 ! D272  D(6,9,26,24)          -84.6146         estimate D2E/DX2                !
 ! D273  D(6,9,26,27)         -161.9014         estimate D2E/DX2                !
 ! D274  D(8,9,26,24)          -85.7212         estimate D2E/DX2                !
 ! D275  D(8,9,26,27)         -163.008          estimate D2E/DX2                !
 ! D276  D(10,9,26,24)          -0.183          estimate D2E/DX2                !
 ! D277  D(10,9,26,27)         -77.4698         estimate D2E/DX2                !
 ! D278  D(11,9,26,24)          77.305          estimate D2E/DX2                !
 ! D279  D(11,9,26,27)           0.0182         estimate D2E/DX2                !
 ! D280  D(9,10,13,7)          -85.8544         estimate D2E/DX2                !
 ! D281  D(9,10,13,8)           -1.9516         estimate D2E/DX2                !
 ! D282  D(9,10,13,16)         -21.5684         estimate D2E/DX2                !
 ! D283  D(9,10,13,17)          80.7652         estimate D2E/DX2                !
 ! D284  D(9,10,13,18)         -83.6223         estimate D2E/DX2                !
 ! D285  D(9,10,13,36)         134.5592         estimate D2E/DX2                !
 ! D286  D(9,10,13,37)        -170.1637         estimate D2E/DX2                !
 ! D287  D(9,10,13,39)        -163.4423         estimate D2E/DX2                !
 ! D288  D(9,10,24,17)         -84.0673         estimate D2E/DX2                !
 ! D289  D(9,10,24,25)        -176.1764         estimate D2E/DX2                !
 ! D290  D(9,10,24,26)          -0.2218         estimate D2E/DX2                !
 ! D291  D(9,10,24,27)          52.9804         estimate D2E/DX2                !
 ! D292  D(9,10,24,28)         103.6184         estimate D2E/DX2                !
 ! D293  D(9,11,12,2)           -8.8757         estimate D2E/DX2                !
 ! D294  D(9,11,12,5)           79.4843         estimate D2E/DX2                !
 ! D295  D(9,11,12,15)         -90.571          estimate D2E/DX2                !
 ! D296  D(9,11,12,21)          75.7415         estimate D2E/DX2                !
 ! D297  D(9,11,12,51)         172.6682         estimate D2E/DX2                !
 ! D298  D(9,11,12,52)         165.4866         estimate D2E/DX2                !
 ! D299  D(9,11,12,54)        -139.806          estimate D2E/DX2                !
 ! D300  D(27,11,12,2)          92.6601         estimate D2E/DX2                !
 ! D301  D(27,11,12,5)        -178.9799         estimate D2E/DX2                !
 ! D302  D(27,11,12,15)         10.9647         estimate D2E/DX2                !
 ! D303  D(27,11,12,21)        177.2773         estimate D2E/DX2                !
 ! D304  D(27,11,12,51)        -85.796          estimate D2E/DX2                !
 ! D305  D(27,11,12,52)        -92.9776         estimate D2E/DX2                !
 ! D306  D(27,11,12,54)        -38.2702         estimate D2E/DX2                !
 ! D307  D(9,11,27,15)          75.8778         estimate D2E/DX2                !
 ! D308  D(9,11,27,24)         -51.1916         estimate D2E/DX2                !
 ! D309  D(9,11,27,26)           0.0188         estimate D2E/DX2                !
 ! D310  D(9,11,27,28)        -102.7336         estimate D2E/DX2                !
 ! D311  D(9,11,27,29)          61.9493         estimate D2E/DX2                !
 ! D312  D(9,11,27,30)         -89.2595         estimate D2E/DX2                !
 ! D313  D(9,11,27,55)         164.621          estimate D2E/DX2                !
 ! D314  D(9,11,27,57)         142.102          estimate D2E/DX2                !
 ! D315  D(12,11,27,15)         -9.9737         estimate D2E/DX2                !
 ! D316  D(12,11,27,24)       -137.0431         estimate D2E/DX2                !
 ! D317  D(12,11,27,26)        -85.8327         estimate D2E/DX2                !
 ! D318  D(12,11,27,28)        171.4149         estimate D2E/DX2                !
 ! D319  D(12,11,27,29)        -23.9022         estimate D2E/DX2                !
 ! D320  D(12,11,27,30)       -175.111          estimate D2E/DX2                !
 ! D321  D(12,11,27,55)         78.7695         estimate D2E/DX2                !
 ! D322  D(12,11,27,57)         56.2505         estimate D2E/DX2                !
 ! D323  D(2,12,15,27)         -99.7769         estimate D2E/DX2                !
 ! D324  D(11,12,15,27)        -10.211          estimate D2E/DX2                !
 ! D325  D(14,12,15,27)        179.2802         estimate D2E/DX2                !
 ! D326  D(21,12,15,27)       -174.85           estimate D2E/DX2                !
 ! D327  D(51,12,15,27)        127.1718         estimate D2E/DX2                !
 ! D328  D(52,12,15,27)         72.6447         estimate D2E/DX2                !
 ! D329  D(2,12,21,22)        -166.8556         estimate D2E/DX2                !
 ! D330  D(2,12,21,23)          -6.2979         estimate D2E/DX2                !
 ! D331  D(2,12,21,48)          37.3882         estimate D2E/DX2                !
 ! D332  D(2,12,21,49)         105.7576         estimate D2E/DX2                !
 ! D333  D(11,12,21,22)        107.7032         estimate D2E/DX2                !
 ! D334  D(11,12,21,23)        -91.7391         estimate D2E/DX2                !
 ! D335  D(11,12,21,48)        -48.053          estimate D2E/DX2                !
 ! D336  D(11,12,21,49)         20.3164         estimate D2E/DX2                !
 ! D337  D(15,12,21,22)        -93.65           estimate D2E/DX2                !
 ! D338  D(15,12,21,23)         66.9077         estimate D2E/DX2                !
 ! D339  D(15,12,21,48)        110.5938         estimate D2E/DX2                !
 ! D340  D(15,12,21,49)        178.9632         estimate D2E/DX2                !
 ! D341  D(52,12,21,22)         22.0539         estimate D2E/DX2                !
 ! D342  D(52,12,21,23)       -177.3884         estimate D2E/DX2                !
 ! D343  D(52,12,21,48)       -133.7023         estimate D2E/DX2                !
 ! D344  D(52,12,21,49)        -65.3329         estimate D2E/DX2                !
 ! D345  D(54,12,21,22)        -25.617          estimate D2E/DX2                !
 ! D346  D(54,12,21,23)        134.9407         estimate D2E/DX2                !
[...]
 .02814761,0.03893011,0.00120039,-0.00078660,0.00038663,-0.00393176,-0.
 00128815,-0.00166656,0.00415672,-0.00008874,0.00096737,0.00033068,0.00
 068495,0.00004570,0.00080709,0.00104269,-0.00086497,-0.00066303,-0.000
 34427,-0.00004555,0.00007253,-0.00008055,0.00072620,0.00013625,-0.0000
 4767,-0.00014247,-0.00000999,0.00008271,-0.00010618,0.00006120,-0.0000
 3240,0.00022458,-0.00007431,0.00005055,-0.00000977,0.00005898,0.000112
 99,-0.00018987,0.00002860,-0.00018924,0.00008500,0.00005743,0.00010057
 ,-0.00001814,-0.00014318,0.00000010,-0.00001263,0.00003892,-0.00011183
 ,-0.00002575,0.00019235,0.00001485,-0.00002214,0.00000957,0.00007969,-
 0.00001658,-0.00016408,-0.00014507,0.00003835,0.00032682,0.00002350,0.
 00001145,0.00009559,0.00010692,0.00002251,-0.00031528,-0.00143645,-0.0
 0424131,0.00260032,0.00213407,-0.00375224,0.00079318,-0.00172724,-0.00
 202419,0.00130483,0.00627857,0.01633609,-0.00807387,-0.04679992,-0.051
 88304,-0.00473459,-0.05156398,-0.00695383,-0.05384196,0.31660298,0.000
 08552,-0.00025417,0.00034074,0.00014143,-0.00000745,-0.00022429,-0.000
 03924,0.00001663,-0.00009223,0.00003714,0.00026305,0.00001311,0.000141
 18,0.00002172,0.00056552,-0.00069421,-0.00003484,0.00034354,-0.0000012
 3,0.00001913,0.00004962,0.00002030,0.00007026,-0.00017615,0.00079175,-
 0.00105185,-0.00019538,-0.00007346,-0.00006107,0.00004224,-0.00026332,
 -0.00068943,0.00187075,-0.00232315,-0.00106064,-0.00260767,0.00014084,
 0.00000500,-0.00007299,-0.00011825,0.00040950,0.00003529,0.00227066,0.
 00007163,-0.00024547,-0.00000806,0.00000212,-0.00000018,0.00008560,0.0
 0008420,0.00003655,-0.00001727,-0.00000085,-0.00000458,-0.00000973,0.0
 0002193,-0.00003276,0.00005403,0.00006213,-0.00007888,0.00015769,-0.00
 016745,-0.00037678,0.00056044,0.00136290,-0.00016616,0.00004983,0.0000
 3095,-0.00010835,0.00155227,-0.00128485,0.00034272,-0.00017342,0.00030
 111,0.00012861,0.00057289,-0.00081178,-0.00116939,-0.00668488,0.003425
 13,0.00003269,-0.00099939,-0.00087844,-0.00048555,0.04097055,-0.075100
 36,-0.00298915,0.00718165,0.00192878,0.00271831,-0.00207141,-0.0003711
 2,-0.00015845,0.00053653,-0.00038425,0.00079157,0.00006452,-0.00077102
 ,-0.00057472,-0.00101985,0.00099898,-0.00022595,-0.00043051,-0.0000675
 8,0.00001602,0.00013768,0.00024121,-0.00029752,-0.00004108,-0.00003824
 ,0.00000288,-0.00008527,-0.00006163,0.00004968,0.00002254,-0.00002111,
 -0.00003139,-0.00000438,-0.00000201,0.00000084,-0.00002335,0.00002713,
 0.00000522,0.00013241,-0.00009099,-0.00001749,-0.00002375,0.00001064,0
 .00005752,0.00005515,-0.00007340,0.00002873,-0.00001741,0.00007312,-0.
 00016711,0.00004142,-0.00009027,0.00003781,-0.00002580,-0.00000110,0.0
 0008869,-0.00014286,0.00003900,0.00000183,-0.00012085,0.00000143,-0.00
 000074,-0.00002713,0.00000669,-0.00004882,-0.00027454,-0.00446350,0.00
 002009,-0.00095120,0.00068332,0.00302690,-0.00145146,0.00055776,0.0009
 5393,0.00412536,-0.00934986,0.01886223,-0.06032327,-0.09005699,-0.0061
 1077,-0.00746974,-0.01517100,-0.00279185,0.02043549,0.21172749,-0.0000
 9811,0.00057884,-0.00107715,-0.00058672,-0.00011292,0.00005260,0.00008
 832,-0.00006969,0.00012500,0.00022430,-0.00014867,0.00022564,-0.000232
 20,-0.00019409,-0.00019227,-0.00086440,0.00024352,0.00005706,-0.000236
 14,0.00014786,-0.00004587,-0.00004003,0.00022389,0.00003979,0.00131594
 ,-0.00034871,0.00036641,-0.00007336,0.00035435,-0.00022852,0.00122759,
 0.00005445,0.00005995,0.00038828,0.00160516,0.00048898,0.00086466,0.00
 031330,-0.00029152,-0.00004554,0.00011932,0.00011592,0.00165322,-0.000
 72197,-0.00360694,0.00006121,-0.00013866,0.00020526,0.00016320,-0.0001
 2227,0.00052817,0.00032368,-0.00022608,-0.00008146,-0.00006487,0.00004
 242,-0.00017175,-0.00000713,0.00001135,-0.00005085,-0.00010880,-0.0007
 5229,0.00108156,-0.00081589,-0.00137335,0.00067234,-0.00008010,0.00012
 902,-0.00004658,-0.00014264,-0.00203181,0.00162844,-0.00083189,0.00011
 043,-0.00007820,0.00086709,0.00385281,0.00072486,-0.00730120,0.0006277
 9,-0.00834844,-0.00068165,-0.00034329,-0.00009545,-0.00275726,0.000372
 44,-0.00808763,-0.00440036,-0.00137176,0.00804459,0.00571878,-0.000533
 66,-0.00775699,-0.00027829,-0.00037602,-0.00022712,-0.00124073,0.00087
 682,-0.00113690,0.00023722,0.00007686,0.00183662,0.00134781,0.00025785
 ,-0.00013614,-0.00070506,-0.00087180,-0.00035947,0.00001349,0.00022998
 ,-0.00010350,0.00018868,-0.00000698,-0.00002811,-0.00018175,-0.0003579
 8,0.00007810,-0.00007871,0.00004033,-0.00003159,-0.00002213,0.00011639
 ,0.00001604,0.00020878,-0.00013832,0.00026067,0.00000866,-0.00000874,0
 .00005085,-0.00001035,-0.00002742,-0.00004416,-0.00005138,0.00000766,-
 0.00010452,-0.00008217,0.00008514,-0.00001270,-0.00001412,-0.00000240,
 0.00008102,0.00057602,-0.00012277,-0.00015599,0.00005670,0.00003340,-0
 .00009000,-0.00005136,-0.00005354,0.00033942,0.00020955,0.00191932,-0.
 00141303,-0.00052193,-0.00407330,-0.00112736,-0.00171957,0.00056161,-0
 .00140264,0.02323123,0.02504975,-0.01968333,-0.00647877,-0.00545503,-0
 .01322073,-0.06921177,-0.00329252,-0.14215794,-0.05754583,-0.00661111,
 0.30568018,-0.00019130,-0.00000079,-0.00025744,-0.00011724,0.00006580,
 -0.00002117,0.00003686,-0.00001496,0.00004226,0.00010076,-0.00003647,0
 .00008382,-0.00023141,0.00008304,-0.00004828,-0.00049479,0.00006207,0.
 00011428,-0.00002515,0.00002792,-0.00002735,-0.00003354,0.00016720,-0.
 00007509,0.00064372,-0.00025582,0.00022136,0.00004485,0.00004513,-0.00
 009990,0.00008166,0.00005027,-0.00013369,-0.00056881,-0.00009544,-0.00
 070458,-0.00001391,0.00007061,0.00009141,0.00006843,-0.00006227,0.0000
 5919,0.00030241,0.00034810,-0.00034215,0.00003603,-0.00002899,0.000015
 86,-0.00001228,-0.00005023,0.00003981,0.00019692,-0.00004828,0.0000173
 9,-0.00003091,0.00001462,-0.00008308,0.00002450,0.00002185,-0.00004583
 ,-0.00023085,-0.00016777,0.00047918,-0.00019738,-0.00062536,0.00021398
 ,0.00001277,0.00005286,-0.00004951,-0.00013826,0.00000986,0.00036323,-
 0.00017630,0.00003557,-0.00004978,0.00009065,0.00037867,0.00004226,-0.
 00230664,0.00050095,-0.00090538,0.00012823,-0.00001525,-0.00031048,-0.
 00124368,0.00265213,-0.00105107,-0.00217209,0.00090731,-0.00126469,-0.
 00438216,0.00417587,-0.00626415,0.00022556,-0.00056001,-0.00003719,-0.
 00050822,-0.00022998,-0.00021794,-0.00047843,0.00029615,0.00014890,0.0
 0036201,-0.00000974,-0.00006330,-0.00007155,-0.00034034,0.00008388,-0.
 00000133,0.00005665,-0.00004165,-0.00000834,0.00007908,-0.00006546,0.0
 0003126,-0.00020655,0.00007092,-0.00005396,0.00001175,-0.00004629,-0.0
 0008778,0.00015074,-0.00002673,0.00019344,-0.00009890,0.00002885,-0.00
 006508,0.00000732,0.00010985,-0.00000233,-0.00002673,-0.00002630,0.000
 06166,0.00002253,-0.00016751,-0.00003108,0.00002346,-0.00001745,-0.000
 06102,0.00001036,0.00013447,0.00021880,-0.00000687,-0.00027059,0.00003
 926,-0.00001787,-0.00005945,-0.00007508,-0.00002781,0.00027420,0.00083
 120,0.00202473,-0.00150064,-0.00060357,0.00008860,-0.00063977,0.000351
 41,0.00041220,-0.00053407,-0.00043998,-0.00577869,0.00775023,-0.001089
 53,-0.00066836,0.00119812,0.00871369,0.00016168,0.00543795,-0.16033557
 ,0.00541131,0.11849416,0.16348338,0.00002385,0.00001559,0.00000027,0.0
 0001535,-0.00004263,-0.00000504,-0.00000415,0.00000128,0.00000750,-0.0
 0003026,-0.00002299,-0.00001185,0.00002647,-0.00006269,-0.00001318,0.0
 0018432,-0.00001629,-0.00005211,0.00001345,-0.00001314,0.00000549,0.00
 001411,-0.00004964,0.00001776,-0.00022388,0.00016252,-0.00004114,-0.00
 001071,0.00000013,0.00003787,-0.00005431,-0.00015237,0.00009771,0.0002
 6810,0.00029414,0.00053616,-0.00006805,-0.00000268,-0.00001848,0.00003
 937,-0.00000360,-0.00000605,-0.00008787,-0.00036115,-0.00008122,-0.000
 00561,0.00000413,-0.00000868,0.00001207,-0.00001193,0.00002512,-0.0000
 3661,0.00002062,0.00000076,0.00000655,-0.00000728,0.00001932,-0.000014
 95,-0.00000887,0.00001108,-0.00004248,0.00004386,-0.00002786,0.0000118
 3,0.00011718,-0.00005945,0.00000723,-0.00000897,0.00001693,-0.00013890
 ,0.00008765,-0.00016597,-0.00003008,-0.00003821,0.00006055,-0.00001582
 ,-0.00023428,0.00005465,0.00086265,0.00140324,0.00007873,0.00020212,0.
 00040689,0.00019208,-0.00156826,0.00350506,-0.00223670,-0.00003631,-0.
 00148661,0.00014133,0.00288322,0.00064438,0.00186134,-0.00033197,0.000
 20550,-0.00033217,0.00011741,0.00021779,-0.00011684,-0.00006067,0.0000
 4139,0.00045187,-0.00005206,0.00004983,0.00002726,0.00005345,-0.000007
 60,-0.00003517,0.00001028,0.00000652,0.00002140,0.00000049,-0.00001086
 ,0.00001299,-0.00000903,0.00002658,-0.00000707,0.00000954,-0.00000047,
 0.00000725,0.00001424,-0.00002069,0.00000425,-0.00004471,0.00002799,-0
 .00000710,0.00000996,-0.00000212,-0.00002205,-0.00000728,0.00001118,0.
 00000226,-0.00000670,-0.00000668,0.00004072,0.00000286,0.00000180,-0.0
 0000257,0.00001109,-0.00000218,-0.00002700,-0.00003875,-0.00000456,0.0
 0003185,0.00000595,0.00000427,0.00001788,0.00001552,0.00000414,-0.0000
 3751,-0.00002202,-0.00025198,0.00055667,0.00058489,-0.00022773,0.00001
 900,-0.00014204,-0.00026704,0.00037652,-0.00063037,0.00411849,-0.00364
 037,0.00020233,0.00326723,0.00331855,0.00167747,-0.00018401,0.00242602
 ,0.00574957,-0.02014579,-0.00822650,-0.00931594,0.00897796,0.00011732,
 0.00002332,0.00008568,0.00007428,-0.00006518,0.00006909,-0.00003160,0.
 00001158,-0.00001269,-0.00004699,0.00001819,-0.00001941,0.00009351,0.0
 0001210,0.00005881,0.00045697,-0.00003792,-0.00012277,0.00000758,-0.00
 002176,0.00001283,-0.00005474,-0.00004467,0.00006492,-0.00060424,0.000
 04354,-0.00018868,-0.00005769,-0.00002255,0.00010169,-0.00025231,-0.00
 007626,-0.00024841,0.00007086,0.00013696,0.00011273,0.00009386,-0.0001
 2460,0.00000397,-0.00003395,-0.00000858,-0.00005195,-0.00033889,-0.000
 25747,0.00037822,-0.00004084,0.00003242,-0.00002659,-0.00007000,0.0000
 6343,-0.00016983,-0.00013798,0.00000830,0.00000184,0.00002268,-0.00000
 899,0.00005990,-0.00003042,-0.00001823,0.00004817,0.00010772,0.0000221
 8,-0.00027076,0.00011824,0.00026569,-0.00011595,-0.00001770,-0.0000287
 4,0.00003660,-0.00006672,0.00034334,-0.00054103,0.00034745,-0.00003485
 ,-0.00002002,-0.00027260,-0.00100889,-0.00042502,0.00837946,-0.0009187
 1,0.00545786,-0.00064844,0.00023787,-0.00057150,0.00258376,-0.00358881
 ,0.00057687,0.00121198,0.00213871,-0.00409867,-0.00609643,0.00086690,0
 .00233523,0.00048310,-0.00004869,0.00037982,0.00019328,-0.00047180,0.0
 0019845,0.00032113,0.00000098,-0.00114743,-0.00043392,-0.00010552,0.00
 006734,0.00002018,0.00051851,-0.00000535,-0.00001425,-0.00010142,0.000
 01897,0.00001446,-0.00007577,0.00005550,-0.00001124,0.00018656,-0.0000
 6014,0.00004212,-0.00000921,0.00003858,0.00007394,-0.00012972,0.000014
 32,-0.00016776,0.00008868,0.00000177,0.00006033,-0.00001069,-0.0000965
 2,-0.00000602,0.00003282,0.00000795,-0.00005032,-0.00001207,0.00014978
 ,0.00001435,0.00000130,0.00001287,0.00005352,-0.00001118,-0.00011678,-
 0.00011868,-0.00002411,0.00021541,-0.00003210,0.00002599,0.00002965,0.
 00006156,0.00001731,-0.00019381,-0.00028754,-0.00086856,0.00051057,0.0
 0018586,0.00085273,0.00033385,-0.00020549,-0.00002075,0.00009141,-0.00
 063918,-0.00079119,-0.00094897,0.00104623,0.00257363,0.00095484,0.0047
 3485,0.00030893,-0.01281376,0.10980793,-0.00436834,-0.11132627,-0.1198
 9715,0.00464735,0.12103185,-0.00002903,-0.00006601,0.00012720,0.000055
 18,0.00001925,-0.00001228,0.00000009,0.00000597,-0.00000882,-0.0000019
 2,0.00003251,-0.00003850,-0.00001607,0.00001227,-0.00001846,-0.0000585
 7,-0.00002741,0.00005857,0.00003788,0.00000183,0.00001272,0.00006561,-
 0.00004320,-0.00001021,-0.00005023,-0.00001433,-0.00004957,-0.00001552
 ,0.00000574,0.00011715,-0.00005059,-0.00000155,0.00001957,0.00000668,0
 .00000446,0.00001895,-0.00034069,-0.00020367,-0.00005492,-0.00000691,-
 0.00000568,0.00001359,0.00002556,-0.00003615,0.00000506,0.00003379,0.0
 0002309,-0.00003870,0.00006070,-0.00002801,-0.00021503,-0.00008375,0.0
 0006342,0.00007065,-0.00000135,-0.00002454,0.00000684,0.00003277,-0.00
 001020,-0.00001132,-0.00003740,0.00001202,0.00004183,0.00000052,-0.000
 04887,0.00002345,0.00001920,0.00000260,-0.00001614,0.00008602,-0.00008
 490,-0.00042035,0.00048036,-0.00005162,0.00018779,-0.00001160,-0.00002
 803,0.00004107,0.00006771,0.00018125,-0.00004493,0.00006488,0.00027348
 ,-0.00019656,0.00041226,0.00003961,0.00011448,0.00004293,-0.00136419,0
 .00083876,0.00022730,-0.00035607,-0.00059634,0.00418840,0.00292371,0.0
 0240591,-0.05855824,-0.06498703,0.06020433,0.00241234,-0.00368017,-0.0
 0309982,-0.00912385,-0.00634623,0.00555773,0.00194124,0.00139951,0.000
 38870,-0.00043049,-0.00038990,0.00001773,0.00013782,0.00036938,-0.0001
 7877,0.00025181,-0.00033240,0.00003047,0.00000909,-0.00000987,0.000008
 53,-0.00014339,0.00020604,-0.00004892,0.00008531,-0.00000446,-0.000108
 02,-0.00007489,0.00001337,0.00008842,0.00000052,-0.00001434,-0.0000011
 0,0.00006617,0.00001354,-0.00009203,0.00000554,-0.00002559,-0.00001100
 ,-0.00004731,0.00001037,0.00008316,0.00000451,0.00004231,-0.00012774,0
 .00001570,-0.00001769,-0.00000816,-0.00003981,-0.00000582,0.00009025,0
 .00003458,0.00007826,-0.00005483,-0.00000369,-0.00000293,-0.00003148,0
 .00002787,-0.00001085,0.00002242,-0.00006095,0.00002627,0.00004762,-0.
 00000776,0.00000685,-0.00001359,0.00002241,-0.00001408,0.00007224,-0.0
 0026671,0.00013331,0.00009365,0.00020008,-0.00000596,-0.00013332,0.058
 33790,-0.00004794,-0.00010444,0.00019132,0.00008505,0.00002065,-0.0000
 4273,-0.00000392,0.00001001,-0.00000845,-0.00000067,0.00004601,-0.0000
 5659,-0.00002438,0.00002053,-0.00002929,-0.00007756,-0.00004330,0.0000
 7088,0.00010068,-0.00005130,0.00003019,0.00006009,-0.00003904,-0.00001
 632,-0.00003735,-0.00001651,-0.00005406,-0.00003257,-0.00015557,0.0000
 9145,-0.00010535,0.00001434,0.00004905,0.00000104,-0.00000697,0.000016
 31,-0.00037845,-0.00005937,0.00007105,-0.00000369,-0.00000963,0.000027
 90,0.00006233,-0.00007590,0.00001967,0.00001144,0.00002878,-0.00004945
 ,-0.00012835,-0.00023130,-0.00015185,-0.00007121,0.00001328,0.00015735
 ,-0.00000767,-0.00000837,-0.00000696,0.00002753,0.00000627,-0.00002587
 ,-0.00005657,0.00001986,0.00006953,0.00000061,-0.00007601,0.00003639,0
 .00002966,0.00000531,-0.00002516,0.00028287,0.00023273,-0.00043896,0.0
 0016419,0.00038376,-0.00004410,-0.00005905,-0.00004851,0.00004958,0.00
 036549,-0.00005780,0.00014290,-0.00030997,0.00020764,-0.00008257,0.000
 19862,-0.00002128,-0.00002856,-0.00149652,0.00087671,0.00081712,0.0004
 3443,-0.00018064,-0.00060827,0.00566520,0.00157795,0.00589386,-0.06828
 212,-0.14133348,0.10594017,-0.00096043,-0.00809608,0.00206306,-0.00914
 691,0.00660583,-0.00358825,0.00182544,0.00057159,0.00068446,-0.0000136
 3,-0.00000212,-0.00001500,-0.00039778,0.00000130,0.00006556,0.00025174
 ,-0.00011865,-0.00016901,-0.00002637,0.00000037,-0.00001270,-0.0001780
 5,0.00022682,-0.00003586,0.00016241,-0.00002293,-0.00017943,-0.0001192
 0,0.00002443,0.00013584,0.00000207,-0.00002426,-0.00000069,0.00010106,
 0.00002155,-0.00014055,0.00000618,-0.00003790,-0.00001868,-0.00007213,
 0.00001544,0.00012737,0.00000908,0.00006544,-0.00019764,0.00002480,-0.
 00002656,-0.00001252,-0.00006135,-0.00000946,0.00014016,0.00005593,0.0
 0012154,-0.00007960,-0.00000497,-0.00000656,-0.00004816,0.00004298,-0.
 00002248,0.00004032,-0.00011498,0.00005007,0.00007049,-0.00004240,0.00
 000366,-0.00002053,0.00002750,-0.00000392,0.00012022,-0.00034120,0.000
 10010,0.00007157,0.00026305,-0.00001228,-0.00016409,0.07234130,0.13963
 064,0.00005029,0.00009544,-0.00019169,-0.00008602,-0.00004769,0.000008
 69,-0.00000120,-0.00001080,0.00001024,-0.00000422,-0.00004545,0.000062
 64,0.00001714,-0.00001609,0.00002947,0.00007786,0.00003250,-0.00006647
 ,-0.00013621,0.00003206,0.00000291,-0.00005077,0.00002294,0.00000958,0
 .00010953,0.00006958,0.00011403,0.00008623,0.00025339,-0.00014534,0.00
 008344,-0.00000538,-0.00002991,-0.00000827,0.00000053,-0.00001297,0.00
 055320,0.00008109,-0.00021831,0.00000674,0.00000765,-0.00002485,-0.000
 04483,0.00005651,-0.00000185,-0.00002649,-0.00000270,0.00004609,-0.000
 11940,0.00000023,0.00014250,0.00007130,-0.00006119,-0.00016364,0.00000
 367,0.00002043,0.00001513,-0.00003742,-0.00000899,0.00001978,0.0000475
 7,-0.00002751,-0.00005192,-0.00000248,0.00006564,-0.00003063,-0.000028
 99,-0.00000420,0.00002279,-0.00015638,-0.00037861,0.00075061,0.0000434
 5,-0.00013018,-0.00076530,0.00001770,0.00005228,-0.00003526,-0.0002760
 4,-0.00006816,-0.00030312,0.00014172,-0.00019956,0.00023272,0.00019117
 ,-0.00006540,0.00012480,0.00077442,-0.00132473,-0.00036602,-0.00067381
 ,0.00010527,0.00016363,0.00090765,0.00474303,-0.00439814,0.06188321,0.
 10521107,-0.11716890,-0.00512997,0.00732599,0.00907223,0.00881023,-0.0
 0479924,0.00066549,-0.00236874,0.00035567,0.00066654,0.00014885,-0.000
 13267,-0.00018458,0.00034050,-0.00019325,0.00009503,-0.00020836,0.0001
 5158,0.00015306,0.00002129,-0.00000241,0.00001576,0.00015948,-0.000202
 12,0.00002499,-0.00014076,0.00001199,0.00016213,0.00010572,-0.00002080
 ,-0.00012269,-0.00000191,0.00002379,0.00000026,-0.00009456,-0.00001743
 ,0.00012762,-0.00000517,0.00003653,0.00001810,0.00006557,-0.00001443,-
 0.00011534,-0.00000438,-0.00006233,0.00018119,-0.00002279,0.00002563,0
 .00001022,0.00005591,0.00000790,-0.00012534,-0.00004039,-0.00010045,0.
 00005583,0.00000697,0.00000452,0.00004916,-0.00004179,0.00002405,-0.00
 003882,0.00010946,-0.00002925,-0.00002997,0.00002377,-0.00000288,0.000
 02920,0.00000034,-0.00002372,-0.00011361,0.00013534,-0.00003341,0.0001
 6165,-0.00017045,0.00005561,0.00007495,-0.06516792,-0.11084187,0.11138
 568\\0.00000442,0.00002391,-0.00001870,0.00000512,-0.00001362,-0.00000
 325,-0.00000118,-0.00000310,-0.00000005,-0.00000186,-0.00000386,0.0000
 1206,0.00000090,0.00000779,0.00000552,0.00000709,-0.00000077,0.0000245
 0,0.00000026,0.00000483,-0.00000390,-0.00000481,-0.00001148,-0.0000213
 7,-0.00003470,-0.00000264,-0.00001066,0.00001991,0.00002197,0.00000948
 ,-0.00000590,-0.00000768,-0.00000600,0.00002230,0.00001434,0.00001749,
 -0.00001503,-0.00004273,0.00001243,-0.00000229,-0.00000003,0.00000133,
 -0.00000619,0.00000351,-0.00001188,-0.00000698,0.00000360,0.00000002,0
 .00000344,-0.00000385,-0.00001019,-0.00000743,0.00000429,0.00000146,-0
 .00000092,-0.00000163,0.00000275,0.00000146,-0.00000003,-0.00000337,0.
 00001472,-0.00000038,-0.00000534,0.00000068,0.00000214,0.00000745,0.00
 000001,-0.00000571,0.00000286,0.00000775,0.00002627,0.00001395,-0.0000
 1262,-0.00000281,0.00000701,-0.00001060,-0.00000762,0.00000140,0.00002
 415,0.00002237,-0.00000301,0.00000031,-0.00002027,-0.00000384,0.000006
 19,-0.00000682,0.00000272,-0.00005638,-0.00000477,-0.00000797,0.000003
 62,-0.00001056,0.00000593,0.00000280,0.00001030,-0.00000891,0.00001089
 ,0.00000621,0.00001284,0.00001522,-0.00000644,0.00000438,-0.00000975,0
 .00000453,-0.00000426,0.00004960,-0.00000311,-0.00002745,-0.00001409,0
 .00000312,0.00000809,-0.00003521,0.00000220,0.00001613,0.00004762,0.00
 001223,-0.00003070,-0.00000047,-0.00000439,0.00000512,-0.00000891,-0.0
 0000007,0.00000366,0.00000152,0.00000190,-0.00000888,0.00000062,-0.000
 00173,0.00000109,0.00000011,0.00000362,0.00000445,0.00000155,-0.000006
 42,-0.00000641,-0.00000239,0.00000219,0.00001443,-0.00000055,-0.000000
 45,-0.00000019,0.00000279,-0.00000184,-0.00000548,-0.00000062,0.000001
 26,0.00000511,-0.00000096,0.00000110,-0.00000067,-0.00000298,-0.000007
 82,-0.00000881,-0.00000434,0.00000260,0.00000216,0.00000535,0.00000032
 ,-0.00000310,-0.00001042,-0.00001750,0.00000034,0.00000053,-0.00000256
 ,0.00000444,-0.00000320,0.00000982,-0.00000001,0.00000400,0.00000055,0
 .00000783,0.00000158,0.00000747,-0.00000042,-0.00000571,-0.00000175,-0
 .00000361\\\@
 The archive entry for this job was punched.


 LEARN FROM YESTERDAY,
 LIVE FOR TODAY,
 LOOK TO TOMORROW,
 REST THIS AFTERNOON.

           -- SNOOPY
 Job cpu time:       4 days 11 hours 32 minutes 15.1 seconds.
 Elapsed time:       0 days  4 hours 38 minutes 22.0 seconds.
 File lengths (MBytes):  RWF=  11476 Int=      0 D2E=      0 Chk=    123 Scr=      2
 Normal termination of Gaussian 16 at Wed Feb  8 07:30:10 2023.
