 Entering Gaussian System, Link 0=g16
 Initial command:
 /home/chesagar/softwares/G16_AVX2//g16/l1.exe "/home/chesagar/scratch/Gau-82274.inp" -scrdir="/home/chesagar/scratch/"
 Entering Link 1 = /home/chesagar/softwares/G16_AVX2//g16/l1.exe PID=     82277.
  
 Copyright (c) 1988-2019, Gaussian, Inc.  All Rights Reserved.
  
 This is part of the Gaussian(R) 16 program.  It is based on
 the Gaussian(R) 09 system (copyright 2009, Gaussian, Inc.),
 the Gaussian(R) 03 system (copyright 2003, Gaussian, Inc.),
 the Gaussian(R) 98 system (copyright 1998, Gaussian, Inc.),
 the Gaussian(R) 94 system (copyright 1995, Gaussian, Inc.),
 the Gaussian 92(TM) system (copyright 1992, Gaussian, Inc.),
 the Gaussian 90(TM) system (copyright 1990, Gaussian, Inc.),
 the Gaussian 88(TM) system (copyright 1988, Gaussian, Inc.),
 the Gaussian 86(TM) system (copyright 1986, Carnegie Mellon
 University), and the Gaussian 82(TM) system (copyright 1983,
 Carnegie Mellon University). Gaussian is a federally registered
 trademark of Gaussian, Inc.
  
 This software contains proprietary and confidential information,
 including trade secrets, belonging to Gaussian, Inc.
  
 This software is provided under written license and may be
 used, copied, transmitted, or stored only in accord with that
 written license.
  
 The following legend is applicable only to US Government
 contracts under FAR:
  
                    RESTRICTED RIGHTS LEGEND
  
 Use, reproduction and disclosure by the US Government is
 subject to restrictions as set forth in subparagraphs (a)
 and (c) of the Commercial Computer Software - Restricted
 Rights clause in FAR 52.227-19.
  
 Gaussian, Inc.
 340 Quinnipiac St., Bldg. 40, Wallingford CT 06492
  
  
 ---------------------------------------------------------------
 Warning -- This program may not be used in any manner that
 competes with the business of Gaussian, Inc. or will provide
 assistance to any competitor of Gaussian, Inc.  The licensee
 of this program is prohibited from giving any competitor of
 Gaussian, Inc. access to this program.  By using this program,
 the user acknowledges that Gaussian, Inc. is engaged in the
 business of creating and licensing software in the field of
 computational chemistry and represents and warrants to the
 licensee that it is not a competitor of Gaussian, Inc. and that
 it will not use this program in any manner prohibited above.
 ---------------------------------------------------------------
  

 Cite this work as:
 Gaussian 16, Revision C.01,
 M. J. Frisch, G. W. Trucks, H. B. Schlegel, G. E. Scuseria, 
 M. A. Robb, J. R. Cheeseman, G. Scalmani, V. Barone, 
 G. A. Petersson, H. Nakatsuji, X. Li, M. Caricato, A. V. Marenich, 
 J. Bloino, B. G. Janesko, R. Gomperts, B. Mennucci, H. P. Hratchian, 
 J. V. Ortiz, A. F. Izmaylov, J. L. Sonnenberg, D. Williams-Young, 
 F. Ding, F. Lipparini, F. Egidi, J. Goings, B. Peng, A. Petrone, 
 T. Henderson, D. Ranasinghe, V. G. Zakrzewski, J. Gao, N. Rega, 
 G. Zheng, W. Liang, M. Hada, M. Ehara, K. Toyota, R. Fukuda, 
 J. Hasegawa, M. Ishida, T. Nakajima, Y. Honda, O. Kitao, H. Nakai, 
 T. Vreven, K. Throssell, J. A. Montgomery, Jr., J. E. Peralta, 
 F. Ogliaro, M. J. Bearpark, J. J. Heyd, E. N. Brothers, K. N. Kudin, 
 V. N. Staroverov, T. A. Keith, R. Kobayashi, J. Normand, 
 K. Raghavachari, A. P. Rendell, J. C. Burant, S. S. Iyengar, 
 J. Tomasi, M. Cossi, J. M. Millam, M. Klene, C. Adamo, R. Cammi, 
 J. W. Ochterski, R. L. Martin, K. Morokuma, O. Farkas, 
 J. B. Foresman, and D. J. Fox, Gaussian, Inc., Wallingford CT, 2019.
 
 ******************************************
 Gaussian 16:  ES64L-G16RevC.01  3-Jul-2019
                 6-Feb-2023 
 ******************************************
 %nprocshared=46
 Will use up to   46 processors via shared memory.
 %mem=100GB
 ---------------------------------------
 # opt freq b3lyp/gen nosymm pseudo=read
 ---------------------------------------
 1/18=20,19=15,26=3,38=1/1,3;
 2/9=110,12=2,15=1,17=6,18=5,40=1/2;
 3/5=7,11=2,16=1,17=8,25=1,30=1,71=1,74=-5/1,2,3;
 4//1;
 5/5=2,38=5/2;
 6/7=2,8=2,9=2,10=2,28=1/1;
 7/30=1/1,2,3,16;
 1/18=20,19=15,26=3/3(2);
 2/9=110,15=1/2;
 99//99;
 2/9=110,15=1/2;
 3/5=7,6=1,11=2,16=1,17=8,25=1,30=1,71=1,74=-5,82=7/1,2,3;
 4/5=5,16=3,69=1/1;
 5/5=2,38=5/2;
 7/30=1/1,2,3,16;
 1/18=20,19=15,26=3/3(-5);
 2/9=110,15=1/2;
 6/7=2,8=2,9=2,10=2,19=2,28=1/1;
 99/9=1/99;
 -------------------
 Title Card Required
 -------------------
 Symbolic Z-matrix:
 Charge =  0 Multiplicity = 1
 42                   -0.26454   1.32822   12.88547 
 16                    1.47723   3.09543   12.61013 
 16                   -1.5301    3.24382   13.61417 
 16                   -0.81146   0.92732   10.59728 
 16                    1.63346  -0.31612   12.01908 
 42                   -2.28155   2.72869   11.36084 
 16                   -3.0176    2.55332   8.85472 
 16                   -0.8501    4.58954   10.53928 
 42                    0.66483   2.81981   10.49413 
 16                   -0.14096   2.5883    7.83578 
 16                    2.49585   1.55747   9.46204 
 42                    3.34397   1.43896   11.83598 
 42                   -1.66706   4.58292   8.08292 
 16                    3.95886   1.82473   14.2048 
 16                    4.46445   3.55264   11.3255 
 16                   -3.18929   6.30327   8.9611 
 16                   -0.00072   6.30966   7.79935 
 42                   -4.44761   4.18857   9.32457 
 16                   -6.41876   2.89027   9.94959 
 16                   -3.79683   4.73765   11.63684 
 42                    2.59843  -0.18235   14.06658 
 16                    4.1969   -1.83758   13.95339 
 16                    0.88667   1.23247   15.26779 
 42                    1.25632   4.24471   7.37864 
 16                    0.51646   4.21643   4.96904 
 16                    2.15972   4.7581    9.55038 
 42                    3.95725   3.4547    8.54435 
 16                    3.16779   3.031     6.36535 
 16                    5.28924   5.49411   8.46347 
 42                    4.40381   5.12455   6.16569 
 16                    6.17693   4.74913   5.1175 
 16                    3.7068    7.36976   6.63856 
 42                    2.77617   7.34841   4.53256 
 16                    3.14226   5.27292   3.85535 
 16                    0.59737   7.68368   4.66659 
 42                   -0.94423   5.73553   5.73252 
 16                   -2.66304   4.03977   5.91942 
 16                   -2.63128   6.99679   4.91442 
 42                   -4.02437   5.97078   6.83398 
 16                   -5.62144   4.33162   7.25777 
 16                   -5.27956   7.67304   6.49619 
 42                   -5.14435   2.86368   11.83324 
 16                   -5.14843   3.03268   14.2398 
 16                   -3.9888    0.86539   11.62275 
 42                   -2.93117   1.37111   13.83028 
 16                   -1.67962  -0.69484   13.35249 
 16                   -3.14264   1.16541   15.96127 
 42                   -0.30049  -0.73364   15.26504 
 16                    1.2019   -2.24411   14.78977 
 16                   -1.22927  -1.28335   17.08892 
 42                    5.40704   0.12708   13.56545 
 16                    4.87622  -0.36293   11.12138 
 16                    7.41172   1.27148   12.34695 
 42                    5.86362   1.81385   10.87548 
 16                    5.74154   1.6887    8.44256 
 16                    7.69442   3.84749   10.51098 
 42                    6.92063   3.74004   8.49649 
 16                    8.56739   3.85394   7.15667 
 16                    3.61313   8.8162    3.25446 
 16                    6.78428   0.01531   15.20725 
 16                   -6.94978   2.28574   13.2681 
 

 GradGradGradGradGradGradGradGradGradGradGradGradGradGradGradGradGradGrad
 Berny optimization.
 Initialization pass.
                           ----------------------------
                           !    Initial Parameters    !
                           ! (Angstroms and Degrees)  !
 --------------------------                            --------------------------
 ! Name  Definition              Value          Derivative Info.                !
 --------------------------------------------------------------------------------
 ! R1    R(1,2)                  2.4965         estimate D2E/DX2                !
 ! R2    R(1,3)                  2.4088         estimate D2E/DX2                !
 ! R3    R(1,4)                  2.3866         estimate D2E/DX2                !
 ! R4    R(1,5)                  2.6565         estimate D2E/DX2                !
 ! R5    R(1,6)                  2.8903         estimate D2E/DX2                !
 ! R6    R(1,9)                  2.9677         estimate D2E/DX2                !
 ! R7    R(1,23)                 2.6476         estimate D2E/DX2                !
 ! R8    R(1,45)                 2.8294         estimate D2E/DX2                !
 ! R9    R(1,46)                 2.5126         estimate D2E/DX2                !
 ! R10   R(2,9)                  2.2833         estimate D2E/DX2                !
 ! R11   R(2,12)                 2.613          estimate D2E/DX2                !
 ! R12   R(3,6)                  2.4305         estimate D2E/DX2                !
 ! R13   R(3,45)                 2.3488         estimate D2E/DX2                !
 ! R14   R(4,6)                  2.4473         estimate D2E/DX2                !
 ! R15   R(4,9)                  2.4024         estimate D2E/DX2                !
 ! R16   R(5,12)                 2.4576         estimate D2E/DX2                !
 ! R17   R(5,21)                 2.2674         estimate D2E/DX2                !
 ! R18   R(6,7)                  2.6179         estimate D2E/DX2                !
 ! R19   R(6,8)                  2.4873         estimate D2E/DX2                !
 ! R20   R(6,9)                  3.0726         estimate D2E/DX2                !
 ! R21   R(6,20)                 2.5314         estimate D2E/DX2                !
 ! R22   R(6,42)                 2.9047         estimate D2E/DX2                !
 ! R23   R(6,44)                 2.5407         estimate D2E/DX2                !
 ! R24   R(6,45)                 2.8919         estimate D2E/DX2                !
 ! R25   R(7,13)                 2.5571         estimate D2E/DX2                !
 ! R26   R(7,18)                 2.2225         estimate D2E/DX2                !
 ! R27   R(8,9)                  2.33           estimate D2E/DX2                !
 ! R28   R(8,13)                 2.5887         estimate D2E/DX2                !
 ! R29   R(9,11)                 2.4518         estimate D2E/DX2                !
 ! R30   R(9,26)                 2.6234         estimate D2E/DX2                !
 ! R31   R(10,13)                2.5236         estimate D2E/DX2                !
 ! R32   R(10,24)                2.2147         estimate D2E/DX2                !
 ! R33   R(11,12)                2.5237         estimate D2E/DX2                !
 ! R34   R(11,27)                2.5646         estimate D2E/DX2                !
 ! R35   R(12,14)                2.4775         estimate D2E/DX2                !
 ! R36   R(12,15)                2.4462         estimate D2E/DX2                !
 ! R37   R(12,21)                2.8566         estimate D2E/DX2                !
 ! R38   R(12,51)                2.9947         estimate D2E/DX2                !
 ! R39   R(12,52)                2.4709         estimate D2E/DX2                !
 ! R40   R(12,54)                2.7224         estimate D2E/DX2                !
 ! R41   R(13,16)                2.4593         estimate D2E/DX2                !
 ! R42   R(13,17)                2.4163         estimate D2E/DX2                !
 ! R43   R(13,18)                3.0706         estimate D2E/DX2                !
 ! R44   R(13,24)                3.026          estimate D2E/DX2                !
 ! R45   R(13,36)                2.7158         estimate D2E/DX2                !
 ! R46   R(13,37)                2.4429         estimate D2E/DX2                !
 ! R47   R(13,39)                3.0071         estimate D2E/DX2                !
 ! R48   R(14,21)                2.4286         estimate D2E/DX2                !
 ! R49   R(14,51)                2.3212         estimate D2E/DX2                !
 ! R50   R(15,54)                2.2767         estimate D2E/DX2                !
 ! R51   R(16,18)                2.4875         estimate D2E/DX2                !
 ! R52   R(16,39)                2.3092         estimate D2E/DX2                !
 ! R53   R(17,24)                2.4538         estimate D2E/DX2                !
 ! R54   R(17,36)                2.3434         estimate D2E/DX2                !
 ! R55   R(18,19)                2.4417         estimate D2E/DX2                !
 ! R56   R(18,20)                2.4641         estimate D2E/DX2                !
 ! R57   R(18,39)                3.0917         estimate D2E/DX2                !
 ! R58   R(18,40)                2.3812         estimate D2E/DX2                !
 ! R59   R(18,42)                2.9213         estimate D2E/DX2                !
 ! R60   R(19,42)                2.2744         estimate D2E/DX2                !
 ! R61   R(20,42)                2.3165         estimate D2E/DX2                !
 ! R62   R(21,22)                2.3038         estimate D2E/DX2                !
 ! R63   R(21,23)                2.5248         estimate D2E/DX2                !
 ! R64   R(21,49)                2.5931         estimate D2E/DX2                !
 ! R65   R(21,51)                2.8697         estimate D2E/DX2                !
 ! R66   R(22,51)                2.3398         estimate D2E/DX2                !
 ! R67   R(23,48)                2.2967         estimate D2E/DX2                !
 ! R68   R(24,25)                2.5208         estimate D2E/DX2                !
 ! R69   R(24,26)                2.4075         estimate D2E/DX2                !
 ! R70   R(24,27)                3.046          estimate D2E/DX2                !
 ! R71   R(24,28)                2.4806         estimate D2E/DX2                !
 ! R72   R(25,36)                2.2415         estimate D2E/DX2                !
 ! R73   R(26,27)                2.4376         estimate D2E/DX2                !
 ! R74   R(27,28)                2.356          estimate D2E/DX2                !
 ! R75   R(27,29)                2.4372         estimate D2E/DX2                !
 ! R76   R(27,30)                2.9404         estimate D2E/DX2                !
 ! R77   R(27,55)                2.5125         estimate D2E/DX2                !
 ! R78   R(27,57)                2.9775         estimate D2E/DX2                !
 ! R79   R(28,30)                2.4394         estimate D2E/DX2                !
 ! R80   R(29,30)                2.49           estimate D2E/DX2                !
 ! R81   R(29,57)                2.3957         estimate D2E/DX2                !
 ! R82   R(30,31)                2.0937         estimate D2E/DX2                !
 ! R83   R(30,32)                2.398          estimate D2E/DX2                !
 ! R84   R(30,34)                2.6365         estimate D2E/DX2                !
 ! R85   R(32,33)                2.3026         estimate D2E/DX2                !
 ! R86   R(33,34)                2.2137         estimate D2E/DX2                !
 ! R87   R(33,35)                2.2085         estimate D2E/DX2                !
 ! R88   R(33,59)                2.1186         estimate D2E/DX2                !
 ! R89   R(35,36)                2.7033         estimate D2E/DX2                !
 ! R90   R(36,37)                2.4217         estimate D2E/DX2                !
 ! R91   R(36,38)                2.2597         estimate D2E/DX2                !
 ! R92   R(37,39)                2.5335         estimate D2E/DX2                !
 ! R93   R(38,39)                2.5842         estimate D2E/DX2                !
 ! R94   R(39,40)                2.3275         estimate D2E/DX2                !
 ! R95   R(39,41)                2.1418         estimate D2E/DX2                !
 ! R96   R(42,43)                2.4125         estimate D2E/DX2                !
 ! R97   R(42,44)                2.3179         estimate D2E/DX2                !
 ! R98   R(42,61)                2.3775         estimate D2E/DX2                !
 ! R99   R(43,61)                2.1788         estimate D2E/DX2                !
 ! R100  R(44,45)                2.4995         estimate D2E/DX2                !
 ! R101  R(45,46)                2.4623         estimate D2E/DX2                !
 ! R102  R(45,47)                2.1513         estimate D2E/DX2                !
 ! R103  R(46,48)                2.3583         estimate D2E/DX2                !
 ! R104  R(48,49)                2.1828         estimate D2E/DX2                !
 ! R105  R(48,50)                2.1193         estimate D2E/DX2                !
 ! R106  R(51,52)                2.5486         estimate D2E/DX2                !
 ! R107  R(51,53)                2.6102         estimate D2E/DX2                !
 ! R108  R(51,60)                2.1459         estimate D2E/DX2                !
 ! R109  R(52,54)                2.4029         estimate D2E/DX2                !
 ! R110  R(53,54)                2.2036         estimate D2E/DX2                !
 ! R111  R(54,55)                2.4392         estimate D2E/DX2                !
 ! R112  R(55,57)                2.3667         estimate D2E/DX2                !
 ! R113  R(56,57)                2.1607         estimate D2E/DX2                !
 ! R114  R(57,58)                2.126          estimate D2E/DX2                !
 ! A1    A(2,1,3)               80.6179         estimate D2E/DX2                !
 ! A2    A(2,1,4)               99.9651         estimate D2E/DX2                !
 ! A3    A(2,1,5)               84.4747         estimate D2E/DX2                !
 ! A4    A(2,1,6)               94.9167         estimate D2E/DX2                !
 ! A5    A(2,1,23)              79.7164         estimate D2E/DX2                !
 ! A6    A(2,1,45)             133.129          estimate D2E/DX2                !
 ! A7    A(3,1,4)              107.6523         estimate D2E/DX2                !
 ! A8    A(3,1,9)               90.4926         estimate D2E/DX2                !
 ! A9    A(3,1,23)              89.1406         estimate D2E/DX2                !
 ! A10   A(3,1,46)             106.7493         estimate D2E/DX2                !
 ! A11   A(4,1,5)               75.3481         estimate D2E/DX2                !
 ! A12   A(4,1,23)             162.9946         estimate D2E/DX2                !
 ! A13   A(4,1,45)              96.1268         estimate D2E/DX2                !
 ! A14   A(4,1,46)              85.0604         estimate D2E/DX2                !
 ! A15   A(5,1,6)              128.7908         estimate D2E/DX2                !
 ! A16   A(5,1,9)               79.8956         estimate D2E/DX2                !
 ! A17   A(5,1,23)              87.7312         estimate D2E/DX2                !
 ! A18   A(5,1,45)             142.3422         estimate D2E/DX2                !
 ! A19   A(5,1,46)              87.9725         estimate D2E/DX2                !
 ! A20   A(6,1,23)             142.7104         estimate D2E/DX2                !
 ! A21   A(6,1,46)              95.4603         estimate D2E/DX2                !
 ! A22   A(9,1,23)             127.3773         estimate D2E/DX2                !
 ! A23   A(9,1,45)             123.8216         estimate D2E/DX2                !
 ! A24   A(9,1,46)             136.9556         estimate D2E/DX2                !
 ! A25   A(23,1,45)             96.3083         estimate D2E/DX2                !
 ! A26   A(23,1,46)             92.7808         estimate D2E/DX2                !
 ! A27   A(1,2,12)              94.7241         estimate D2E/DX2                !
 ! A28   A(9,2,12)              84.4395         estimate D2E/DX2                !
 ! A29   A(1,5,12)              94.5619         estimate D2E/DX2                !
 ! A30   A(1,5,21)              88.4551         estimate D2E/DX2                !
 ! A31   A(1,6,7)              131.9688         estimate D2E/DX2                !
 ! A32   A(1,6,8)               97.7656         estimate D2E/DX2                !
 ! A33   A(1,6,20)             138.1363         estimate D2E/DX2                !
 ! A34   A(1,6,42)             128.6469         estimate D2E/DX2                !
 ! A35   A(1,6,44)              93.3938         estimate D2E/DX2                !
 ! A36   A(3,6,4)              105.0429         estimate D2E/DX2                !
 ! A37   A(3,6,8)               88.2656         estimate D2E/DX2                !
 ! A38   A(3,6,9)               87.6364         estimate D2E/DX2                !
 ! A39   A(3,6,20)              85.1693         estimate D2E/DX2                !
 ! A40   A(3,6,42)              98.2845         estimate D2E/DX2                !
 ! A41   A(3,6,44)             105.5222         estimate D2E/DX2                !
 ! A42   A(4,6,7)               79.6827         estimate D2E/DX2                !
 ! A43   A(4,6,8)               95.8498         estimate D2E/DX2                !
 ! A44   A(4,6,42)             132.6099         estimate D2E/DX2                !
 ! A45   A(4,6,44)              84.03           estimate D2E/DX2                !
 ! A46   A(4,6,45)              93.2001         estimate D2E/DX2                !
 ! A47   A(7,6,8)               84.0145         estimate D2E/DX2                !
 ! A48   A(7,6,9)               90.0895         estimate D2E/DX2                !
 ! A49   A(7,6,20)              89.3832         estimate D2E/DX2                !
 ! A50   A(7,6,42)              83.2054         estimate D2E/DX2                !
 ! A51   A(7,6,44)              81.9884         estimate D2E/DX2                !
 ! A52   A(7,6,45)             136.2912         estimate D2E/DX2                !
 ! A53   A(8,6,20)              77.6885         estimate D2E/DX2                !
 ! A54   A(8,6,42)             125.8845         estimate D2E/DX2                !
 ! A55   A(8,6,45)             139.6875         estimate D2E/DX2                !
 ! A56   A(9,6,20)             125.5364         estimate D2E/DX2                !
 ! A57   A(9,6,44)             134.0425         estimate D2E/DX2                !
 ! A58   A(9,6,45)             118.0476         estimate D2E/DX2                !
 ! A59   A(20,6,44)             99.7035         estimate D2E/DX2                !
 ! A60   A(20,6,45)             98.3365         estimate D2E/DX2                !
 ! A61   A(42,6,45)             70.2173         estimate D2E/DX2                !
 ! A62   A(6,7,13)              95.007          estimate D2E/DX2                !
 ! A63   A(6,7,18)              85.9423         estimate D2E/DX2                !
 ! A64   A(6,8,13)              97.4629         estimate D2E/DX2                !
 ! A65   A(9,8,13)             100.653          estimate D2E/DX2                !
 ! A66   A(1,9,8)               99.3534         estimate D2E/DX2                !
 ! A67   A(1,9,11)             108.3182         estimate D2E/DX2                !
 ! A68   A(1,9,26)             147.1061         estimate D2E/DX2                !
 ! A69   A(2,9,4)              105.8987         estimate D2E/DX2                !
 ! A70   A(2,9,6)               94.7814         estimate D2E/DX2                !
 ! A71   A(2,9,8)               96.9898         estimate D2E/DX2                !
 ! A72   A(2,9,11)             100.7511         estimate D2E/DX2                !
 ! A73   A(2,9,26)              92.3757         estimate D2E/DX2                !
 ! A74   A(4,9,8)              101.4172         estimate D2E/DX2                !
 ! A75   A(4,9,11)              94.0947         estimate D2E/DX2                !
 ! A76   A(4,9,26)             161.3742         estimate D2E/DX2                !
 ! A77   A(6,9,11)             145.0454         estimate D2E/DX2                !
 ! A78   A(6,9,26)             132.0526         estimate D2E/DX2                !
 ! A79   A(8,9,11)             152.2234         estimate D2E/DX2                !
 ! A80   A(8,9,26)              79.4138         estimate D2E/DX2                !
 ! A81   A(11,9,26)             78.6632         estimate D2E/DX2                !
 ! A82   A(9,11,12)             83.0605         estimate D2E/DX2                !
 ! A83   A(9,11,27)            101.262          estimate D2E/DX2                !
 ! A84   A(12,11,27)           100.3599         estimate D2E/DX2                !
 ! A85   A(2,12,5)              86.1822         estimate D2E/DX2                !
 ! A86   A(2,12,11)             90.5063         estimate D2E/DX2                !
 ! A87   A(2,12,14)             78.1898         estimate D2E/DX2                !
 ! A88   A(2,12,15)             80.8683         estimate D2E/DX2                !
 ! A89   A(2,12,21)             86.6752         estimate D2E/DX2                !
 ! A90   A(2,12,51)            126.7808         estimate D2E/DX2                !
 ! A91   A(2,12,54)            132.7195         estimate D2E/DX2                !
 ! A92   A(5,12,11)             82.5138         estimate D2E/DX2                !
 ! A93   A(5,12,14)            102.2808         estimate D2E/DX2                !
 ! A94   A(5,12,15)            162.0724         estimate D2E/DX2                !
 ! A95   A(5,12,51)             97.1007         estimate D2E/DX2                !
 ! A96   A(5,12,52)             86.1219         estimate D2E/DX2                !
 ! A97   A(5,12,54)            140.2458         estimate D2E/DX2                !
 ! A98   A(11,12,15)            85.2423         estimate D2E/DX2                !
 ! A99   A(11,12,21)           132.3358         estimate D2E/DX2                !
 ! A100  A(11,12,51)           142.6863         estimate D2E/DX2                !
 ! A101  A(11,12,52)            88.315          estimate D2E/DX2                !
 ! A102  A(11,12,54)            88.4353         estimate D2E/DX2                !
 ! A103  A(14,12,15)            87.2087         estimate D2E/DX2                !
 ! A104  A(14,12,52)           103.6603         estimate D2E/DX2                !
 ! A105  A(14,12,54)            94.9442         estimate D2E/DX2                !
 ! A106  A(15,12,21)           140.6177         estimate D2E/DX2                !
 ! A107  A(15,12,51)           100.5729         estimate D2E/DX2                !
 ! A108  A(15,12,52)           106.6023         estimate D2E/DX2                !
 ! A109  A(21,12,52)            88.4975         estimate D2E/DX2                !
 ! A110  A(21,12,54)           126.5268         estimate D2E/DX2                !
 ! A111  A(51,12,54)            68.0675         estimate D2E/DX2                !
 ! A112  A(7,13,8)              83.2412         estimate D2E/DX2                !
 ! A113  A(7,13,10)             73.836          estimate D2E/DX2                !
 ! A114  A(7,13,16)             96.923          estimate D2E/DX2                !
 ! A115  A(7,13,24)            119.4574         estimate D2E/DX2                !
 ! A116  A(7,13,36)            137.6165         estimate D2E/DX2                !
 ! A117  A(7,13,37)             82.8483         estimate D2E/DX2                !
 ! A118  A(7,13,39)             94.4534         estimate D2E/DX2                !
 ! A119  A(8,13,10)             84.4968         estimate D2E/DX2                !
 ! A120  A(8,13,16)             81.6463         estimate D2E/DX2                !
 ! A121  A(8,13,17)             83.7937         estimate D2E/DX2                !
 ! A122  A(8,13,18)             84.3995         estimate D2E/DX2                !
 ! A123  A(8,13,24)             85.1954         estimate D2E/DX2                !
 ! A124  A(8,13,36)            137.4044         estimate D2E/DX2                !
 ! A125  A(8,13,39)            129.8149         estimate D2E/DX2                !
 ! A126  A(10,13,16)           164.1941         estimate D2E/DX2                !
 ! A127  A(10,13,17)            97.8336         estimate D2E/DX2                !
 ! A128  A(10,13,18)           119.0581         estimate D2E/DX2                !
 ! A129  A(10,13,36)            95.1487         estimate D2E/DX2                !
 ! A130  A(10,13,37)            89.0883         estimate D2E/DX2                !
 ! A131  A(10,13,39)           142.9545         estimate D2E/DX2                !
 ! A132  A(16,13,17)            88.2158         estimate D2E/DX2                !
 ! A133  A(16,13,24)           139.4014         estimate D2E/DX2                !
 ! A134  A(16,13,36)           100.1893         estimate D2E/DX2                !
 ! A135  A(16,13,37)           102.6751         estimate D2E/DX2                !
 ! A136  A(17,13,18)           139.7911         estimate D2E/DX2                !
 ! A137  A(17,13,37)           109.6403         estimate D2E/DX2                !
 ! A138  A(17,13,39)            99.3255         estimate D2E/DX2                !
 ! A139  A(18,13,24)           162.6675         estimate D2E/DX2                !
 ! A140  A(18,13,36)           130.2024         estimate D2E/DX2                !
 ! A141  A(18,13,37)            87.7289         estimate D2E/DX2                !
 ! A142  A(24,13,36)            65.724          estimate D2E/DX2                !
 ! A143  A(24,13,37)            99.3757         estimate D2E/DX2                !
 ! A144  A(24,13,39)           135.4179         estimate D2E/DX2                !
 ! A145  A(36,13,39)            69.7157         estimate D2E/DX2                !
 ! A146  A(24,17,36)            81.3074         estimate D2E/DX2                !
 ! A147  A(7,18,16)            105.6123         estimate D2E/DX2                !
 ! A148  A(7,18,19)            100.505          estimate D2E/DX2                !
 ! A149  A(7,18,20)            101.0929         estimate D2E/DX2                !
 ! A150  A(7,18,39)             99.5406         estimate D2E/DX2                !
 ! A151  A(7,18,40)            100.2467         estimate D2E/DX2                !
 ! A152  A(7,18,42)             90.0754         estimate D2E/DX2                !
 ! A153  A(13,18,19)           154.5339         estimate D2E/DX2                !
 ! A154  A(13,18,20)            96.4121         estimate D2E/DX2                !
 ! A155  A(13,18,40)            95.0311         estimate D2E/DX2                !
 ! A156  A(13,18,42)           128.4231         estimate D2E/DX2                !
 ! A157  A(16,18,19)           153.8754         estimate D2E/DX2                !
 ! A158  A(16,18,20)            79.285          estimate D2E/DX2                !
 ! A159  A(16,18,40)            94.0981         estimate D2E/DX2                !
 ! A160  A(16,18,42)           129.1751         estimate D2E/DX2                !
 ! A161  A(19,18,20)            95.2495         estimate D2E/DX2                !
 ! A162  A(19,18,39)           128.5536         estimate D2E/DX2                !
 ! A163  A(19,18,40)            81.73           estimate D2E/DX2                !
 ! A164  A(20,18,39)           126.2525         estimate D2E/DX2                !
 ! A165  A(20,18,40)           158.6406         estimate D2E/DX2                !
 ! A166  A(40,18,42)           130.9226         estimate D2E/DX2                !
 ! A167  A(6,20,18)             83.0466         estimate D2E/DX2                !
 ! A168  A(5,21,14)            109.788          estimate D2E/DX2                !
 ! A169  A(5,21,22)            102.0359         estimate D2E/DX2                !
 ! A170  A(5,21,23)            100.029          estimate D2E/DX2                !
 ! A171  A(5,21,49)             88.6094         estimate D2E/DX2                !
 ! A172  A(5,21,51)            105.3782         estimate D2E/DX2                !
 ! A173  A(12,21,22)           100.8556         estimate D2E/DX2                !
 ! A174  A(12,21,23)           103.3211         estimate D2E/DX2                !
 ! A175  A(12,21,49)           144.0575         estimate D2E/DX2                !
 ! A176  A(14,21,22)           101.9992         estimate D2E/DX2                !
 ! A177  A(14,21,23)            83.6617         estimate D2E/DX2                !
 ! A178  A(14,21,49)           160.5433         estimate D2E/DX2                !
 ! A179  A(22,21,23)           153.6846         estimate D2E/DX2                !
 ! A180  A(22,21,49)            79.404          estimate D2E/DX2                !
 ! A181  A(23,21,49)            87.0037         estimate D2E/DX2                !
 ! A182  A(23,21,51)           133.3301         estimate D2E/DX2                !
 ! A183  A(49,21,51)           131.4163         estimate D2E/DX2                !
 ! A184  A(1,23,21)             83.5096         estimate D2E/DX2                !
 ! A185  A(1,23,48)             78.7629         estimate D2E/DX2                !
 ! A186  A(21,23,48)            82.5404         estimate D2E/DX2                !
 ! A187  A(10,24,17)           105.7115         estimate D2E/DX2                !
 ! A188  A(10,24,25)            90.2143         estimate D2E/DX2                !
 ! A189  A(10,24,26)           102.1244         estimate D2E/DX2                !
 ! A190  A(10,24,27)           106.6463         estimate D2E/DX2                !
 ! A191  A(10,24,28)           101.8019         estimate D2E/DX2                !
 ! A192  A(13,24,25)            86.5704         estimate D2E/DX2                !
 ! A193  A(13,24,26)            97.3965         estimate D2E/DX2                !
 ! A194  A(13,24,27)           142.8039         estimate D2E/DX2                !
 ! A195  A(13,24,28)           153.404          estimate D2E/DX2                !
 ! A196  A(17,24,25)            91.3163         estimate D2E/DX2                !
 ! A197  A(17,24,26)            81.8431         estimate D2E/DX2                !
 ! A198  A(17,24,27)           127.3653         estimate D2E/DX2                !
 ! A199  A(17,24,28)           151.2247         estimate D2E/DX2                !
 ! A200  A(25,24,27)           128.548          estimate D2E/DX2                !
 ! A201  A(25,24,28)            80.2244         estimate D2E/DX2                !
 ! A202  A(26,24,28)           100.5834         estimate D2E/DX2                !
 ! A203  A(24,25,36)            81.8406         estimate D2E/DX2                !
 ! A204  A(9,26,24)             87.3136         estimate D2E/DX2                !
 ! A205  A(9,26,27)             99.9973         estimate D2E/DX2                !
 ! A206  A(11,27,24)            79.8357         estimate D2E/DX2                !
 ! A207  A(11,27,26)            80.0773         estimate D2E/DX2                !
 ! A208  A(11,27,28)            90.3988         estimate D2E/DX2                !
 ! A209  A(11,27,29)           160.4461         estimate D2E/DX2                !
 ! A210  A(11,27,30)           142.7615         estimate D2E/DX2                !
 ! A211  A(11,27,55)            84.2146         estimate D2E/DX2                !
 ! A212  A(11,27,57)           130.0741         estimate D2E/DX2                !
 ! A213  A(24,27,29)           104.7667         estimate D2E/DX2                !
 ! A214  A(24,27,30)            71.2029         estimate D2E/DX2                !
 ! A215  A(24,27,55)           142.7975         estimate D2E/DX2                !
 ! A216  A(24,27,57)           148.377          estimate D2E/DX2                !
 ! A217  A(26,27,28)           103.3421         estimate D2E/DX2                !
 ! A218  A(26,27,29)            88.2395         estimate D2E/DX2                !
 ! A219  A(26,27,30)            98.1751         estimate D2E/DX2                !
 ! A220  A(26,27,55)           156.38           estimate D2E/DX2                !
 ! A221  A(26,27,57)           133.5756         estimate D2E/DX2                !
 ! A222  A(28,27,29)           107.6334         estimate D2E/DX2                !
 ! A223  A(28,27,55)            94.2488         estimate D2E/DX2                !
 ! A224  A(28,27,57)           109.6252         estimate D2E/DX2                !
 ! A225  A(29,27,55)           101.4607         estimate D2E/DX2                !
 ! A226  A(30,27,55)           104.9835         estimate D2E/DX2                !
 ! A227  A(30,27,57)            77.3744         estimate D2E/DX2                !
 ! A228  A(24,28,30)            90.2269         estimate D2E/DX2                !
 ! A229  A(30,29,57)            98.4065         estimate D2E/DX2                !
 ! A230  A(27,30,31)           115.5809         estimate D2E/DX2                !
 ! A231  A(27,30,32)           109.1507         estimate D2E/DX2                !
 ! A232  A(27,30,34)           131.9261         estimate D2E/DX2                !
 ! A233  A(28,30,29)           103.4161         estimate D2E/DX2                !
 ! A234  A(28,30,31)           108.4331         estimate D2E/DX2                !
 ! A235  A(28,30,32)           129.8017         estimate D2E/DX2                !
 ! A236  A(28,30,34)            82.9675         estimate D2E/DX2                !
 ! A237  A(29,30,31)           100.8043         estimate D2E/DX2                !
 ! A238  A(29,30,32)            77.4336         estimate D2E/DX2                !
 ! A239  A(31,30,32)           120.8482         estimate D2E/DX2                !
 ! A240  A(31,30,34)            88.66           estimate D2E/DX2                !
 ! A241  A(32,30,34)            88.9129         estimate D2E/DX2                !
 ! A242  A(30,32,33)            85.8964         estimate D2E/DX2                !
 ! A243  A(32,33,34)           102.8064         estimate D2E/DX2                !
 ! A244  A(32,33,35)           109.9882         estimate D2E/DX2                !
 ! A245  A(32,33,59)           112.6863         estimate D2E/DX2                !
 ! A246  A(34,33,35)           108.9081         estimate D2E/DX2                !
 ! A247  A(34,33,59)           113.5581         estimate D2E/DX2                !
 ! A248  A(35,33,59)           108.7338         estimate D2E/DX2                !
 ! A249  A(30,34,33)            82.173          estimate D2E/DX2                !
 ! A250  A(33,35,36)           118.4968         estimate D2E/DX2                !
 ! A251  A(13,36,25)           100.405          estimate D2E/DX2                !
 ! A252  A(13,36,35)           143.0242         estimate D2E/DX2                !
 ! A253  A(13,36,38)           110.5798         estimate D2E/DX2                !
 ! A254  A(17,36,25)           101.7757         estimate D2E/DX2                !
 ! A255  A(17,36,35)            86.6526         estimate D2E/DX2                !
 ! A256  A(17,36,37)           112.9076         estimate D2E/DX2                !
 ! A257  A(17,36,38)           118.8915         estimate D2E/DX2                !
 ! A258  A(25,36,35)            88.996          estimate D2E/DX2                !
 ! A259  A(25,36,37)            90.8161         estimate D2E/DX2                !
 ! A260  A(25,36,38)           137.8579         estimate D2E/DX2                !
 ! A261  A(35,36,37)           160.0142         estimate D2E/DX2                !
 ! A262  A(35,36,38)            83.1515         estimate D2E/DX2                !
 ! A263  A(37,36,38)            83.6208         estimate D2E/DX2                !
 ! A264  A(36,37,39)            82.8492         estimate D2E/DX2                !
 ! A265  A(36,38,39)            84.9479         estimate D2E/DX2                !
 ! A266  A(13,39,38)            93.9654         estimate D2E/DX2                !
 ! A267  A(13,39,40)            97.8885         estimate D2E/DX2                !
 ! A268  A(13,39,41)           153.0892         estimate D2E/DX2                !
 ! A269  A(16,39,37)           104.3563         estimate D2E/DX2                !
 ! A270  A(16,39,38)           115.6016         estimate D2E/DX2                !
 ! A271  A(16,39,40)           100.476          estimate D2E/DX2                !
 ! A272  A(16,39,41)           104.05           estimate D2E/DX2                !
 ! A273  A(18,39,37)            85.6984         estimate D2E/DX2                !
 ! A274  A(18,39,38)           154.2973         estimate D2E/DX2                !
 ! A275  A(18,39,41)           120.33           estimate D2E/DX2                !
 ! A276  A(37,39,38)            75.2147         estimate D2E/DX2                !
 ! A277  A(37,39,40)            84.1254         estimate D2E/DX2                !
 ! A278  A(37,39,41)           149.7409         estimate D2E/DX2                !
 ! A279  A(38,39,40)           141.7002         estimate D2E/DX2                !
 ! A280  A(38,39,41)            83.2939         estimate D2E/DX2                !
 ! A281  A(40,39,41)           100.7383         estimate D2E/DX2                !
 ! A282  A(6,42,18)             69.2894         estimate D2E/DX2                !
 ! A283  A(6,42,19)            114.7149         estimate D2E/DX2                !
 ! A284  A(6,42,43)             99.6223         estimate D2E/DX2                !
 ! A285  A(6,42,61)            146.6468         estimate D2E/DX2                !
 ! A286  A(18,42,43)           145.6153         estimate D2E/DX2                !
 ! A287  A(18,42,44)           101.1922         estimate D2E/DX2                !
 ! A288  A(18,42,61)           144.0601         estimate D2E/DX2                !
 ! A289  A(19,42,20)           104.2572         estimate D2E/DX2                !
 ! A290  A(19,42,43)           145.5267         estimate D2E/DX2                !
 ! A291  A(19,42,44)           102.3691         estimate D2E/DX2                !
 ! A292  A(19,42,61)            94.4262         estimate D2E/DX2                !
 ! A293  A(20,42,43)            91.6555         estimate D2E/DX2                !
 ! A294  A(20,42,44)           113.5602         estimate D2E/DX2                !
 ! A295  A(20,42,61)           133.5954         estimate D2E/DX2                !
 ! A296  A(43,42,44)            98.7321         estimate D2E/DX2                !
 ! A297  A(44,42,61)           102.933          estimate D2E/DX2                !
 ! A298  A(42,44,45)            87.4963         estimate D2E/DX2                !
 ! A299  A(1,45,44)             95.7856         estimate D2E/DX2                !
 ! A300  A(1,45,47)            114.9589         estimate D2E/DX2                !
 ! A301  A(3,45,44)            109.4184         estimate D2E/DX2                !
 ! A302  A(3,45,46)            110.3604         estimate D2E/DX2                !
 ! A303  A(3,45,47)            103.0623         estimate D2E/DX2                !
 ! A304  A(6,45,46)             96.5461         estimate D2E/DX2                !
 ! A305  A(6,45,47)            155.8969         estimate D2E/DX2                !
 ! A306  A(44,45,46)            82.7578         estimate D2E/DX2                !
 ! A307  A(44,45,47)           144.4791         estimate D2E/DX2                !
 ! A308  A(46,45,47)            99.3201         estimate D2E/DX2                !
 ! A309  A(1,46,48)             80.4813         estimate D2E/DX2                !
 ! A310  A(45,46,48)            98.8406         estimate D2E/DX2                !
 ! A311  A(23,48,46)           106.8085         estimate D2E/DX2                !
 ! A312  A(23,48,49)           103.7017         estimate D2E/DX2                !
 ! A313  A(23,48,50)           116.5865         estimate D2E/DX2                !
 ! A314  A(46,48,49)           103.7281         estimate D2E/DX2                !
 ! A315  A(46,48,50)           116.483          estimate D2E/DX2                !
 ! A316  A(49,48,50)           108.0313         estimate D2E/DX2                !
 ! A317  A(21,49,48)            83.1776         estimate D2E/DX2                !
 ! A318  A(12,51,22)            96.1586         estimate D2E/DX2                !
 ! A319  A(12,51,53)            93.8667         estimate D2E/DX2                !
 ! A320  A(12,51,60)           155.0677         estimate D2E/DX2                !
 ! A321  A(14,51,22)           104.2267         estimate D2E/DX2                !
 ! A322  A(14,51,52)           105.9508         estimate D2E/DX2                !
 ! A323  A(14,51,53)           106.6834         estimate D2E/DX2                !
 ! A324  A(14,51,60)           103.1661         estimate D2E/DX2                !
 ! A325  A(21,51,52)            86.7259         estimate D2E/DX2                !
 ! A326  A(21,51,53)           151.6984         estimate D2E/DX2                !
 ! A327  A(21,51,60)           119.2697         estimate D2E/DX2                !
 ! A328  A(22,51,52)            83.6757         estimate D2E/DX2                !
 ! A329  A(22,51,53)           147.4313         estimate D2E/DX2                !
 ! A330  A(22,51,60)            99.2852         estimate D2E/DX2                !
 ! A331  A(52,51,53)            78.2633         estimate D2E/DX2                !
 ! A332  A(52,51,60)           149.0233         estimate D2E/DX2                !
 ! A333  A(53,51,60)            83.5162         estimate D2E/DX2                !
 ! A334  A(51,52,54)            80.6987         estimate D2E/DX2                !
 ! A335  A(51,53,54)            83.1123         estimate D2E/DX2                !
 ! A336  A(12,54,53)           112.3779         estimate D2E/DX2                !
 ! A337  A(12,54,55)           107.3682         estimate D2E/DX2                !
 ! A338  A(15,54,52)           114.7773         estimate D2E/DX2                !
 ! A339  A(15,54,53)           119.1908         estimate D2E/DX2                !
 ! A340  A(15,54,55)           101.8631         estimate D2E/DX2                !
 ! A341  A(52,54,53)            89.8503         estimate D2E/DX2                !
 ! A342  A(52,54,55)            92.0071         estimate D2E/DX2                !
 ! A343  A(53,54,55)           133.5164         estimate D2E/DX2                !
 ! A344  A(27,55,54)            87.6543         estimate D2E/DX2                !
 ! A345  A(54,55,57)            84.7135         estimate D2E/DX2                !
 ! A346  A(27,57,56)           110.2559         estimate D2E/DX2                !
 ! A347  A(27,57,58)           141.8297         estimate D2E/DX2                !
 ! A348  A(29,57,55)           107.1605         estimate D2E/DX2                !
 ! A349  A(29,57,56)           102.7275         estimate D2E/DX2                !
 ! A350  A(29,57,58)           118.6561         estimate D2E/DX2                !
 ! A351  A(55,57,56)           104.0502         estimate D2E/DX2                !
 ! A352  A(55,57,58)           114.7068         estimate D2E/DX2                !
 ! A353  A(56,57,58)           107.909          estimate D2E/DX2                !
 ! A354  L(2,1,46,3,-1)        187.3672         estimate D2E/DX2                !
 ! A355  L(3,1,5,2,-1)         165.0926         estimate D2E/DX2                !
 ! A356  L(3,6,7,4,-1)         184.7256         estimate D2E/DX2                !
 ! A357  L(4,6,20,3,-1)        190.2122         estimate D2E/DX2                !
 ! A358  L(8,6,44,1,-1)        191.1593         estimate D2E/DX2                !
 ! A359  L(9,6,42,7,-1)        173.2949         estimate D2E/DX2                !
 ! A360  L(2,12,52,5,-1)       172.3041         estimate D2E/DX2                !
 ! A361  L(11,12,14,2,-1)      168.696          estimate D2E/DX2                !
 ! A362  L(7,13,17,8,-1)       167.035          estimate D2E/DX2                !
 ! A363  L(8,13,37,7,-1)       166.0896         estimate D2E/DX2                !
 ! A364  L(39,18,42,7,-1)      189.616          estimate D2E/DX2                !
 ! A365  L(25,24,26,10,-1)     192.3387         estimate D2E/DX2                !
 ! A366  L(29,30,34,28,-1)     186.3835         estimate D2E/DX2                !
 ! A367  L(2,1,46,3,-2)        187.6359         estimate D2E/DX2                !
 ! A368  L(3,1,5,2,-2)         179.5219         estimate D2E/DX2                !
 ! A369  L(3,6,7,4,-2)         187.4196         estimate D2E/DX2                !
 ! A370  L(4,6,20,3,-2)        173.3805         estimate D2E/DX2                !
 ! A371  L(8,6,44,1,-2)        188.8092         estimate D2E/DX2                !
 ! A372  L(9,6,42,7,-2)        184.845          estimate D2E/DX2                !
 ! A373  L(2,12,52,5,-2)       179.8214         estimate D2E/DX2                !
 ! A374  L(11,12,14,2,-2)      185.8622         estimate D2E/DX2                !
 ! A375  L(7,13,17,8,-2)       172.8462         estimate D2E/DX2                !
 ! A376  L(8,13,37,7,-2)       182.6684         estimate D2E/DX2                !
 ! A377  L(39,18,42,7,-2)      179.2664         estimate D2E/DX2                !
 ! A378  L(25,24,26,10,-2)     183.7544         estimate D2E/DX2                !
 ! A379  L(29,30,34,28,-2)     167.3638         estimate D2E/DX2                !
 ! D1    D(3,1,2,12)           177.7767         estimate D2E/DX2                !
 ! D2    D(4,1,2,12)           -75.7822         estimate D2E/DX2                !
 ! D3    D(5,1,2,12)            -1.7451         estimate D2E/DX2                !
 ! D4    D(6,1,2,12)          -130.3105         estimate D2E/DX2                !
 ! D5    D(23,1,2,12)           86.9444         estimate D2E/DX2                !
 ! D6    D(45,1,2,12)          175.9737         estimate D2E/DX2                !
 ! D7    D(2,1,5,12)             1.8551         estimate D2E/DX2                !
 ! D8    D(2,1,5,21)            75.9423         estimate D2E/DX2                !
 ! D9    D(4,1,5,12)           103.6842         estimate D2E/DX2                !
 ! D10   D(4,1,5,21)           177.7713         estimate D2E/DX2                !
 ! D11   D(6,1,5,12)            93.7303         estimate D2E/DX2                !
 ! D12   D(6,1,5,21)           167.8175         estimate D2E/DX2                !
 ! D13   D(9,1,5,12)            50.5935         estimate D2E/DX2                !
 ! D14   D(9,1,5,21)           124.6807         estimate D2E/DX2                !
 ! D15   D(23,1,5,12)          -78.0277         estimate D2E/DX2                !
 ! D16   D(23,1,5,21)           -3.9405         estimate D2E/DX2                !
 ! D17   D(45,1,5,12)         -175.4195         estimate D2E/DX2                !
 ! D18   D(45,1,5,21)         -101.3324         estimate D2E/DX2                !
 ! D19   D(46,1,5,12)         -170.8929         estimate D2E/DX2                !
 ! D20   D(46,1,5,21)          -96.8057         estimate D2E/DX2                !
 ! D21   D(2,1,6,7)             96.253          estimate D2E/DX2                !
 ! D22   D(2,1,6,8)              7.3357         estimate D2E/DX2                !
 ! D23   D(2,1,6,20)           -72.8601         estimate D2E/DX2                !
 ! D24   D(2,1,6,42)          -142.7186         estimate D2E/DX2                !
 ! D25   D(2,1,6,44)           178.5264         estimate D2E/DX2                !
 ! D26   D(5,1,6,7)              9.3971         estimate D2E/DX2                !
 ! D27   D(5,1,6,8)            -79.5203         estimate D2E/DX2                !
 ! D28   D(5,1,6,20)          -159.7161         estimate D2E/DX2                !
 ! D29   D(5,1,6,42)           130.4254         estimate D2E/DX2                !
 ! D30   D(5,1,6,44)            91.6705         estimate D2E/DX2                !
 ! D31   D(23,1,6,7)           175.7209         estimate D2E/DX2                !
 ! D32   D(23,1,6,8)            86.8035         estimate D2E/DX2                !
 ! D33   D(23,1,6,20)            6.6078         estimate D2E/DX2                !
 ! D34   D(23,1,6,42)          -63.2508         estimate D2E/DX2                !
 ! D35   D(23,1,6,44)         -102.0057         estimate D2E/DX2                !
 ! D36   D(46,1,6,7)           -82.3928         estimate D2E/DX2                !
 ! D37   D(46,1,6,8)          -171.3102         estimate D2E/DX2                !
 ! D38   D(46,1,6,20)          108.4941         estimate D2E/DX2                !
 ! D39   D(46,1,6,42)           38.6355         estimate D2E/DX2                !
 ! D40   D(46,1,6,44)           -0.1194         estimate D2E/DX2                !
 ! D41   D(3,1,9,8)            -15.0358         estimate D2E/DX2                !
 ! D42   D(3,1,9,11)           167.4097         estimate D2E/DX2                !
 ! D43   D(3,1,9,26)            69.9058         estimate D2E/DX2                !
 ! D44   D(5,1,9,8)            176.432          estimate D2E/DX2                !
 ! D45   D(5,1,9,11)            -1.1225         estimate D2E/DX2                !
 ! D46   D(5,1,9,26)           -98.6265         estimate D2E/DX2                !
 ! D47   D(23,1,9,8)          -104.3305         estimate D2E/DX2                !
 ! D48   D(23,1,9,11)           78.115          estimate D2E/DX2                !
 ! D49   D(23,1,9,26)          -19.389          estimate D2E/DX2                !
 ! D50   D(45,1,9,8)            28.3774         estimate D2E/DX2                !
 ! D51   D(45,1,9,11)         -149.1771         estimate D2E/DX2                !
 ! D52   D(45,1,9,26)          113.319          estimate D2E/DX2                !
 ! D53   D(46,1,9,8)           100.5225         estimate D2E/DX2                !
 ! D54   D(46,1,9,11)          -77.032          estimate D2E/DX2                !
 ! D55   D(46,1,9,26)         -174.536          estimate D2E/DX2                !
 ! D56   D(2,1,23,21)          -81.2336         estimate D2E/DX2                !
 ! D57   D(2,1,23,48)         -164.8829         estimate D2E/DX2                !
 ! D58   D(3,1,23,21)         -161.854          estimate D2E/DX2                !
 ! D59   D(3,1,23,48)          114.4968         estimate D2E/DX2                !
 ! D60   D(4,1,23,21)            9.2312         estimate D2E/DX2                !
 ! D61   D(4,1,23,48)          -74.418          estimate D2E/DX2                !
 ! D62   D(5,1,23,21)            3.5598         estimate D2E/DX2                !
 ! D63   D(5,1,23,48)          -80.0894         estimate D2E/DX2                !
 ! D64   D(6,1,23,21)         -165.8122         estimate D2E/DX2                !
 ! D65   D(6,1,23,48)          110.5386         estimate D2E/DX2                !
 ! D66   D(9,1,23,21)          -71.8907         estimate D2E/DX2                !
 ! D67   D(9,1,23,48)         -155.5399         estimate D2E/DX2                !
 ! D68   D(45,1,23,21)         146.0023         estimate D2E/DX2                !
 ! D69   D(45,1,23,48)          62.3531         estimate D2E/DX2                !
 ! D70   D(46,1,23,21)          91.4181         estimate D2E/DX2                !
 ! D71   D(46,1,23,48)           7.7688         estimate D2E/DX2                !
 ! D72   D(2,1,45,44)          112.0096         estimate D2E/DX2                !
 ! D73   D(2,1,45,47)          -86.2769         estimate D2E/DX2                !
 ! D74   D(4,1,45,44)            2.192          estimate D2E/DX2                !
 ! D75   D(4,1,45,47)          163.9055         estimate D2E/DX2                !
 ! D76   D(5,1,45,44)          -71.7085         estimate D2E/DX2                !
 ! D77   D(5,1,45,47)           90.0049         estimate D2E/DX2                !
 ! D78   D(9,1,45,44)           49.7933         estimate D2E/DX2                !
 ! D79   D(9,1,45,47)         -148.4933         estimate D2E/DX2                !
 ! D80   D(23,1,45,44)        -166.1856         estimate D2E/DX2                !
 ! D81   D(23,1,45,47)          -4.4721         estimate D2E/DX2                !
 ! D82   D(3,1,46,48)          -97.4622         estimate D2E/DX2                !
 ! D83   D(4,1,46,48)          155.5693         estimate D2E/DX2                !
 ! D84   D(5,1,46,48)           80.1053         estimate D2E/DX2                !
 ! D85   D(6,1,46,48)         -151.1137         estimate D2E/DX2                !
 ! D86   D(9,1,46,48)          152.9419         estimate D2E/DX2                !
 ! D87   D(23,1,46,48)          -7.5232         estimate D2E/DX2                !
 ! D88   D(12,2,9,4)            88.7363         estimate D2E/DX2                !
 ! D89   D(12,2,9,6)           139.8312         estimate D2E/DX2                !
 ! D90   D(12,2,9,8)          -167.2422         estimate D2E/DX2                !
 ! D91   D(12,2,9,11)           -8.7133         estimate D2E/DX2                !
 ! D92   D(12,2,9,26)          -87.6214         estimate D2E/DX2                !
 ! D93   D(1,2,12,5)             1.8818         estimate D2E/DX2                !
 ! D94   D(1,2,12,11)           84.3445         estimate D2E/DX2                !
 ! D95   D(1,2,12,14)         -101.5177         estimate D2E/DX2                !
 ! D96   D(1,2,12,15)          169.4437         estimate D2E/DX2                !
 ! D97   D(1,2,12,21)          -48.0416         estimate D2E/DX2                !
 ! D98   D(1,2,12,51)          -94.1334         estimate D2E/DX2                !
 ! D99   D(1,2,12,54)          172.6821         estimate D2E/DX2                !
 ! D100  D(9,2,12,5)           -74.1486         estimate D2E/DX2                !
 ! D101  D(9,2,12,11)            8.314          estimate D2E/DX2                !
 ! D102  D(9,2,12,14)         -177.5481         estimate D2E/DX2                !
 ! D103  D(9,2,12,15)           93.4133         estimate D2E/DX2                !
 ! D104  D(9,2,12,21)         -124.072          estimate D2E/DX2                !
 ! D105  D(9,2,12,51)         -170.1639         estimate D2E/DX2                !
 ! D106  D(9,2,12,54)           96.6517         estimate D2E/DX2                !
 ! D107  D(1,3,6,45)            76.4658         estimate D2E/DX2                !
 ! D108  D(1,4,6,9)             79.2217         estimate D2E/DX2                !
 ! D109  D(1,5,12,2)            -1.7681         estimate D2E/DX2                !
 ! D110  D(1,5,12,11)          -92.7823         estimate D2E/DX2                !
 ! D111  D(1,5,12,14)           75.261          estimate D2E/DX2                !
 ! D112  D(1,5,12,15)          -45.4658         estimate D2E/DX2                !
 ! D113  D(1,5,12,51)          124.8453         estimate D2E/DX2                !
 ! D114  D(1,5,12,52)          178.4105         estimate D2E/DX2                !
 ! D115  D(1,5,12,54)         -171.1843         estimate D2E/DX2                !
 ! D116  D(1,5,21,14)          -82.6239         estimate D2E/DX2                !
 ! D117  D(1,5,21,22)          169.7611         estimate D2E/DX2                !
 ! D118  D(1,5,21,23)            4.1935         estimate D2E/DX2                !
 ! D119  D(1,5,21,49)           90.9034         estimate D2E/DX2                !
 ! D120  D(1,5,21,51)         -136.2831         estimate D2E/DX2                !
 ! D121  D(1,6,7,13)           -99.0776         estimate D2E/DX2                !
 ! D122  D(1,6,7,18)          -178.2586         estimate D2E/DX2                !
 ! D123  D(4,6,7,13)          -101.0843         estimate D2E/DX2                !
 ! D124  D(4,6,7,18)           179.7347         estimate D2E/DX2                !
 ! D125  D(8,6,7,13)            -4.0045         estimate D2E/DX2                !
 ! D126  D(8,6,7,18)           -83.1855         estimate D2E/DX2                !
 ! D127  D(9,6,7,13)           -51.8567         estimate D2E/DX2                !
 ! D128  D(9,6,7,18)          -131.0377         estimate D2E/DX2                !
 ! D129  D(20,6,7,13)           73.6809         estimate D2E/DX2                !
 ! D130  D(20,6,7,18)           -5.5001         estimate D2E/DX2                !
 ! D131  D(42,6,7,13)          123.2982         estimate D2E/DX2                !
 ! D132  D(42,6,7,18)           44.1172         estimate D2E/DX2                !
 ! D133  D(44,6,7,13)          173.5697         estimate D2E/DX2                !
 ! D134  D(44,6,7,18)           94.3887         estimate D2E/DX2                !
 ! D135  D(45,6,7,13)          175.1344         estimate D2E/DX2                !
 ! D136  D(45,6,7,18)           95.9534         estimate D2E/DX2                !
 ! D137  D(1,6,8,13)           135.6042         estimate D2E/DX2                !
 ! D138  D(3,6,8,13)          -172.135          estimate D2E/DX2                !
 ! D139  D(4,6,8,13)            82.9184         estimate D2E/DX2                !
 ! D140  D(7,6,8,13)             3.9743         estimate D2E/DX2                !
 ! D141  D(20,6,8,13)          -86.7021         estimate D2E/DX2                !
 ! D142  D(42,6,8,13)          -73.1592         estimate D2E/DX2                !
 ! D143  D(45,6,8,13)         -175.1061         estimate D2E/DX2                !
 ! D144  D(3,6,9,2)              5.3631         estimate D2E/DX2                !
 ! D145  D(3,6,9,11)           121.8756         estimate D2E/DX2                !
 ! D146  D(3,6,9,26)           -92.1916         estimate D2E/DX2                !
 ! D147  D(7,6,9,2)            177.0228         estimate D2E/DX2                !
 ! D148  D(7,6,9,11)           -66.4648         estimate D2E/DX2                !
 ! D149  D(7,6,9,26)            79.468          estimate D2E/DX2                !
 ! D150  D(20,6,9,2)            87.7169         estimate D2E/DX2                !
 ! D151  D(20,6,9,11)         -155.7707         estimate D2E/DX2                !
 ! D152  D(20,6,9,26)           -9.8379         estimate D2E/DX2                !
 ! D153  D(44,6,9,2)          -104.069          estimate D2E/DX2                !
 ! D154  D(44,6,9,11)           12.4434         estimate D2E/DX2                !
 ! D155  D(44,6,9,26)          158.3762         estimate D2E/DX2                !
 ! D156  D(45,6,9,2)           -37.9039         estimate D2E/DX2                !
 ! D157  D(45,6,9,11)           78.6086         estimate D2E/DX2                !
 ! D158  D(45,6,9,26)         -135.4586         estimate D2E/DX2                !
 ! D159  D(1,6,20,18)          176.9108         estimate D2E/DX2                !
 ! D160  D(3,6,20,18)          178.2674         estimate D2E/DX2                !
 ! D161  D(7,6,20,18)            4.9839         estimate D2E/DX2                !
 ! D162  D(8,6,20,18)           88.9919         estimate D2E/DX2                !
 ! D163  D(9,6,20,18)           94.6532         estimate D2E/DX2                !
 ! D164  D(44,6,20,18)         -76.7804         estimate D2E/DX2                !
 ! D165  D(45,6,20,18)        -131.8225         estimate D2E/DX2                !
 ! D166  D(1,6,42,18)         -174.474          estimate D2E/DX2                !
 ! D167  D(1,6,42,19)         -143.7885         estimate D2E/DX2                !
 ! D168  D(1,6,42,43)           39.3482         estimate D2E/DX2                !
 ! D169  D(1,6,42,61)            4.8381         estimate D2E/DX2                !
 ! D170  D(3,6,42,18)          137.025          estimate D2E/DX2                !
 ! D171  D(3,6,42,19)          167.7105         estimate D2E/DX2                !
 ! D172  D(3,6,42,43)           -9.1529         estimate D2E/DX2                !
 ! D173  D(3,6,42,61)          -43.663          estimate D2E/DX2                !
 ! D174  D(4,6,42,18)         -103.6142         estimate D2E/DX2                !
 ! D175  D(4,6,42,19)          -72.9287         estimate D2E/DX2                !
 ! D176  D(4,6,42,43)          110.2079         estimate D2E/DX2                !
 ! D177  D(4,6,42,61)           75.6978         estimate D2E/DX2                !
 ! D178  D(7,6,42,18)          -34.3873         estimate D2E/DX2                !
 ! D179  D(7,6,42,19)           -3.7019         estimate D2E/DX2                !
 ! D180  D(7,6,42,43)          179.4348         estimate D2E/DX2                !
 ! D181  D(7,6,42,61)          144.9247         estimate D2E/DX2                !
 ! D182  D(8,6,42,18)           43.1494         estimate D2E/DX2                !
 ! D183  D(8,6,42,19)           73.8348         estimate D2E/DX2                !
 ! D184  D(8,6,42,43)         -103.0285         estimate D2E/DX2                !
 ! D185  D(8,6,42,61)         -137.5386         estimate D2E/DX2                !
 ! D186  D(45,6,42,18)        -179.1218         estimate D2E/DX2                !
 ! D187  D(45,6,42,19)        -148.4363         estimate D2E/DX2                !
 ! D188  D(45,6,42,43)          34.7003         estimate D2E/DX2                !
 ! D189  D(45,6,42,61)           0.1902         estimate D2E/DX2                !
 ! D190  D(4,6,45,46)           -3.7256         estimate D2E/DX2                !
 ! D191  D(4,6,45,47)          127.2442         estimate D2E/DX2                !
 ! D192  D(7,6,45,46)           74.6726         estimate D2E/DX2                !
 ! D193  D(7,6,45,47)         -154.3576         estimate D2E/DX2                !
 ! D194  D(8,6,45,46)         -106.6511         estimate D2E/DX2                !
 ! D195  D(8,6,45,47)           24.3187         estimate D2E/DX2                !
 ! D196  D(9,6,45,46)          -49.3767         estimate D2E/DX2                !
 ! D197  D(9,6,45,47)           81.5931         estimate D2E/DX2                !
 ! D198  D(20,6,45,46)         172.5786         estimate D2E/DX2                !
 ! D199  D(20,6,45,47)         -56.4517         estimate D2E/DX2                !
 ! D200  D(42,6,45,46)         130.7397         estimate D2E/DX2                !
 ! D201  D(42,6,45,47)         -98.2906         estimate D2E/DX2                !
 ! D202  D(6,7,13,8)             3.8533         estimate D2E/DX2                !
 ! D203  D(6,7,13,10)           90.0578         estimate D2E/DX2                !
 ! D204  D(6,7,13,16)          -76.8374         estimate D2E/DX2                !
 ! D205  D(6,7,13,24)           84.4257         estimate D2E/DX2                !
 ! D206  D(6,7,13,36)          169.7465         estimate D2E/DX2                !
 ! D207  D(6,7,13,37)         -178.8151         estimate D2E/DX2                !
 ! D208  D(6,7,13,39)         -125.7533         estimate D2E/DX2                !
 ! D209  D(6,7,18,16)           87.5988         estimate D2E/DX2                !
 ! D210  D(6,7,18,19)          -91.7792         estimate D2E/DX2                !
 ! D211  D(6,7,18,20)            5.7586         estimate D2E/DX2                !
 ! D212  D(6,7,18,39)          135.85           estimate D2E/DX2                !
 ! D213  D(6,7,18,40)         -175.1674         estimate D2E/DX2                !
 ! D214  D(6,7,18,42)          -43.4164         estimate D2E/DX2                !
 ! D215  D(13,8,9,1)          -130.8648         estimate D2E/DX2                !
 ! D216  D(13,8,9,2)           173.6467         estimate D2E/DX2                !
 ! D217  D(13,8,9,4)           -78.5157         estimate D2E/DX2                !
 ! D218  D(13,8,9,11)           44.1488         estimate D2E/DX2                !
 ! D219  D(13,8,9,26)           82.5253         estimate D2E/DX2                !
 ! D220  D(6,8,13,7)            -4.0749         estimate D2E/DX2                !
 ! D221  D(6,8,13,10)          -78.3978         estimate D2E/DX2                !
 ! D222  D(6,8,13,16)           93.9777         estimate D2E/DX2                !
 ! D223  D(6,8,13,17)         -176.9211         estimate D2E/DX2                !
 ! D224  D(6,8,13,18)           41.5845         estimate D2E/DX2                !
 ! D225  D(6,8,13,24)         -124.5342         estimate D2E/DX2                !
 ! D226  D(6,8,13,36)         -170.0262         estimate D2E/DX2                !
 ! D227  D(6,8,13,39)           86.0971         estimate D2E/DX2                !
 ! D228  D(9,8,13,7)            76.2572         estimate D2E/DX2                !
 ! D229  D(9,8,13,10)            1.9343         estimate D2E/DX2                !
 ! D230  D(9,8,13,16)          174.3098         estimate D2E/DX2                !
 ! D231  D(9,8,13,17)          -96.589          estimate D2E/DX2                !
 ! D232  D(9,8,13,18)          121.9166         estimate D2E/DX2                !
 ! D233  D(9,8,13,24)          -44.2021         estimate D2E/DX2                !
 ! D234  D(9,8,13,36)          -89.694          estimate D2E/DX2                !
 ! D235  D(9,8,13,39)          166.4292         estimate D2E/DX2                !
 ! D236  D(1,9,11,12)          -47.3586         estimate D2E/DX2                !
 ! D237  D(1,9,11,27)         -146.5933         estimate D2E/DX2                !
 ! D238  D(2,9,11,12)            9.0484         estimate D2E/DX2                !
 ! D239  D(2,9,11,27)          -90.1863         estimate D2E/DX2                !
 ! D240  D(4,9,11,12)          -97.9976         estimate D2E/DX2                !
 ! D241  D(4,9,11,27)          162.7678         estimate D2E/DX2                !
 ! D242  D(6,9,11,12)         -105.7683         estimate D2E/DX2                !
 ! D243  D(6,9,11,27)          154.997          estimate D2E/DX2                !
 ! D244  D(8,9,11,12)          137.8247         estimate D2E/DX2                !
 ! D245  D(8,9,11,27)           38.59           estimate D2E/DX2                !
 ! D246  D(26,9,11,12)          99.3328         estimate D2E/DX2                !
 ! D247  D(26,9,11,27)           0.0981         estimate D2E/DX2                !
 ! D248  D(1,9,26,24)         -176.6151         estimate D2E/DX2                !
 ! D249  D(1,9,26,27)          106.1727         estimate D2E/DX2                !
 ! D250  D(2,9,26,24)          177.6015         estimate D2E/DX2                !
 ! D251  D(2,9,26,27)          100.3893         estimate D2E/DX2                !
 ! D252  D(4,9,26,24)            8.6299         estimate D2E/DX2                !
 ! D253  D(4,9,26,27)          -68.5822         estimate D2E/DX2                !
 ! D254  D(6,9,26,24)          -83.7845         estimate D2E/DX2                !
 ! D255  D(6,9,26,27)         -160.9966         estimate D2E/DX2                !
 ! D256  D(8,9,26,24)          -85.7284         estimate D2E/DX2                !
 ! D257  D(8,9,26,27)         -162.9405         estimate D2E/DX2                !
 ! D258  D(11,9,26,24)          77.1093         estimate D2E/DX2                !
 ! D259  D(11,9,26,27)          -0.1028         estimate D2E/DX2                !
 ! D260  D(9,11,12,2)           -7.7595         estimate D2E/DX2                !
 ! D261  D(9,11,12,5)           78.323          estimate D2E/DX2                !
 ! D262  D(9,11,12,15)         -88.5529         estimate D2E/DX2                !
 ! D263  D(9,11,12,21)          78.2029         estimate D2E/DX2                !
 ! D264  D(9,11,12,51)         170.2292         estimate D2E/DX2                !
 ! D265  D(9,11,12,52)         164.6318         estimate D2E/DX2                !
 ! D266  D(9,11,12,54)        -140.482          estimate D2E/DX2                !
 ! D267  D(27,11,12,2)          92.479          estimate D2E/DX2                !
 ! D268  D(27,11,12,5)         178.5615         estimate D2E/DX2                !
 ! D269  D(27,11,12,15)         11.6856         estimate D2E/DX2                !
 ! D270  D(27,11,12,21)        178.4414         estimate D2E/DX2                !
 ! D271  D(27,11,12,51)        -89.5322         estimate D2E/DX2                !
 ! D272  D(27,11,12,52)        -95.1297         estimate D2E/DX2                !
 ! D273  D(27,11,12,54)        -40.2435         estimate D2E/DX2                !
 ! D274  D(9,11,27,24)         -51.5582         estimate D2E/DX2                !
 ! D275  D(9,11,27,26)          -0.1051         estimate D2E/DX2                !
 ! D276  D(9,11,27,28)        -103.5823         estimate D2E/DX2                !
 ! D277  D(9,11,27,29)          54.0412         estimate D2E/DX2                !
 ! D278  D(9,11,27,30)         -90.5868         estimate D2E/DX2                !
 ! D279  D(9,11,27,55)         162.1875         estimate D2E/DX2                !
 ! D280  D(9,11,27,57)         140.0082         estimate D2E/DX2                !
 ! D281  D(12,11,27,24)       -136.4618         estimate D2E/DX2                !
 ! D282  D(12,11,27,26)        -85.0087         estimate D2E/DX2                !
 ! D283  D(12,11,27,28)        171.5141         estimate D2E/DX2                !
 ! D284  D(12,11,27,29)        -30.8624         estimate D2E/DX2                !
 ! D285  D(12,11,27,30)       -175.4904         estimate D2E/DX2                !
 ! D286  D(12,11,27,55)         77.2839         estimate D2E/DX2                !
 ! D287  D(12,11,27,57)         55.1046         estimate D2E/DX2                !
 ! D288  D(2,12,21,22)        -174.9191         estimate D2E/DX2                !
 ! D289  D(2,12,21,23)          -5.3918         estimate D2E/DX2                !
 ! D290  D(2,12,21,49)          98.2039         estimate D2E/DX2                !
 ! D291  D(11,12,21,22)         97.4282         estimate D2E/DX2                !
 ! D292  D(11,12,21,23)        -93.0446         estimate D2E/DX2                !
 ! D293  D(11,12,21,49)         10.5512         estimate D2E/DX2                !
 ! D294  D(15,12,21,22)       -103.6619         estimate D2E/DX2                !
 ! D295  D(15,12,21,23)         65.8654         estimate D2E/DX2                !
 ! D296  D(15,12,21,49)        169.4611         estimate D2E/DX2                !
 ! D297  D(52,12,21,22)         11.0797         estimate D2E/DX2                !
 ! D298  D(52,12,21,23)       -179.393          estimate D2E/DX2                !
 ! D299  D(52,12,21,49)        -75.7973         estimate D2E/DX2                !
 ! D300  D(54,12,21,22)        -31.5371         estimate D2E/DX2                !
 ! D301  D(54,12,21,23)        137.9901         estimate D2E/DX2                !
 ! D302  D(54,12,21,49)       -118.4141         estimate D2E/DX2                !
 ! D303  D(2,12,51,22)          93.56           estimate D2E/DX2                !
 ! D304  D(2,12,51,53)        -117.4735         estimate D2E/DX2                !
 ! D305  D(2,12,51,60)         -34.5442         estimate D2E/DX2                !
 ! D306  D(5,12,51,22)           3.0243         estimate D2E/DX2                !
 ! D307  D(5,12,51,53)         151.9908         estimate D2E/DX2                !
 ! D308  D(5,12,51,60)        -125.0798         estimate D2E/DX2                !
 ! D309  D(11,12,51,22)        -83.9286         estimate D2E/DX2                !
 ! D310  D(11,12,51,53)         65.0378         estimate D2E/DX2                !
 ! D311  D(11,12,51,60)        147.9672         estimate D2E/DX2                !
 ! D312  D(15,12,51,22)       -179.9965         estimate D2E/DX2                !
 ! D313  D(15,12,51,53)        -31.0301         estimate D2E/DX2                !
 ! D314  D(15,12,51,60)         51.8993         estimate D2E/DX2                !
 ! D315  D(54,12,51,22)       -138.6987         estimate D2E/DX2                !
 ! D316  D(54,12,51,53)         10.2678         estimate D2E/DX2                !
 ! D317  D(54,12,51,60)         93.1971         estimate D2E/DX2                !
 ! D318  D(2,12,54,53)         107.2798         estimate D2E/DX2                !
 ! D319  D(2,12,54,55)         -97.3548         estimate D2E/DX2                !
 ! D320  D(5,12,54,53)         -87.1651         estimate D2E/DX2                !
 ! D321  D(5,12,54,55)          68.2003         estimate D2E/DX2                !
 ! D322  D(11,12,54,53)       -163.4762         estimate D2E/DX2                !
 ! D323  D(11,12,54,55)         -8.1107         estimate D2E/DX2                !
 ! D324  D(14,12,54,53)         28.8017         estimate D2E/DX2                !
 ! D325  D(14,12,54,55)       -175.8329         estimate D2E/DX2                !
 ! D326  D(21,12,54,53)        -18.5738         estimate D2E/DX2                !
 ! D327  D(21,12,54,55)        136.7917         estimate D2E/DX2                !
 ! D328  D(51,12,54,53)        -13.1682         estimate D2E/DX2                !
 ! D329  D(51,12,54,55)        142.1972         estimate D2E/DX2                !
 ! D330  D(8,13,18,19)        -103.7002         estimate D2E/DX2                !
 ! D331  D(8,13,18,20)          13.0496         estimate D2E/DX2                !
 ! D332  D(8,13,18,40)         174.9827         estimate D2E/DX2                !
 ! D333  D(8,13,18,42)         -29.6262         estimate D2E/DX2                !
 ! D334  D(10,13,18,19)        -23.1813         estimate D2E/DX2                !
 ! D335  D(10,13,18,20)         93.5685         estimate D2E/DX2                !
 ! D336  D(10,13,18,40)       -104.4984         estimate D2E/DX2                !
 ! D337  D(10,13,18,42)         50.8927         estimate D2E/DX2                !
 ! D338  D(17,13,18,19)       -177.1853         estimate D2E/DX2                !
 ! D339  D(17,13,18,20)        -60.4354         estimate D2E/DX2                !
 ! D340  D(17,13,18,40)        101.4977         estimate D2E/DX2                !
 ! D341  D(17,13,18,42)       -103.1112         estimate D2E/DX2                !
 ! D342  D(24,13,18,19)        -50.3342         estimate D2E/DX2                !
 ! D343  D(24,13,18,20)         66.4156         estimate D2E/DX2                !
 ! D344  D(24,13,18,40)       -131.6513         estimate D2E/DX2                !
 ! D345  D(24,13,18,42)         23.7398         estimate D2E/DX2                !
 ! D346  D(36,13,18,19)        103.976          estimate D2E/DX2                !
 ! D347  D(36,13,18,20)       -139.2741         estimate D2E/DX2                !
 ! D348  D(36,13,18,40)         22.659          estimate D2E/DX2                !
 ! D349  D(36,13,18,42)        178.0501         estimate D2E/DX2                !
 ! D350  D(37,13,18,19)         64.5117         estimate D2E/DX2                !
 ! D351  D(37,13,18,20)       -178.7385         estimate D2E/DX2                !
 ! D352  D(37,13,18,40)        -16.8054         estimate D2E/DX2                !
 ! D353  D(37,13,18,42)        138.5857         estimate D2E/DX2                !
 ! D354  D(7,13,24,25)         100.2065         estimate D2E/DX2                !
 ! D355  D(7,13,24,26)         -92.1147         estimate D2E/DX2                !
 ! D356  D(7,13,24,27)         -62.2886         estimate D2E/DX2                !
 ! D357  D(7,13,24,28)          40.182          estimate D2E/DX2                !
 ! D358  D(8,13,24,25)         179.6554         estimate D2E/DX2                !
 ! D359  D(8,13,24,26)         -12.6658         estimate D2E/DX2                !
 ! D360  D(8,13,24,27)          17.1603         estimate D2E/DX2                !
 ! D361  D(8,13,24,28)         119.6309         estimate D2E/DX2                !
 ! D362  D(16,13,24,25)       -109.1352         estimate D2E/DX2                !
 ! D363  D(16,13,24,26)         58.5435         estimate D2E/DX2                !
 ! D364  D(16,13,24,27)         88.3696         estimate D2E/DX2                !
 ! D365  D(16,13,24,28)       -169.1598         estimate D2E/DX2                !
 ! D366  D(18,13,24,25)        126.3867         estimate D2E/DX2                !
 ! D367  D(18,13,24,26)        -65.9345         estimate D2E/DX2                !
 ! D368  D(18,13,24,27)        -36.1084         estimate D2E/DX2                !
 ! D369  D(18,13,24,28)         66.3622         estimate D2E/DX2                !
 ! D370  D(36,13,24,25)        -32.3159         estimate D2E/DX2                !
 ! D371  D(36,13,24,26)        135.3628         estimate D2E/DX2                !
 ! D372  D(36,13,24,27)        165.189          estimate D2E/DX2                !
 ! D373  D(36,13,24,28)        -92.3404         estimate D2E/DX2                !
 ! D374  D(37,13,24,25)         13.1678         estimate D2E/DX2                !
 ! D375  D(37,13,24,26)       -179.1534         estimate D2E/DX2                !
 ! D376  D(37,13,24,27)       -149.3273         estimate D2E/DX2                !
 ! D377  D(37,13,24,28)        -46.8567         estimate D2E/DX2                !
 ! D378  D(39,13,24,25)        -34.2314         estimate D2E/DX2                !
 ! D379  D(39,13,24,26)        133.4474         estimate D2E/DX2                !
 ! D380  D(39,13,24,27)        163.2735         estimate D2E/DX2                !
 ! D381  D(39,13,24,28)        -94.2559         estimate D2E/DX2                !
 ! D382  D(7,13,36,25)         -70.2232         estimate D2E/DX2                !
[...]
 02706,-0.00002496,0.00007314,-0.00006211,0.00000609,-0.00009212,-0.000
 00348,0.00000840,-0.00000637,0.00005076,-0.00002416,0.00005464,-0.0000
 8886,0.00007110,-0.00005458,-0.00001793,-0.00000300,0.00001699,0.00002
 204,-0.00003061,0.00011336,-0.00028543,0.00011358,0.00005416,0.0002104
 7,0.00001650,-0.00011401,0.05786141,-0.00003030,-0.00007423,0.00014372
 ,0.00004481,0.00004246,-0.00004036,-0.00000785,0.00001452,-0.00001428,
 -0.00000627,0.00004443,-0.00007258,-0.00001359,0.00001898,-0.00001749,
 -0.00006335,-0.00006962,0.00011747,0.00008597,-0.00001440,0.00000303,0
 .00006142,-0.00004191,-0.00000860,-0.00001708,-0.00002851,-0.00001932,
 -0.00001066,-0.00014168,0.00007687,-0.00013491,0.00000164,0.00003884,0
 .00010007,-0.00003743,0.00005829,-0.00044902,-0.00005390,0.00009761,-0
 .00002119,-0.00000584,-0.00000583,0.00006100,-0.00009508,0.00003099,0.
 00001321,0.00003694,-0.00003012,-0.00011265,-0.00025342,-0.00014330,-0
 .00010892,0.00000121,0.00009519,-0.00001923,0.00000074,-0.00001036,0.0
 0002543,0.00001655,-0.00004785,-0.00004354,0.00003712,0.00003428,0.000
 03202,-0.00003497,-0.00000317,0.00002271,-0.00000797,-0.00001426,0.000
 28406,0.00022832,-0.00042881,0.00017451,0.00042133,-0.00005570,-0.0000
 5336,-0.00004049,0.00004463,0.00035125,0.00000223,0.00008728,-0.000320
 82,0.00022831,-0.00008160,0.00024132,-0.00000391,-0.00003814,-0.001654
 88,0.00077465,0.00084158,0.00044344,-0.00019927,-0.00063263,0.00556758
 ,0.00205821,0.00619374,-0.06892488,-0.14537355,0.10630573,-0.00060165,
 -0.00841652,0.00196783,-0.00949496,0.00592884,-0.00362116,0.00197992,0
 .00082265,0.00059171,-0.00004407,-0.00002915,-0.00003125,-0.00040059,0
 .00003625,0.00007261,0.00036687,-0.00013790,-0.00024708,-0.00002452,-0
 .00001544,0.00006107,-0.00019812,0.00023311,-0.00003253,0.00012555,0.0
 0002128,-0.00013251,0.00001390,0.00001355,0.00004260,0.00002166,-0.000
 00933,0.00003142,0.00002775,-0.00000809,-0.00015833,0.00000660,-0.0000
 1307,-0.00001156,-0.00001704,-0.00000024,0.00012397,0.00000645,0.00009
 110,-0.00014154,0.00002433,-0.00001822,-0.00001363,-0.00004378,-0.0000
 3963,0.00011680,-0.00009599,0.00001152,-0.00014120,-0.00000793,0.00001
 453,-0.00000635,0.00008714,-0.00003786,0.00008966,-0.00016950,0.000123
 29,-0.00008930,-0.00004498,-0.00002122,0.00002517,0.00002762,-0.000031
 26,0.00018838,-0.00037929,0.00008915,0.00002553,0.00028924,0.00002140,
 -0.00015009,0.07300465,0.14397049,0.00003075,0.00006818,-0.00014092,-0
 .00004891,-0.00005790,0.00001529,0.00000199,-0.00001403,0.00001442,0.0
 0000057,-0.00004128,0.00007404,0.00000546,-0.00001471,0.00001591,0.000
 05513,0.00005052,-0.00009854,-0.00012357,0.00000491,0.00002337,-0.0000
 6157,0.00003607,0.00000313,0.00008741,0.00005075,0.00005861,0.00004860
 ,0.00021508,-0.00007738,0.00010286,0.00000208,-0.00001549,-0.00009032,
 0.00002244,-0.00005494,0.00063617,0.00008370,-0.00030305,0.00002308,0.
 00000217,0.00000529,-0.00004159,0.00007350,-0.00000693,-0.00003865,-0.
 00001356,0.00002206,-0.00012428,0.00000705,0.00015024,0.00009810,-0.00
 002169,-0.00012956,0.00002193,0.00000720,0.00001919,-0.00003562,-0.000
 02104,0.00003422,0.00003912,-0.00004058,-0.00002050,-0.00002931,0.0000
 3101,0.00000255,-0.00002257,0.00000692,0.00001306,-0.00015418,-0.00039
 408,0.00057997,0.00003194,-0.00024148,-0.00060443,0.00002677,0.0000501
 6,-0.00003141,-0.00021944,-0.00011155,-0.00026435,0.00014091,-0.000174
 63,0.00021521,0.00019718,-0.00002332,0.00012137,0.00078967,-0.00130893
 ,-0.00040190,-0.00057747,0.00002947,0.00013011,0.00094091,0.00482696,-
 0.00440051,0.06130605,0.10598965,-0.11509446,-0.00564896,0.00707454,0.
 00885054,0.00863683,-0.00485622,0.00110622,-0.00247154,0.00042585,0.00
 083738,0.00011105,-0.00018482,-0.00018463,0.00042715,-0.00015953,0.000
 03350,-0.00029426,0.00010339,0.00028667,0.00001892,0.00000807,-0.00003
 811,0.00017311,-0.00019124,0.00000779,-0.00010579,-0.00003008,0.000131
 17,-0.00001362,-0.00001295,-0.00003796,-0.00001911,0.00001066,-0.00002
 716,-0.00002348,0.00000801,0.00013869,-0.00000592,0.00001171,0.0000108
 0,0.00001460,-0.00000011,-0.00010870,-0.00000118,-0.00008183,0.0001242
 1,-0.00002211,0.00001815,0.00001220,0.00003790,0.00003413,-0.00010058,
 0.00008622,-0.00000622,0.00011983,0.00000104,-0.00001307,0.00000968,-0
 .00008333,0.00003758,-0.00007732,0.00015957,-0.00008874,0.00008270,0.0
 0002991,0.00001277,-0.00000345,0.00000032,-0.00000293,-0.00015982,0.00
 013320,-0.00003984,0.00020746,-0.00018446,0.00004344,0.00005193,-0.063
 95099,-0.11124436,0.10902868,-0.00014397,-0.00028066,-0.00062817,-0.00
 017969,0.00002148,-0.00009568,-0.00004944,0.00008005,0.00007277,0.0001
 1001,0.00004446,0.00004943,-0.00089768,0.00064053,-0.00003048,-0.00047
 781,0.00015162,0.00008949,0.00001130,0.00000029,-0.00000814,-0.0000678
 7,0.00010935,-0.00010600,0.00043656,-0.00029232,0.00019472,0.00002783,
 0.00006228,-0.00002074,0.00002896,-0.00005071,-0.00076184,-0.00112841,
 0.00337919,-0.00401177,0.00000610,0.00007605,0.00002609,-0.00475621,0.
 00241156,-0.00304564,0.00025256,0.00024704,-0.00012303,0.00001898,-0.0
 0002984,0.00002130,-0.00000024,-0.00001697,0.00003031,0.00012941,-0.00
 001333,0.00005000,-0.00005674,-0.00000789,-0.00004993,-0.00000591,-0.0
 0000522,-0.00001552,0.00317851,-0.00372390,-0.00142685,-0.01089179,-0.
 00572108,-0.00329885,-0.00007112,0.00022222,0.00006859,-0.00009447,-0.
 00008432,0.00016036,-0.00004837,0.00000434,-0.00003602,0.00004337,0.00
 003221,-0.00008009,-0.00012591,-0.00024447,-0.00025475,0.00001790,0.00
 000566,0.00010825,0.00000445,0.00005073,0.00004300,-0.00003449,0.00016
 087,-0.00003339,0.00006235,-0.00003835,-0.00002761,-0.00001458,0.00003
 508,-0.00001015,-0.00001483,-0.00013859,0.00010707,-0.00001977,0.00002
 645,-0.00000682,0.00003539,0.00000715,-0.00000600,0.00001321,-0.000084
 96,0.00000552,-0.00000192,0.00002535,-0.00002195,-0.00002669,0.0000318
 7,-0.00002503,0.00003564,-0.00017305,0.00002241,-0.00003391,0.00001135
 ,-0.00004115,-0.00007147,0.00012229,-0.00001711,0.00021971,0.00007746,
 0.00001787,0.00001249,0.00005167,-0.00000846,0.00001828,-0.00007052,0.
 00004004,-0.00005192,0.00004181,-0.00021975,0.00011543,0.00003139,-0.0
 0000491,0.00000101,-0.00002890,0.00016793,-0.00002069,-0.00011829,-0.0
 0034480,-0.00009673,0.00031376,-0.00004957,-0.00011812,-0.00005876,0.0
 0031598,-0.09228141,0.01398352,-0.08902248,0.00157530,-0.00191484,-0.0
 0928853,0.00213866,-0.00344775,0.00303431,-0.00705979,0.00038038,-0.00
 252007,0.00032937,0.00017285,0.00030667,-0.00003026,0.00035532,-0.0005
 6694,-0.00004638,0.00049867,0.00011685,0.00023176,-0.00002980,-0.00021
 317,0.00006962,0.00010899,-0.00009507,0.10988354,0.00005592,0.00000386
 ,-0.00008989,0.00024549,-0.00001125,0.00053645,0.00001415,-0.00002447,
 0.00002002,0.00002252,-0.00002776,0.00000240,-0.00024952,0.00022735,-0
 .00008384,-0.00002672,0.00003330,-0.00002566,-0.00003053,0.00000619,0.
 00001064,-0.00002847,0.00007407,0.00003496,0.00034375,-0.00022736,-0.0
 0004431,-0.00001756,0.00003829,-0.00002950,0.00014524,-0.00038485,0.00
 010910,-0.00177404,0.00265650,-0.00356040,0.00017373,0.00000324,-0.000
 01386,0.00261527,0.00165984,0.00456263,-0.00009810,-0.00011249,-0.0001
 5887,0.00000093,-0.00001795,0.00001490,-0.00001503,0.00001008,0.000014
 08,0.00002046,-0.00002970,0.00000276,-0.00000910,0.00000394,-0.0000161
 9,-0.00000806,-0.00000535,0.00001034,0.00262542,-0.00291708,0.00007463
 ,-0.00948881,0.00019521,-0.00557069,-0.00030673,0.00033803,0.00045764,
 -0.00001287,-0.00011301,0.00010846,-0.00001537,-0.00000420,0.00000336,
 -0.00004298,0.00008354,-0.00002891,0.00026778,-0.00003731,0.00018364,-
 0.00005420,0.00002245,-0.00002972,-0.00004218,-0.00001007,0.00001036,0
 .00000581,0.00001312,-0.00001193,0.00000520,0.00000949,-0.00001369,0.0
 0001354,-0.00002251,0.00001179,-0.00003948,0.00003006,-0.00002494,0.00
 001266,-0.00000975,0.00000308,0.00004140,0.00000630,-0.00000667,-0.000
 06289,0.00003506,-0.00003605,-0.00000959,0.00000661,-0.00001734,0.0000
 2360,-0.00001392,0.00000662,-0.00003286,-0.00002958,0.00000909,-0.0000
 0422,0.00000667,-0.00000813,0.00000498,0.00000305,0.00000051,0.0000262
 0,0.00000709,0.00004156,0.00000032,0.00001042,-0.00001413,-0.00000988,
 -0.00000689,-0.00000251,-0.00002732,-0.00001011,0.00001387,0.00004794,
 0.00003565,-0.00000232,0.00000004,-0.00000580,-0.00000643,-0.00023006,
 -0.00003989,0.00000356,-0.00000321,0.00022251,-0.00012534,0.00003259,0
 .00002250,-0.00002266,0.01563930,-0.01946822,0.00963224,0.00033322,0.0
 0182835,0.00435878,-0.00136262,-0.00114836,0.00486075,-0.00152096,0.00
 076110,-0.00136880,0.00021053,0.00002389,0.00010917,0.00000275,-0.0000
 0335,0.00007107,-0.00002191,0.00002960,-0.00025291,-0.00004883,0.00001
 231,0.00004776,-0.00000481,-0.00000846,0.00000700,-0.00732656,0.016276
 45,-0.00020622,0.00011513,0.00020676,0.00007651,0.00004153,0.00068447,
 0.00011749,-0.00003961,-0.00004901,0.00011111,0.00000221,0.00001086,0.
 00056510,0.00004687,0.00041451,-0.00064680,0.00017180,0.00007061,-0.00
 001114,0.00000646,0.00000486,-0.00008873,0.00030575,0.00000904,0.00100
 772,-0.00079509,0.00005436,0.00005776,0.00009891,-0.00005008,0.0003864
 2,-0.00006882,-0.00013412,-0.00475731,0.00293644,-0.00476094,0.0001108
 7,0.00006086,0.00008314,-0.00233700,0.00215750,0.00232761,0.00012558,0
 .00006137,0.00018014,0.00003192,-0.00004602,0.00003316,-0.00001000,-0.
 00002508,0.00004496,0.00017545,-0.00002131,0.00002889,-0.00006596,0.00
 000088,-0.00006885,0.00003592,-0.00002465,-0.00001022,-0.00477058,0.00
 060036,0.00201843,-0.00236447,-0.00408565,-0.00105867,0.00025500,0.000
 82017,0.00031252,-0.00004890,-0.00014849,0.00021109,-0.00009278,0.0000
 0984,-0.00004148,-0.00002974,0.00005266,-0.00000780,0.00016837,-0.0003
 9774,-0.00041134,0.00000430,0.00005105,0.00013350,-0.00002056,-0.00002
 918,0.00001597,-0.00006637,0.00012917,-0.00004338,0.00008239,-0.000020
 45,-0.00005817,-0.00000825,0.00003199,-0.00000642,-0.00006800,-0.00013
 018,0.00010585,-0.00000869,0.00002585,-0.00000512,0.00010028,0.0000156
 5,-0.00001229,-0.00003827,-0.00011022,-0.00001877,-0.00000871,0.000036
 29,-0.00004084,-0.00001380,0.00004022,-0.00003167,0.00001915,-0.000232
 06,0.00004148,-0.00004351,0.00001831,-0.00005761,-0.00008441,0.0001530
 2,-0.00002117,0.00028265,0.00006974,0.00004400,0.00000167,0.00003528,-
 0.00003903,0.00002193,-0.00005841,0.00004861,-0.00002258,-0.00008400,-
 0.00013602,-0.00001405,-0.00003505,-0.00005105,-0.00000800,-0.00000311
 ,0.00006769,0.00077207,0.00011540,-0.00069950,0.00019387,-0.00038321,-
 0.00006032,-0.00017206,-0.00013959,0.00050207,-0.10141049,0.00701792,-
 0.13836323,-0.00081822,-0.00200845,-0.00190950,0.00232674,0.00510256,-
 0.01303563,0.00000559,0.00187080,-0.00071720,-0.00042350,-0.00009811,0
 .00042280,0.00008100,0.00015418,-0.00020314,-0.00002177,0.00043038,0.0
 0019097,0.00019693,-0.00006415,-0.00019064,0.00008101,0.00012752,-0.00
 011146,0.11140751,-0.01377028,0.15405268,0.00115664,0.00120656,-0.0006
 8897,-0.00016570,-0.00020288,0.00017817,-0.00045238,-0.00057957,0.0007
 1996,-0.00017406,0.00085087,-0.00048055,-0.00001585,-0.00004283,0.0000
 0807,-0.00615165,-0.00183589,0.00268544,-0.00001403,0.00029084,-0.0000
 7208,0.00088120,-0.00122496,-0.00056381,0.00172973,-0.00008582,0.00022
 570,-0.00018529,0.00000458,0.00006665,-0.00023471,0.00021381,0.0001933
 8,-0.00012529,0.00006265,-0.00017416,0.00024307,-0.00027738,-0.0002773
 0,0.00005107,-0.00004632,0.00003591,0.00002322,-0.00000979,0.00000112,
 0.00001116,0.00021657,0.00016619,0.00005700,0.00007906,-0.00004560,-0.
 00389673,-0.00407770,0.00105099,0.00395352,0.00221817,-0.00143174,0.00
 020726,-0.00259448,0.00142627,-0.00007955,0.00006400,0.00004355,-0.000
 00165,0.00001149,0.00001550,-0.00008980,-0.00006626,0.00002011,0.00005
 563,0.00005795,-0.00012586,0.00004778,0.00001257,0.00002976,0.00003651
 ,-0.00000853,0.00000025,0.00008313,0.00004324,-0.00003506,0.00000367,0
 .00001392,-0.00002483,-0.00001360,0.00001048,0.00000836,0.00000234,-0.
 00005330,0.00001622,-0.00004332,0.00000180,0.00002494,0.00001268,-0.00
 002443,0.00000988,0.00003008,0.00009198,-0.00008149,0.00001605,-0.0000
 1710,0.00000787,-0.00005726,-0.00000976,0.00000699,0.00004855,0.000066
 87,0.00006200,0.00000552,-0.00000362,0.00003180,-0.00002221,-0.0000334
 8,0.00005069,-0.00018845,0.00039090,-0.00043639,0.00079954,0.00053424,
 -0.00025045,0.00013883,-0.00018993,0.00001089,-0.04169109,-0.01847029,
 0.04359859,-0.08229134,-0.04050425,-0.04447589,-0.00246108,0.00130824,
 -0.00203043,-0.00374393,-0.00167638,-0.00310597,-0.00054776,0.00085981
 ,0.00036381,-0.00000656,0.00018931,-0.00098603,0.00015015,-0.00004028,
 0.00066059,-0.00013711,0.00001632,-0.00005214,0.00010927,0.00012300,-0
 .00016731,0.00009224,0.00003022,0.00012373,-0.00002762,-0.00001083,0.0
 0002900,-0.00002086,0.00004402,-0.00003680,0.00004928,0.00004096,0.000
 05242,0.00003368,-0.00000309,-0.00003599,-0.00000486,-0.00001473,-0.00
 001589,0.00007750,-0.00001098,-0.00005686,-0.00008793,0.00000108,0.000
 06999,-0.00005386,-0.00008451,0.00007292,-0.00008912,-0.00000525,-0.00
 012144,0.13296837,0.00021842,0.00151846,-0.00143623,-0.00008679,-0.000
 14284,0.00026963,-0.00064947,0.00026318,0.00044179,0.00034270,0.001087
 08,-0.00002708,0.00002807,-0.00013913,-0.00000663,-0.00996235,-0.00309
 180,0.00169132,0.00013299,0.00040940,0.00002285,0.00232093,0.00068381,
 -0.00040552,0.00125390,-0.00115838,-0.00070607,-0.00024064,-0.00005007
 ,0.00011539,-0.00024710,0.00060761,0.00032800,-0.00024816,0.00013012,-
 0.00014623,0.00043833,-0.00019439,-0.00000954,0.00006778,-0.00002390,-
 0.00000702,0.00002927,-0.00001704,-0.00000234,-0.00001881,-0.00015124,
 0.00020116,-0.00001106,0.00009827,-0.00000760,0.00005125,0.00053317,-0
 .00247924,0.00224907,0.00072605,0.00436686,0.00280159,0.00210989,0.002
 23213,0.00010785,-0.00006450,0.00002329,-0.00006471,0.00003801,0.00001
 178,-0.00009805,-0.00008217,0.00006476,0.00010004,0.00013162,-0.000201
 12,0.00008083,-0.00006804,0.00005638,-0.00003912,0.00005802,0.00004095
 ,0.00021377,0.00007801,-0.00006322,-0.00001589,0.00005156,-0.00007014,
 -0.00002494,0.00000098,0.00000468,-0.00003268,-0.00011062,0.00005393,-
 0.00002147,0.00000737,0.00000502,0.00002095,-0.00004109,0.00002358,-0.
 00007200,0.00009120,-0.00008414,0.00003941,-0.00001137,0.00000572,0.00
 008083,0.00000725,-0.00000522,-0.00021881,0.00033077,-0.00002788,-0.00
 004385,-0.00003287,0.00000110,0.00024420,-0.00007218,0.00000837,-0.000
 21402,-0.00020791,0.00022387,-0.00006550,0.00010685,0.00023541,0.00005
 453,-0.00005486,-0.00001449,-0.01607454,-0.02069136,0.01629825,-0.0496
 9125,-0.03266450,-0.03068831,0.00494015,0.00233487,-0.00055401,-0.0007
 5096,0.00392856,-0.00265062,0.00014432,-0.00109193,0.00005346,0.000010
 90,-0.00000251,0.00037694,-0.00031680,0.00000752,0.00022026,-0.0000075
 1,-0.00001121,0.00003644,0.00007192,0.00007849,-0.00023521,0.00003720,
 -0.00000584,0.00012188,-0.00001840,-0.00004315,0.00003939,-0.00001891,
 0.00008117,-0.00004705,0.00010187,0.00002827,0.00001037,0.00004717,0.0
 0001100,-0.00001489,-0.00000195,-0.00000957,0.00001470,0.00005262,-0.0
 0002846,-0.00009056,-0.00007308,0.00000236,0.00006622,-0.00002898,-0.0
 0004223,0.00003755,-0.00007419,-0.00000640,-0.00009514,0.06314912,0.04
 477062,-0.00038917,-0.00057199,0.00202523,0.00004676,-0.00011113,-0.00
 033450,0.00097331,-0.00035025,-0.00086320,-0.00099576,-0.00070717,0.00
 000552,-0.00002721,0.00004305,-0.00005269,0.00751144,0.00035264,0.0007
 3659,-0.00025776,-0.00016763,0.00029904,-0.00204989,-0.00031709,-0.000
 51771,-0.00116155,0.00125500,0.00097860,0.00007237,0.00004410,-0.00004
 876,0.00007524,-0.00046294,-0.00012257,0.00032773,-0.00015732,0.000157
 82,-0.00018313,0.00050470,0.00002608,-0.00005159,0.00001595,0.00002276
 ,-0.00002077,0.00001071,0.00000158,0.00031598,0.00020961,0.00007990,-0
 .00001022,-0.00009049,0.00000923,-0.00035857,0.00027514,0.00215786,0.0
 0328321,-0.00063931,-0.00536492,0.00004060,0.00350817,0.00034519,-0.00
 011282,0.00013449,-0.00000206,0.00004975,-0.00004991,-0.00001835,0.000
 03445,0.00006575,-0.00001481,0.00004020,-0.00003075,0.00011515,-0.0000
 5048,0.00001067,-0.00003229,-0.00002974,-0.00005868,-0.00012356,-0.000
 07741,0.00001193,0.00001068,0.00000516,-0.00002257,0.00002448,0.000007
 44,-0.00001197,-0.00000314,-0.00000459,0.00004827,-0.00001561,0.000028
 54,-0.00000515,-0.00001235,-0.00001218,0.00002662,-0.00001907,0.000018
 18,-0.00007910,0.00006441,-0.00001635,0.00001730,-0.00000297,-0.000021
 41,0.00000242,-0.00000301,0.00009653,-0.00019099,0.00004173,-0.0000529
 5,0.00005933,-0.00005115,-0.00007974,0.00004973,-0.00000456,-0.0000659
 8,-0.00025756,-0.00009220,-0.00038262,0.00024027,-0.00065164,-0.000013
 13,0.00011917,-0.00004079,0.01796661,0.01353963,-0.04636747,-0.0334769
 9,-0.02635845,-0.00631189,0.00476421,-0.00167074,-0.00204336,-0.000025
 37,-0.00183663,0.00098601,-0.00028167,0.00112073,0.00016324,0.00047471
 ,0.00003150,-0.00050428,0.00070178,-0.00008444,0.00013591,-0.00018552,
 0.00008799,-0.00005403,-0.00009168,0.00001393,0.00017732,-0.00001672,0
 .00005887,-0.00012360,0.00000364,0.00004335,-0.00006029,0.00003091,-0.
 00008168,0.00005612,-0.00013275,-0.00002288,-0.00000285,-0.00004243,-0
 .00001557,0.00002500,0.00000665,0.00000083,0.00001156,-0.00006129,0.00
 002706,0.00005602,0.00006594,-0.00000305,-0.00006200,0.00003281,0.0000
 5178,-0.00004395,0.00006000,0.00000274,0.00008364,0.00370531,0.0123720
 5,0.05516898\\-0.00000539,0.00002231,0.00000419,0.00000180,-0.00000539
 ,0.00000572,-0.00000363,-0.00000013,-0.00000045,0.00000321,-0.00000117
 ,0.00000413,0.00000243,-0.00000833,-0.00000087,-0.00001577,-0.00003431
 ,-0.00001294,0.00000610,0.00000294,0.00000820,-0.00000031,0.00000453,0
 .00000483,0.00000637,0.00000057,-0.00000985,-0.00000294,-0.00000323,-0
 .00000149,0.00000111,-0.00000133,-0.00000069,-0.00001474,0.00000701,-0
 .00001076,0.00001356,0.00000302,0.00001695,0.00000347,0.00000056,-0.00
 000119,0.00000562,0.00000006,0.00000238,-0.00000215,-0.00000033,-0.000
 00232,-0.00000267,0.00000130,0.00000003,0.00000061,0.00000450,0.000002
 93,-0.00000329,-0.00000575,-0.00000544,-0.00000088,0.00000762,0.000004
 59,-0.00000296,0.00000250,-0.00000875,0.00000145,-0.00000066,0.0000052
 1,0.00001174,0.00000105,0.00000395,-0.00000402,0.00001090,-0.00000726,
 0.00000409,0.00000117,-0.00000241,-0.00000029,-0.00000261,0.00000228,0
 .00000693,0.00000746,-0.00000665,-0.00000077,0.00000087,-0.00000038,-0
 .00000032,0.00000068,-0.00000178,0.00000261,-0.00000269,0.00000858,-0.
 00000317,0.00000007,-0.00000380,-0.00000397,-0.00000281,0.00000212,-0.
 00000389,-0.00000364,-0.00000137,-0.00000125,0.00000373,-0.00000500,0.
 00000142,0.00000300,0.00000084,-0.00000203,-0.00000717,0.00000044,-0.0
 0000134,-0.00000011,0.00000027,-0.00000206,-0.00000045,-0.00000068,0.0
 0000095,0.00000542,-0.00000163,-0.00000225,-0.00000049,-0.00000057,-0.
 00000019,-0.00000036,0.00000033,0.00000069,0.00001615,-0.00001370,-0.0
 0001662,-0.00001079,-0.00000583,-0.00000119,-0.00000520,0.00000609,0.0
 0000973,-0.00001339,0.00000285,-0.00000443,0.00000267,0.00000481,0.000
 00047,-0.00000397,0.00000152,0.00000310,-0.00000011,-0.00000088,-0.000
 00077,-0.00000141,-0.00000293,-0.00000004,0.00000005,-0.00000115,-0.00
 000459,-0.00000436,0.00000136,0.00000029,0.00000055,0.00000054,0.00000
 176,0.00000032,0.00000002,0.00000465,-0.00000338,0.00000508,-0.0000049
 6,-0.00000057,0.00000106,-0.00000118,0.00000217,-0.00000096,0.00000043
 ,-0.00000013,0.00000520,0.00000058,-0.00000122,-0.00000134,-0.00000057
 ,0.00000018,0.00000046,0.00000198,0.00000141,-0.00000088,0.00001747,0.
 00001069,0.00000702\\\@
 The archive entry for this job was punched.


 IF OTHER PEOPLE ARE GOING TO TALK, CONVERSATION IS SIMPLY IMPOSSIBLE.

                                               -- WHISTLER'S PRINCIPLE
 Job cpu time:       5 days 14 hours 28 minutes 51.2 seconds.
 Elapsed time:       0 days  2 hours 56 minutes  0.7 seconds.
 File lengths (MBytes):  RWF=  12139 Int=      0 D2E=      0 Chk=    126 Scr=      2
 Normal termination of Gaussian 16 at Mon Feb  6 21:55:48 2023.
