 Entering Gaussian System, Link 0=g16
 Initial command:
 /home/chesagar/softwares/G16_AVX2//g16/l1.exe "/home/chesagar/scratch/Gau-150951.inp" -scrdir="/home/chesagar/scratch/"
 Entering Link 1 = /home/chesagar/softwares/G16_AVX2//g16/l1.exe PID=    150953.
  
 Copyright (c) 1988-2019, Gaussian, Inc.  All Rights Reserved.
  
 This is part of the Gaussian(R) 16 program.  It is based on
 the Gaussian(R) 09 system (copyright 2009, Gaussian, Inc.),
 the Gaussian(R) 03 system (copyright 2003, Gaussian, Inc.),
 the Gaussian(R) 98 system (copyright 1998, Gaussian, Inc.),
 the Gaussian(R) 94 system (copyright 1995, Gaussian, Inc.),
 the Gaussian 92(TM) system (copyright 1992, Gaussian, Inc.),
 the Gaussian 90(TM) system (copyright 1990, Gaussian, Inc.),
 the Gaussian 88(TM) system (copyright 1988, Gaussian, Inc.),
 the Gaussian 86(TM) system (copyright 1986, Carnegie Mellon
 University), and the Gaussian 82(TM) system (copyright 1983,
 Carnegie Mellon University). Gaussian is a federally registered
 trademark of Gaussian, Inc.
  
 This software contains proprietary and confidential information,
 including trade secrets, belonging to Gaussian, Inc.
  
 This software is provided under written license and may be
 used, copied, transmitted, or stored only in accord with that
 written license.
  
 The following legend is applicable only to US Government
 contracts under FAR:
  
                    RESTRICTED RIGHTS LEGEND
  
 Use, reproduction and disclosure by the US Government is
 subject to restrictions as set forth in subparagraphs (a)
 and (c) of the Commercial Computer Software - Restricted
 Rights clause in FAR 52.227-19.
  
 Gaussian, Inc.
 340 Quinnipiac St., Bldg. 40, Wallingford CT 06492
  
  
 ---------------------------------------------------------------
 Warning -- This program may not be used in any manner that
 competes with the business of Gaussian, Inc. or will provide
 assistance to any competitor of Gaussian, Inc.  The licensee
 of this program is prohibited from giving any competitor of
 Gaussian, Inc. access to this program.  By using this program,
 the user acknowledges that Gaussian, Inc. is engaged in the
 business of creating and licensing software in the field of
 computational chemistry and represents and warrants to the
 licensee that it is not a competitor of Gaussian, Inc. and that
 it will not use this program in any manner prohibited above.
 ---------------------------------------------------------------
  

 Cite this work as:
 Gaussian 16, Revision C.01,
 M. J. Frisch, G. W. Trucks, H. B. Schlegel, G. E. Scuseria, 
 M. A. Robb, J. R. Cheeseman, G. Scalmani, V. Barone, 
 G. A. Petersson, H. Nakatsuji, X. Li, M. Caricato, A. V. Marenich, 
 J. Bloino, B. G. Janesko, R. Gomperts, B. Mennucci, H. P. Hratchian, 
 J. V. Ortiz, A. F. Izmaylov, J. L. Sonnenberg, D. Williams-Young, 
 F. Ding, F. Lipparini, F. Egidi, J. Goings, B. Peng, A. Petrone, 
 T. Henderson, D. Ranasinghe, V. G. Zakrzewski, J. Gao, N. Rega, 
 G. Zheng, W. Liang, M. Hada, M. Ehara, K. Toyota, R. Fukuda, 
 J. Hasegawa, M. Ishida, T. Nakajima, Y. Honda, O. Kitao, H. Nakai, 
 T. Vreven, K. Throssell, J. A. Montgomery, Jr., J. E. Peralta, 
 F. Ogliaro, M. J. Bearpark, J. J. Heyd, E. N. Brothers, K. N. Kudin, 
 V. N. Staroverov, T. A. Keith, R. Kobayashi, J. Normand, 
 K. Raghavachari, A. P. Rendell, J. C. Burant, S. S. Iyengar, 
 J. Tomasi, M. Cossi, J. M. Millam, M. Klene, C. Adamo, R. Cammi, 
 J. W. Ochterski, R. L. Martin, K. Morokuma, O. Farkas, 
 J. B. Foresman, and D. J. Fox, Gaussian, Inc., Wallingford CT, 2019.
 
 ******************************************
 Gaussian 16:  ES64L-G16RevC.01  3-Jul-2019
                13-Feb-2023 
 ******************************************
 %nprocshared=46
 Will use up to   46 processors via shared memory.
 %mem=100GB
 ------------------------------------------------------
 # freq b3lyp/gen nosymm pseudo=read scf=maxcycles=1000
 ------------------------------------------------------
 1/10=4,30=1,38=1/1,3;
 2/12=2,15=1,17=6,18=5,40=1/2;
 3/5=7,11=2,16=1,17=8,25=1,30=1,71=2,74=-5,140=1/1,2,3;
 4//1;
 5/5=2,7=1000,38=5,98=1/2;
 8/6=4,10=90,11=11/1;
 11/6=1,8=1,9=11,15=111,16=1,31=1/1,2,10;
 10/6=1,31=1/2;
 6/7=2,8=2,9=2,10=2,28=1/1;
 7/8=1,10=1,25=1,30=1/1,2,3,16;
 1/10=4,30=1/3;
 99//99;
 -------------------
 Title Card Required
 -------------------
 Symbolic Z-matrix:
 Charge =  0 Multiplicity = 1
 42                   -0.2424    1.38457   12.87479 
 16                    1.57433   3.03771   12.53488 
 16                   -1.30276   3.35349   13.70028 
 16                   -0.9542    1.09836   10.63032 
 16                    1.62348  -0.28792   11.98102 
 42                   -2.32646   2.93509   11.44767 
 16                   -2.90045   2.68795   8.85664 
 16                   -0.99644   4.86454   10.72987 
 42                    0.4282    3.06487   10.49745 
 16                    0.09697   2.88017   7.96934 
 16                    2.42872   1.68085   9.63089 
 42                    3.44219   1.36269   11.90783 
 42                   -1.46509   4.72231   8.06641 
 16                    4.04133   1.64819   14.28213 
 16                    4.59724   3.47003   11.49124 
 16                   -3.21179   6.35392   8.85303 
 16                   -0.07287   6.65147   7.88704 
 42                   -4.42529   4.30129   8.98115 
 16                   -6.40846   3.17475   9.83065 
 16                   -4.36297   4.7373    11.4053 
 42                    2.6255   -0.314     14.03901 
 16                    4.19976  -1.99497   13.85179 
 16                    0.98168   1.14819   15.24722 
 42                    1.48565   4.80451   7.2962 
 16                    0.67188   4.2868    4.95378 
 16                    2.12594   4.85603   9.72706 
 42                    3.97232   3.51109   8.83758 
 16                    3.15498   2.97995   6.67854 
 16                    5.3612    5.55208   8.67965 
 42                    4.44773   4.90678   6.45417 
 16                    6.57574   4.43682   5.45004 
 16                    3.0596    6.73518   7.03868 
 42                    2.317     5.96617   4.92037 
 16                    4.05863   4.9056    3.98263 
 16                    0.78596   7.84415   4.73956 
 42                   -0.83602   5.97511   5.76471 
 16                   -2.35587   4.10605   5.87167 
 16                   -2.47055   7.19532   4.87892 
 42                   -3.91957   5.92951   6.66829 
 16                   -5.47357   4.18832   6.93742 
 16                   -5.2757    7.5417    6.26906 
 42                   -5.53696   2.59917   11.88779 
 16                   -4.324     3.31607   13.88375 
 16                   -3.95166   0.94907   11.66526 
 42                   -2.78165   1.53222   14.09315 
 16                   -1.70111  -0.61771   13.38165 
 16                   -2.69017   1.37678   16.20266 
 42                   -0.23599  -0.80015   15.21479 
 16                    1.18578  -2.35097   14.61862 
 16                   -1.09748  -1.42786   17.0502 
 42                    5.46355  -0.05084   13.5511 
 16                    4.88922  -0.45911   11.07981 
 16                    7.49375   0.96783   12.32331 
 42                    5.93218   1.68578   10.92666 
 16                    5.65182   1.63424   8.53064 
 16                    7.79509   3.70474   10.4497 
 42                    6.79106   3.72232   8.55315 
 16                    8.17689   4.22559   6.83475 
 16                    1.46918   7.00183   2.90609 
 16                    6.81836  -0.22886   15.2059 
 16                   -7.29914   2.06992   12.93497 
 

 GradGradGradGradGradGradGradGradGradGradGradGradGradGradGradGradGradGrad
 Berny optimization.
 Initialization pass.
 Trust Radius=3.00D-01 FncErr=1.00D-07 GrdErr=1.00D-07 EigMax=2.50D+02 EigMin=1.00D-04
 Number of steps in this run=      2 maximum allowed number of steps=      2.
 GradGradGradGradGradGradGradGradGradGradGradGradGradGradGradGradGradGrad

 Symmetry turned off by external request.
 Stoichiometry    Mo19S42
 Framework group  C1[X(Mo19S42)]
 Deg. of freedom   177
 Full point group                 C1      NOp   1
                          Input orientation:                          
 ---------------------------------------------------------------------
 Center     Atomic      Atomic             Coordinates (Angstroms)
 Number     Number       Type             X           Y           Z
 ---------------------------------------------------------------------
      1         42           0       -0.242397    1.384571   12.874789
      2         16           0        1.574325    3.037706   12.534879
      3         16           0       -1.302761    3.353488   13.700279
      4         16           0       -0.954204    1.098356   10.630320
      5         16           0        1.623482   -0.287917   11.981023
      6         42           0       -2.326461    2.935090   11.447673
      7         16           0       -2.900445    2.687953    8.856636
      8         16           0       -0.996436    4.864544   10.729866
      9         42           0        0.428196    3.064873   10.497448
     10         16           0        0.096966    2.880168    7.969336
     11         16           0        2.428723    1.680852    9.630887
     12         42           0        3.442187    1.362686   11.907833
     13         42           0       -1.465085    4.722308    8.066412
     14         16           0        4.041326    1.648193   14.282133
     15         16           0        4.597237    3.470030   11.491239
     16         16           0       -3.211790    6.353918    8.853025
     17         16           0       -0.072869    6.651471    7.887036
     18         42           0       -4.425287    4.301286    8.981152
     19         16           0       -6.408460    3.174747    9.830652
     20         16           0       -4.362969    4.737299   11.405296
     21         42           0        2.625502   -0.314003   14.039008
     22         16           0        4.199758   -1.994966   13.851786
     23         16           0        0.981684    1.148194   15.247224
     24         42           0        1.485649    4.804513    7.296199
     25         16           0        0.671880    4.286801    4.953777
     26         16           0        2.125940    4.856027    9.727057
     27         42           0        3.972318    3.511094    8.837577
     28         16           0        3.154976    2.979948    6.678535
     29         16           0        5.361200    5.552080    8.679653
     30         42           0        4.447735    4.906777    6.454174
     31         16           0        6.575742    4.436821    5.450043
     32         16           0        3.059600    6.735177    7.038679
     33         42           0        2.317001    5.966170    4.920374
     34         16           0        4.058626    4.905600    3.982633
     35         16           0        0.785962    7.844148    4.739560
     36         42           0       -0.836024    5.975114    5.764706
     37         16           0       -2.355865    4.106054    5.871674
     38         16           0       -2.470550    7.195317    4.878916
     39         42           0       -3.919569    5.929510    6.668293
     40         16           0       -5.473566    4.188322    6.937421
     41         16           0       -5.275699    7.541698    6.269063
     42         42           0       -5.536963    2.599170   11.887787
     43         16           0       -4.323998    3.316069   13.883751
     44         16           0       -3.951661    0.949069   11.665263
     45         42           0       -2.781645    1.532218   14.093147
     46         16           0       -1.701107   -0.617710   13.381649
     47         16           0       -2.690174    1.376779   16.202655
     48         42           0       -0.235987   -0.800152   15.214787
     49         16           0        1.185782   -2.350969   14.618623
     50         16           0       -1.097479   -1.427858   17.050199
     51         42           0        5.463548   -0.050841   13.551097
     52         16           0        4.889220   -0.459108   11.079806
     53         16           0        7.493746    0.967833   12.323310
     54         42           0        5.932176    1.685779   10.926665
     55         16           0        5.651824    1.634242    8.530644
     56         16           0        7.795093    3.704739   10.449697
     57         42           0        6.791055    3.722323    8.553145
     58         16           0        8.176889    4.225594    6.834748
     59         16           0        1.469175    7.001833    2.906087
     60         16           0        6.818359   -0.228862   15.205902
     61         16           0       -7.299138    2.069919   12.934965
 ---------------------------------------------------------------------
 Rotational constants (GHZ):           0.0103304           0.0097795           0.0053180
 General basis read from cards:  (5D, 7F)
 ======================================================================================================
                                       Pseudopotential Parameters
 ======================================================================================================
  Center     Atomic      Valence      Angular      Power
  Number     Number     Electrons     Momentum     of R      Exponent        Coefficient   SO-Coeffient
 ======================================================================================================
    1         42           14
                                      F and up 
                                                     0      537.9667807       -0.04694920    0.00000000
                                                     1      147.8982938      -20.20800840    0.00000000
                                                     2       45.7358898     -106.21163020    0.00000000
                                                     2       13.2911467      -41.81073680    0.00000000
                                                     2        4.7059961       -4.20541030    0.00000000
                                      S - F
                                                     0      110.2991760        2.80637170    0.00000000
                                                     1       23.2014645       44.51620120    0.00000000
                                                     2        5.3530131       82.77852270    0.00000000
                                      P - F
                                                     0       63.2901397        4.94208760    0.00000000
                                                     1       23.3315302       25.86049760    0.00000000
                                                     2       24.6759423      132.47087420    0.00000000
                                                     2        4.6493040       57.31497940    0.00000000
                                      D - F
                                                     0      104.4839977        3.00545910    0.00000000
                                                     1       66.2307245       26.36378510    0.00000000
                                                     2       39.1283176      183.38491990    0.00000000
                                                     2       13.1164437       98.44530680    0.00000000
                                                     2        3.6280263       22.49013770    0.00000000
    2         16
                                   No pseudopotential on this center.
    3         16
                                   No pseudopotential on this center.
    4         16
                                   No pseudopotential on this center.
    5         16
                                   No pseudopotential on this center.
    6         42           14
                                      F and up 
                                                     0      537.9667807       -0.04694920    0.00000000
                                                     1      147.8982938      -20.20800840    0.00000000
                                                     2       45.7358898     -106.21163020    0.00000000
                                                     2       13.2911467      -41.81073680    0.00000000
                                                     2        4.7059961       -4.20541030    0.00000000
                                      S - F
                                                     0      110.2991760        2.80637170    0.00000000
                                                     1       23.2014645       44.51620120    0.00000000
                                                     2        5.3530131       82.77852270    0.00000000
                                      P - F
                                                     0       63.2901397        4.94208760    0.00000000
                                                     1       23.3315302       25.86049760    0.00000000
                                                     2       24.6759423      132.47087420    0.00000000
                                                     2        4.6493040       57.31497940    0.00000000
                                      D - F
                                                     0      104.4839977        3.00545910    0.00000000
                                                     1       66.2307245       26.36378510    0.00000000
                                                     2       39.1283176      183.38491990    0.00000000
                                                     2       13.1164437       98.44530680    0.00000000
                                                     2        3.6280263       22.49013770    0.00000000
    7         16
                                   No pseudopotential on this center.
    8         16
                                   No pseudopotential on this center.
    9         42           14
                                      F and up 
                                                     0      537.9667807       -0.04694920    0.00000000
                                                     1      147.8982938      -20.20800840    0.00000000
                                                     2       45.7358898     -106.21163020    0.00000000
                                                     2       13.2911467      -41.81073680    0.00000000
                                                     2        4.7059961       -4.20541030    0.00000000
                                      S - F
                                                     0      110.2991760        2.80637170    0.00000000
                                                     1       23.2014645       44.51620120    0.00000000
                                                     2        5.3530131       82.77852270    0.00000000
                                      P - F
                                                     0       63.2901397        4.94208760    0.00000000
                                                     1       23.3315302       25.86049760    0.00000000
                                                     2       24.6759423      132.47087420    0.00000000
                                                     2        4.6493040       57.31497940    0.00000000
                                      D - F
                                                     0      104.4839977        3.00545910    0.00000000
                                                     1       66.2307245       26.36378510    0.00000000
                                                     2       39.1283176      183.38491990    0.00000000
                                                     2       13.1164437       98.44530680    0.00000000
                                                     2        3.6280263       22.49013770    0.00000000
   10         16
                                   No pseudopotential on this center.
   11         16
                                   No pseudopotential on this center.
   12         42           14
                                      F and up 
                                                     0      537.9667807       -0.04694920    0.00000000
                                                     1      147.8982938      -20.20800840    0.00000000
                                                     2       45.7358898     -106.21163020    0.00000000
                                                     2       13.2911467      -41.81073680    0.00000000
                                                     2        4.7059961       -4.20541030    0.00000000
                                      S - F
                                                     0      110.2991760        2.80637170    0.00000000
                                                     1       23.2014645       44.51620120    0.00000000
                                                     2        5.3530131       82.77852270    0.00000000
                                      P - F
                                                     0       63.2901397        4.94208760    0.00000000
                                                     1       23.3315302       25.86049760    0.00000000
                                                     2       24.6759423      132.47087420    0.00000000
                                                     2        4.6493040       57.31497940    0.00000000
                                      D - F
                                                     0      104.4839977        3.00545910    0.00000000
                                                     1       66.2307245       26.36378510    0.00000000
                                                     2       39.1283176      183.38491990    0.00000000
                                                     2       13.1164437       98.44530680    0.00000000
                                                     2        3.6280263       22.49013770    0.00000000
   13         42           14
                                      F and up 
                                                     0      537.9667807       -0.04694920    0.00000000
                                                     1      147.8982938      -20.20800840    0.00000000
                                                     2       45.7358898     -106.21163020    0.00000000
                                                     2       13.2911467      -41.81073680    0.00000000
                                                     2        4.7059961       -4.20541030    0.00000000
                                      S - F
                                                     0      110.2991760        2.80637170    0.00000000
                                                     1       23.2014645       44.51620120    0.00000000
                                                     2        5.3530131       82.77852270    0.00000000
                                      P - F
                                                     0       63.2901397        4.94208760    0.00000000
                                                     1       23.3315302       25.86049760    0.00000000
                                                     2       24.6759423      132.47087420    0.00000000
                                                     2        4.6493040       57.31497940    0.00000000
                                      D - F
                                                     0      104.4839977        3.00545910    0.00000000
                                                     1       66.2307245       26.36378510    0.00000000
                                                     2       39.1283176      183.38491990    0.00000000
                                                     2       13.1164437       98.44530680    0.00000000
                                                     2        3.6280263       22.49013770    0.00000000
   14         16
                                   No pseudopotential on this center.
   15         16
                                   No pseudopotential on this center.
   16         16
                                   No pseudopotential on this center.
   17         16
                                   No pseudopotential on this center.
   18         42           14
                                      F and up 
                                                     0      537.9667807       -0.04694920    0.00000000
                                                     1      147.8982938      -20.20800840    0.00000000
                                                     2       45.7358898     -106.21163020    0.00000000
                                                     2       13.2911467      -41.81073680    0.00000000
                                                     2        4.7059961       -4.20541030    0.00000000
                                      S - F
                                                     0      110.2991760        2.80637170    0.00000000
                                                     1       23.2014645       44.51620120    0.00000000
                                                     2        5.3530131       82.77852270    0.00000000
                                      P - F
                                                     0       63.2901397        4.94208760    0.00000000
                                                     1       23.3315302       25.86049760    0.00000000
                                                     2       24.6759423      132.47087420    0.00000000
                                                     2        4.6493040       57.31497940    0.00000000
                                      D - F
                                                     0      104.4839977        3.00545910    0.00000000
                                                     1       66.2307245       26.36378510    0.00000000
                                                     2       39.1283176      183.38491990    0.00000000
                                                     2       13.1164437       98.44530680    0.00000000
                                                     2        3.6280263       22.49013770    0.00000000
   19         16
                                   No pseudopotential on this center.
   20         16
                                   No pseudopotential on this center.
   21         42           14
                                      F and up 
                                                     0      537.9667807       -0.04694920    0.00000000
                                                     1      147.8982938      -20.20800840    0.00000000
                                                     2       45.7358898     -106.21163020    0.00000000
                                                     2       13.2911467      -41.81073680    0.00000000
                                                     2        4.7059961       -4.20541030    0.00000000
                                      S - F
                                                     0      110.2991760        2.80637170    0.00000000
                                                     1       23.2014645       44.51620120    0.00000000
                                                     2        5.3530131       82.77852270    0.00000000
                                      P - F
                                                     0       63.2901397        4.94208760    0.00000000
                                                     1       23.3315302       25.86049760    0.00000000
                                                     2       24.6759423      132.47087420    0.00000000
                                                     2        4.6493040       57.31497940    0.00000000
                                      D - F
                                                     0      104.4839977        3.00545910    0.00000000
                                                     1       66.2307245       26.36378510    0.00000000
                                                     2       39.1283176      183.38491990    0.00000000
                                                     2       13.1164437       98.44530680    0.00000000
                                                     2        3.6280263       22.49013770    0.00000000
   22         16
                                   No pseudopotential on this center.
   23         16
                                   No pseudopotential on this center.
   24         42           14
                                      F and up 
                                                     0      537.9667807       -0.04694920    0.00000000
                                                     1      147.8982938      -20.20800840    0.00000000
                                                     2       45.7358898     -106.21163020    0.00000000
                                                     2       13.2911467      -41.81073680    0.00000000
                                                     2        4.7059961       -4.20541030    0.00000000
                                      S - F
                                                     0      110.2991760        2.80637170    0.00000000
                                                     1       23.2014645       44.51620120    0.00000000
                                                     2        5.3530131       82.77852270    0.00000000
                                      P - F
                                                     0       63.2901397        4.94208760    0.00000000
                                                     1       23.3315302       25.86049760    0.00000000
                                                     2       24.6759423      132.47087420    0.00000000
                                                     2        4.6493040       57.31497940    0.00000000
                                      D - F
                                                     0      104.4839977        3.00545910    0.00000000
                                                     1       66.2307245       26.36378510    0.00000000
                                                     2       39.1283176      183.38491990    0.00000000
                                                     2       13.1164437       98.44530680    0.00000000
                                                     2        3.6280263       22.49013770    0.00000000
   25         16
                                   No pseudopotential on this center.
   26         16
                                   No pseudopotential on this center.
   27         42           14
                                      F and up 
                                                     0      537.9667807       -0.04694920    0.00000000
                                                     1      147.8982938      -20.20800840    0.00000000
                                                     2       45.7358898     -106.21163020    0.00000000
                                                     2       13.2911467      -41.81073680    0.00000000
                                                     2        4.7059961       -4.20541030    0.00000000
                                      S - F
                                                     0      110.2991760        2.80637170    0.00000000
                                                     1       23.2014645       44.51620120    0.00000000
                                                     2        5.3530131       82.77852270    0.00000000
                                      P - F
                                                     0       63.2901397        4.94208760    0.00000000
                                                     1       23.3315302       25.86049760    0.00000000
                                                     2       24.6759423      132.47087420    0.00000000
                                                     2        4.6493040       57.31497940    0.00000000
                                      D - F
                                                     0      104.4839977        3.00545910    0.00000000
                                                     1       66.2307245       26.36378510    0.00000000
                                                     2       39.1283176      183.38491990    0.00000000
                                                     2       13.1164437       98.44530680    0.00000000
                                                     2        3.6280263       22.49013770    0.00000000
   28         16
                                   No pseudopotential on this center.
   29         16
                                   No pseudopotential on this center.
   30         42           14
                                      F and up 
                                                     0      537.9667807       -0.04694920    0.00000000
                                                     1      147.8982938      -20.20800840    0.00000000
                                                     2       45.7358898     -106.21163020    0.00000000
                                                     2       13.2911467      -41.81073680    0.00000000
                                                     2        4.7059961       -4.20541030    0.00000000
                                      S - F
                                                     0      110.2991760        2.80637170    0.00000000
                                                     1       23.2014645       44.51620120    0.00000000
                                                     2        5.3530131       82.77852270    0.00000000
                                      P - F
                                                     0       63.2901397        4.94208760    0.00000000
                                                     1       23.3315302       25.86049760    0.00000000
                                                     2       24.6759423      132.47087420    0.00000000
                                                     2        4.6493040       57.31497940    0.00000000
                                      D - F
                                                     0      104.4839977        3.00545910    0.00000000
                                                     1       66.2307245       26.36378510    0.00000000
                                                     2       39.1283176      183.38491990    0.00000000
                                                     2       13.1164437       98.44530680    0.00000000
                                                     2        3.6280263       22.49013770    0.00000000
   31         16
                                   No pseudopotential on this center.
   32         16
                                   No pseudopotential on this center.
   33         42           14
                                      F and up 
                                                     0      537.9667807       -0.04694920    0.00000000
                                                     1      147.8982938      -20.20800840    0.00000000
                                                     2       45.7358898     -106.21163020    0.00000000
                                                     2       13.2911467      -41.81073680    0.00000000
                                                     2        4.7059961       -4.20541030    0.00000000
                                      S - F
                                                     0      110.2991760        2.80637170    0.00000000
                                                     1       23.2014645       44.51620120    0.00000000
                                                     2        5.3530131       82.77852270    0.00000000
                                      P - F
                                                     0       63.2901397        4.94208760    0.00000000
                                                     1       23.3315302       25.86049760    0.00000000
                                                     2       24.6759423      132.47087420    0.00000000
                                                     2        4.6493040       57.31497940    0.00000000
                                      D - F
                                                     0      104.4839977        3.00545910    0.00000000
                                                     1       66.2307245       26.36378510    0.00000000
                                                     2       39.1283176      183.38491990    0.00000000
                                                     2       13.1164437       98.44530680    0.00000000
                                                     2        3.6280263       22.49013770    0.00000000
   34         16
                                   No pseudopotential on this center.
   35         16
                                   No pseudopotential on this center.
   36         42           14
                                      F and up 
                                                     0      537.9667807       -0.04694920    0.00000000
                                                     1      147.8982938      -20.20800840    0.00000000
                                                     2       45.7358898     -106.21163020    0.00000000
                                                     2       13.2911467      -41.81073680    0.00000000
                                                     2        4.7059961       -4.20541030    0.00000000
                                      S - F
                                                     0      110.2991760        2.80637170    0.00000000
                                                     1       23.2014645       44.51620120    0.00000000
                                                     2        5.3530131       82.77852270    0.00000000
                                      P - F
                                                     0       63.2901397        4.94208760    0.00000000
                                                     1       23.3315302       25.86049760    0.00000000
                                                     2       24.6759423      132.47087420    0.00000000
                                                     2        4.6493040       57.31497940    0.00000000
                                      D - F
                                                     0      104.4839977        3.00545910    0.00000000
                                                     1       66.2307245       26.36378510    0.00000000
                                                     2       39.1283176      183.38491990    0.00000000
                                                     2       13.1164437       98.44530680    0.00000000
                                                     2        3.6280263       22.49013770    0.00000000
   37         16
                                   No pseudopotential on this center.
   38         16
                                   No pseudopotential on this center.
   39         42           14
                                      F and up 
                                                     0      537.9667807       -0.04694920    0.00000000
                                                     1      147.8982938      -20.20800840    0.00000000
                                                     2       45.7358898     -106.21163020    0.00000000
                                                     2       13.2911467      -41.81073680    0.00000000
                                                     2        4.7059961       -4.20541030    0.00000000
                                      S - F
                                                     0      110.2991760        2.80637170    0.00000000
                                                     1       23.2014645       44.51620120    0.00000000
                                                     2        5.3530131       82.77852270    0.00000000
                                      P - F
                                                     0       63.2901397        4.94208760    0.00000000
                                                     1       23.3315302       25.86049760    0.00000000
                                                     2       24.6759423      132.47087420    0.00000000
                                                     2        4.6493040       57.31497940    0.00000000
                                      D - F
                                                     0      104.4839977        3.00545910    0.00000000
                                                     1       66.2307245       26.36378510    0.00000000
                                                     2       39.1283176      183.38491990    0.00000000
                                                     2       13.1164437       98.44530680    0.00000000
                                                     2        3.6280263       22.49013770    0.00000000
   40         16
                                   No pseudopotential on this center.
   41         16
                                   No pseudopotential on this center.
   42         42           14
                                      F and up 
                                                     0      537.9667807       -0.04694920    0.00000000
                                                     1      147.8982938      -20.20800840    0.00000000
                                                     2       45.7358898     -106.21163020    0.00000000
                                                     2       13.2911467      -41.81073680    0.00000000
                                                     2        4.7059961       -4.20541030    0.00000000
                                      S - F
                                                     0      110.2991760        2.80637170    0.00000000
                                                     1       23.2014645       44.51620120    0.00000000
                                                     2        5.3530131       82.77852270    0.00000000
                                      P - F
                                                     0       63.2901397        4.94208760    0.00000000
                                                     1       23.3315302       25.86049760    0.00000000
                                                     2       24.6759423      132.47087420    0.00000000
                                                     2        4.6493040       57.31497940    0.00000000
                                      D - F
                                                     0      104.4839977        3.00545910    0.00000000
                                                     1       66.2307245       26.36378510    0.00000000
                                                     2       39.1283176      183.38491990    0.00000000
                                                     2       13.1164437       98.44530680    0.00000000
                                                     2        3.6280263       22.49013770    0.00000000
   43         16
                                   No pseudopotential on this center.
   44         16
                                   No pseudopotential on this center.
   45         42           14
                                      F and up 
                                                     0      537.9667807       -0.04694920    0.00000000
                                                     1      147.8982938      -20.20800840    0.00000000
                                                     2       45.7358898     -106.21163020    0.00000000
                                                     2       13.2911467      -41.81073680    0.00000000
                                                     2        4.7059961       -4.20541030    0.00000000
                                      S - F
                                                     0      110.2991760        2.80637170    0.00000000
                                                     1       23.2014645       44.51620120    0.00000000
                                                     2        5.3530131       82.77852270    0.00000000
                                      P - F
                                                     0       63.2901397        4.94208760    0.00000000
                                                     1       23.3315302       25.86049760    0.00000000
                                                     2       24.6759423      132.47087420    0.00000000
                                                     2        4.6493040       57.31497940    0.00000000
                                      D - F
                                                     0      104.4839977        3.00545910    0.00000000
                                                     1       66.2307245       26.36378510    0.00000000
                                                     2       39.1283176      183.38491990    0.00000000
                                                     2       13.1164437       98.44530680    0.00000000
                                                     2        3.6280263       22.49013770    0.00000000
   46         16
                                   No pseudopotential on this center.
   47         16
                                   No pseudopotential on this center.
   48         42           14
                                      F and up 
                                                     0      537.9667807       -0.04694920    0.00000000
                                                     1      147.8982938      -20.20800840    0.00000000
                                                     2       45.7358898     -106.21163020    0.00000000
                                                     2       13.2911467      -41.81073680    0.00000000
                                                     2        4.7059961       -4.20541030    0.00000000
                                      S - F
                                                     0      110.2991760        2.80637170    0.00000000
                                                     1       23.2014645       44.51620120    0.00000000
                                                     2        5.3530131       82.77852270    0.00000000
                                      P - F
                                                     0       63.2901397        4.94208760    0.00000000
                                                     1       23.3315302       25.86049760    0.00000000
                                                     2       24.6759423      132.47087420    0.00000000
                                                     2        4.6493040       57.31497940    0.00000000
                                      D - F
                                                     0      104.4839977        3.00545910    0.00000000
                                                     1       66.2307245       26.36378510    0.00000000
                                                     2       39.1283176      183.38491990    0.00000000
                                                     2       13.1164437       98.44530680    0.00000000
                                                     2        3.6280263       22.49013770    0.00000000
   49         16
                                   No pseudopotential on this center.
   50         16
                                   No pseudopotential on this center.
   51         42           14
                                      F and up 
                                                     0      537.9667807       -0.04694920    0.00000000
                                                     1      147.8982938      -20.20800840    0.00000000
                                                     2       45.7358898     -106.21163020    0.00000000
                                                     2       13.2911467      -41.81073680    0.00000000
                                                     2        4.7059961       -4.20541030    0.00000000
                                      S - F
                                                     0      110.2991760        2.80637170    0.00000000
                                                     1       23.2014645       44.51620120    0.00000000
                                                     2        5.3530131       82.77852270    0.00000000
                                      P - F
                                                     0       63.2901397        4.94208760    0.00000000
                                                     1       23.3315302       25.86049760    0.00000000
                                                     2       24.6759423      132.47087420    0.00000000
                                                     2        4.6493040       57.31497940    0.00000000
                                      D - F
                                                     0      104.4839977        3.00545910    0.00000000
                                                     1       66.2307245       26.36378510    0.00000000
                                                     2       39.1283176      183.38491990    0.00000000
                                                     2       13.1164437       98.44530680    0.00000000
                                                     2        3.6280263       22.49013770    0.00000000
   52         16
                                   No pseudopotential on this center.
   53         16
                                   No pseudopotential on this center.
   54         42           14
                                      F and up 
                                                     0      537.9667807       -0.04694920    0.00000000
                                                     1      147.8982938      -20.20800840    0.00000000
                                                     2       45.7358898     -106.21163020    0.00000000
                                                     2       13.2911467      -41.81073680    0.00000000
                                                     2        4.7059961       -4.20541030    0.00000000
                                      S - F
                                                     0      110.2991760        2.80637170    0.00000000
                                                     1       23.2014645       44.51620120    0.00000000
                                                     2        5.3530131       82.77852270    0.00000000
                                      P - F
                                                     0       63.2901397        4.94208760    0.00000000
                                                     1       23.3315302       25.86049760    0.00000000
                                                     2       24.6759423      132.47087420    0.00000000
                                                     2        4.6493040       57.31497940    0.00000000
                                      D - F
                                                     0      104.4839977        3.00545910    0.00000000
                                                     1       66.2307245       26.36378510    0.00000000
                                                     2       39.1283176      183.38491990    0.00000000
                                                     2       13.1164437       98.44530680    0.00000000
                                                     2        3.6280263       22.49013770    0.00000000
   55         16
                                   No pseudopotential on this center.
   56         16
                                   No pseudopotential on this center.
   57         42           14
                                      F and up 
                                                     0      537.9667807       -0.04694920    0.00000000
                                                     1      147.8982938      -20.20800840    0.00000000
                                                     2       45.7358898     -106.21163020    0.00000000
                                                     2       13.2911467      -41.81073680    0.00000000
                                                     2        4.7059961       -4.20541030    0.00000000
                                      S - F
                                                     0      110.2991760        2.80637170    0.00000000
                                                     1       23.2014645       44.51620120    0.00000000
                                                     2        5.3530131       82.77852270    0.00000000
                                      P - F
                                                     0       63.2901397        4.94208760    0.00000000
                                                     1       23.3315302       25.86049760    0.00000000
                                                     2       24.6759423      132.47087420    0.00000000
                                                     2        4.6493040       57.31497940    0.00000000
                                      D - F
                                                     0      104.4839977        3.00545910    0.00000000
                                                     1       66.2307245       26.36378510    0.00000000
                                                     2       39.1283176      183.38491990    0.00000000
                                                     2       13.1164437       98.44530680    0.00000000
                                                     2        3.6280263       22.49013770    0.00000000
   58         16
                                   No pseudopotential on this center.
   59         16
                                   No pseudopotential on this center.
   60         16
                                   No pseudopotential on this center.
   61         16
                                   No pseudopotential on this center.
 ======================================================================================================
  1174 basis functions,  3115 primitive gaussians,  1254 cartesian basis functions
   469 alpha electrons      469 beta electrons
       nuclear repulsion energy     37519.5820038299 Hartrees.
 NAtoms=   61 NActive=   61 NUniq=   61 SFac= 1.00D+00 NAtFMM=   60 NAOKFM=T Big=T
 Integral buffers will be    131072 words long.
 Raffenetti 2 integral format.
 Two-electron integral symmetry is turned off.
 One-electron integrals computed using PRISM.
   1 Symmetry operations used in ECPInt.
 ECPInt:  NShTT=   65703 NPrTT=  539836 LenC2=   49921 LenP2D=  208674.
 LDataN:  DoStor=T MaxTD1= 5 Len=  102
 NBasis=  1174 RedAO= T EigKep=  3.97D-05  NBF=  1174
 NBsUse=  1174 1.00D-06 EigRej= -1.00D+00 NBFU=  1174
 Defaulting to unpruned grid for atomic number  42.
 Defaulting to unpruned grid for atomic number  42.
 Defaulting to unpruned grid for atomic number  42.
 Defaulting to unpruned grid for atomic number  42.
 Defaulting to unpruned grid for atomic number  42.
 Defaulting to unpruned grid for atomic number  42.
 Defaulting to unpruned grid for atomic number  42.
 Defaulting to unpruned grid for atomic number  42.
 Defaulting to unpruned grid for atomic number  42.
 Defaulting to unpruned grid for atomic number  42.
 Defaulting to unpruned grid for atomic number  42.
 Defaulting to unpruned grid for atomic number  42.
 Defaulting to unpruned grid for atomic number  42.
 Defaulting to unpruned grid for atomic number  42.
 Defaulting to unpruned grid for atomic number  42.
 Defaulting to unpruned grid for atomic number  42.
 Defaulting to unpruned grid for atomic number  42.
 Defaulting to unpruned grid for atomic number  42.
 Defaulting to unpruned grid for atomic number  42.
 ExpMin= 2.47D-02 ExpMax= 2.19D+04 ExpMxC= 3.30D+03 IAcc=3 IRadAn=         5 AccDes= 0.00D+00
 Harris functional with IExCor=  402 and IRadAn=       5 diagonalized for initial guess.
 HarFok:  IExCor=  402 AccDes= 0.00D+00 IRadAn=         5 IDoV= 1 UseB2=F ITyADJ=14
 ICtDFT=  3500011 ScaDFX=  1.000000  1.000000  1.000000  1.000000
 Defaulting to unpruned grid for atomic number  42.
 FoFCou: FMM=F IPFlag=           0 FMFlag=      100000 FMFlg1=        2001
         NFxFlg=           0 DoJE=T BraDBF=F KetDBF=T FulRan=T
         wScrn=  0.000000 ICntrl=       500 IOpCl=  0 I1Cent=   200000004 NGrid=           0
         NMat0=    1 NMatS0=      1 NMatT0=    0 NMatD0=    1 NMtDS0=    0 NMtDT0=    0
 Symmetry not used in FoFCou.
 Requested convergence on RMS density matrix=1.00D-08 within1000 cycles.
 Requested convergence on MAX density matrix=1.00D-06.
 Requested convergence on             energy=1.00D-06.
 No special actions if energy rises.
 Defaulting to unpruned grid for atomic number  42.
 Defaulting to unpruned grid for atomic number  42.
 Defaulting to unpruned grid for atomic number  42.
 Defaulting to unpruned grid for atomic number  42.
 Defaulting to unpruned grid for atomic number  42.
 Defaulting to unpruned grid for atomic number  42.
 Defaulting to unpruned grid for atomic number  42.
 Defaulting to unpruned grid for atomic number  42.
 Defaulting to unpruned grid for atomic number  42.
 Defaulting to unpruned grid for atomic number  42.
 Defaulting to unpruned grid for atomic number  42.
 Defaulting to unpruned grid for atomic number  42.
 Defaulting to unpruned grid for atomic number  42.
 Defaulting to unpruned grid for atomic number  42.
 Defaulting to unpruned grid for atomic number  42.
 Defaulting to unpruned grid for atomic number  42.
 Defaulting to unpruned grid for atomic number  42.
 Defaulting to unpruned grid for atomic number  42.
 Defaulting to unpruned grid for atomic number  42.
 Defaulting to unpruned grid for atomic number  42.
 Defaulting to unpruned grid for atomic number  42.
 Defaulting to unpruned grid for atomic number  42.
 Defaulting to unpruned grid for atomic number  42.
 Defaulting to unpruned grid for atomic number  42.
 Defaulting to unpruned grid for atomic number  42.
 Defaulting to unpruned grid for atomic number  42.
 Defaulting to unpruned grid for atomic number  42.
 Defaulting to unpruned grid for atomic number  42.
 Defaulting to unpruned grid for atomic number  42.
 Defaulting to unpruned grid for atomic number  42.
 Defaulting to unpruned grid for atomic number  42.
 Defaulting to unpruned grid for atomic number  42.
 Defaulting to unpruned grid for atomic number  42.
 Defaulting to unpruned grid for atomic number  42.
 Defaulting to unpruned grid for atomic number  42.
 Defaulting to unpruned grid for atomic number  42.
 Defaulting to unpruned grid for atomic number  42.
 Defaulting to unpruned grid for atomic number  42.
 Defaulting to unpruned grid for atomic number  42.
 Defaulting to unpruned grid for atomic number  42.
 Defaulting to unpruned grid for atomic number  42.
 Defaulting to unpruned grid for atomic number  42.
 Defaulting to unpruned grid for atomic number  42.
 Defaulting to unpruned grid for atomic number  42.
 Defaulting to unpruned grid for atomic number  42.
 Defaulting to unpruned grid for atomic number  42.
 EnCoef did     1 forward-backward iterations
 EnCoef did   100 forward-backward iterations
 EnCoef did   100 forward-backward iterations
 EnCoef did   100 forward-backward iterations
 EnCoef did   100 forward-backward iterations
 EnCoef did   100 forward-backward iterations
 EnCoef did    12 forward-backward iterations
 EnCoef did     6 forward-backward iterations
 EnCoef did     5 forward-backward iterations
 EnCoef did    13 forward-backward iterations
 EnCoef did     3 forward-backward iterations
 EnCoef did     5 forward-backward iterations
 EnCoef did   100 forward-backward iterations
 EnCoef did   100 forward-backward iterations
 EnCoef did     2 forward-backward iterations
 EnCoef did     4 forward-backward iterations
 EnCoef did     6 forward-backward iterations
 EnCoef did     4 forward-backward iterations
 Restarting incremental Fock formation.
 EnCoef did     3 forward-backward iterations
 EnCoef did     4 forward-backward iterations
 Restarting incremental Fock formation.
 SCF Done:  E(RB3LYP) =  -18009.4636845     A.U. after   46 cycles
            NFock= 46  Conv=0.88D-08     -V/T= 2.0525
 DoSCS=F DFT=T ScalE2(SS,OS)=  1.000000  1.000000
 Range of M.O.s used for correlation:     1  1174
 NBasis=  1174 NAE=   469 NBE=   469 NFC=     0 NFV=     0
 NROrb=   1174 NOA=   469 NOB=   469 NVA=   705 NVB=   705

 **** Warning!!: The largest alpha MO coefficient is  0.26829631D+02


 **** Warning!!: The smallest alpha delta epsilon is  0.32660499D-01

   1 Symmetry operations used in ECPInt.
 ECPInt:  NShTT=   65703 NPrTT=  539836 LenC2=   49921 LenP2D=  208674.
 LDataN:  DoStor=T MaxTD1= 6 Len=  172
 Number of processors reduced to   9 by ecpmxn.
 Symmetrizing basis deriv contribution to polar:
 IMax=3 JMax=2 DiffMx= 0.00D+00
 G2DrvN: will do    62 centers at a time, making    1 passes.
 Calling FoFCou, ICntrl=  3107 FMM=T I1Cent=   0 AccDes= 0.00D+00.
 Defaulting to unpruned grid for atomic number  42.
 Defaulting to unpruned grid for atomic number  42.
 Defaulting to unpruned grid for atomic number  42.
 Defaulting to unpruned grid for atomic number  42.
 Defaulting to unpruned grid for atomic number  42.
 Defaulting to unpruned grid for atomic number  42.
 Defaulting to unpruned grid for atomic number  42.
 Defaulting to unpruned grid for atomic number  42.
 Defaulting to unpruned grid for atomic number  42.
 Defaulting to unpruned grid for atomic number  42.
 Defaulting to unpruned grid for atomic number  42.
 Defaulting to unpruned grid for atomic number  42.
 Defaulting to unpruned grid for atomic number  42.
 Defaulting to unpruned grid for atomic number  42.
 Defaulting to unpruned grid for atomic number  42.
 Defaulting to unpruned grid for atomic number  42.
 Defaulting to unpruned grid for atomic number  42.
 Defaulting to unpruned grid for atomic number  42.
 Defaulting to unpruned grid for atomic number  42.
 Defaulting to unpruned grid for atomic number  42.
 Defaulting to unpruned grid for atomic number  42.
 Defaulting to unpruned grid for atomic number  42.
 Defaulting to unpruned grid for atomic number  42.
 Defaulting to unpruned grid for atomic number  42.
 Defaulting to unpruned grid for atomic number  42.
 Defaulting to unpruned grid for atomic number  42.
 Defaulting to unpruned grid for atomic number  42.
 Defaulting to unpruned grid for atomic number  42.
 Defaulting to unpruned grid for atomic number  42.
 Defaulting to unpruned grid for atomic number  42.
 Defaulting to unpruned grid for atomic number  42.
 Defaulting to unpruned grid for atomic number  42.
 Defaulting to unpruned grid for atomic number  42.
 Defaulting to unpruned grid for atomic number  42.
 Defaulting to unpruned grid for atomic number  42.
 Defaulting to unpruned grid for atomic number  42.
 Defaulting to unpruned grid for atomic number  42.
 Defaulting to unpruned grid for atomic number  42.
 Defaulting to unpruned grid for atomic number  42.
 Defaulting to unpruned grid for atomic number  42.
 Defaulting to unpruned grid for atomic number  42.
 Defaulting to unpruned grid for atomic number  42.
 Defaulting to unpruned grid for atomic number  42.
 Defaulting to unpruned grid for atomic number  42.
 Defaulting to unpruned grid for atomic number  42.
 Defaulting to unpruned grid for atomic number  42.
 End of G2Drv F.D. properties file   721 does not exist.
 End of G2Drv F.D. properties file   722 does not exist.
 End of G2Drv F.D. properties file   788 does not exist.
          IDoAtm=11111111111111111111111111111111111111111111111111
          IDoAtm=11111111111
          Differentiating once with respect to electric field.
                with respect to dipole field.
          Differentiating once with respect to nuclear coordinates.
 Defaulting to unpruned grid for atomic number  42.
 Defaulting to unpruned grid for atomic number  42.
 Defaulting to unpruned grid for atomic number  42.
 Defaulting to unpruned grid for atomic number  42.
 Defaulting to unpruned grid for atomic number  42.
 Defaulting to unpruned grid for atomic number  42.
 Defaulting to unpruned grid for atomic number  42.
 Defaulting to unpruned grid for atomic number  42.
 Defaulting to unpruned grid for atomic number  42.
 Defaulting to unpruned grid for atomic number  42.
 Defaulting to unpruned grid for atomic number  42.
 Defaulting to unpruned grid for atomic number  42.
 Defaulting to unpruned grid for atomic number  42.
 Defaulting to unpruned grid for atomic number  42.
 Defaulting to unpruned grid for atomic number  42.
 Defaulting to unpruned grid for atomic number  42.
 Defaulting to unpruned grid for atomic number  42.
 Defaulting to unpruned grid for atomic number  42.
 Defaulting to unpruned grid for atomic number  42.
 CalDSu exits because no D1Ps are significant.
 Defaulting to unpruned grid for atomic number  42.
 Defaulting to unpruned grid for atomic number  42.
 Defaulting to unpruned grid for atomic number  42.
 Defaulting to unpruned grid for atomic number  42.
 Defaulting to unpruned grid for atomic number  42.
 Defaulting to unpruned grid for atomic number  42.
 Defaulting to unpruned grid for atomic number  42.
 Defaulting to unpruned grid for atomic number  42.
 Defaulting to unpruned grid for atomic number  42.
 Defaulting to unpruned grid for atomic number  42.
 Defaulting to unpruned grid for atomic number  42.
 Defaulting to unpruned grid for atomic number  42.
 Defaulting to unpruned grid for atomic number  42.
 Defaulting to unpruned grid for atomic number  42.
 Defaulting to unpruned grid for atomic number  42.
 Defaulting to unpruned grid for atomic number  42.
 Defaulting to unpruned grid for atomic number  42.
 Defaulting to unpruned grid for atomic number  42.
 Defaulting to unpruned grid for atomic number  42.
 Defaulting to unpruned grid for atomic number  42.
 Defaulting to unpruned grid for atomic number  42.
 Defaulting to unpruned grid for atomic number  42.
 Defaulting to unpruned grid for atomic number  42.
 Defaulting to unpruned grid for atomic number  42.
 Defaulting to unpruned grid for atomic number  42.
 Defaulting to unpruned grid for atomic number  42.
 Defaulting to unpruned grid for atomic number  42.
 Defaulting to unpruned grid for atomic number  42.
 Defaulting to unpruned grid for atomic number  42.
 Defaulting to unpruned grid for atomic number  42.
 Defaulting to unpruned grid for atomic number  42.
 Defaulting to unpruned grid for atomic number  42.
 Defaulting to unpruned grid for atomic number  42.
 Defaulting to unpruned grid for atomic number  42.
 Defaulting to unpruned grid for atomic number  42.
 Defaulting to unpruned grid for atomic number  42.
 Defaulting to unpruned grid for atomic number  42.
 Defaulting to unpruned grid for atomic number  42.
 Defaulting to unpruned grid for atomic number  42.
 Defaulting to unpruned grid for atomic number  42.
 Defaulting to unpruned grid for atomic number  42.
 Defaulting to unpruned grid for atomic number  42.
 Defaulting to unpruned grid for atomic number  42.
 Defaulting to unpruned grid for atomic number  42.
 Defaulting to unpruned grid for atomic number  42.
 Defaulting to unpruned grid for atomic number  42.
          There are   186 degrees of freedom in the 1st order CPHF.  IDoFFX=6 NUNeed=     3.
    183 vectors produced by pass  0 Test12= 3.31D-13 1.00D-09 XBig12= 1.61D+04 2.71D+01.
 AX will form    96 AO Fock derivatives at one time.
    183 vectors produced by pass  1 Test12= 3.31D-13 1.00D-09 XBig12= 1.30D+04 6.11D+00.
    183 vectors produced by pass  2 Test12= 3.31D-13 1.00D-09 XBig12= 1.35D+03 1.96D+00.
    183 vectors produced by pass  3 Test12= 3.31D-13 1.00D-09 XBig12= 8.59D+01 4.49D-01.
    183 vectors produced by pass  4 Test12= 3.31D-13 1.00D-09 XBig12= 1.81D+00 9.59D-02.
    183 vectors produced by pass  5 Test12= 3.31D-13 1.00D-09 XBig12= 2.42D-02 7.46D-03.
    183 vectors produced by pass  6 Test12= 3.31D-13 1.00D-09 XBig12= 2.66D-04 7.50D-04.
    183 vectors produced by pass  7 Test12= 3.31D-13 1.00D-09 XBig12= 1.98D-06 5.80D-05.
    119 vectors produced by pass  8 Test12= 3.31D-13 1.00D-09 XBig12= 1.31D-08 5.54D-06.
     11 vectors produced by pass  9 Test12= 3.31D-13 1.00D-09 XBig12= 7.86D-11 4.47D-07.
      3 vectors produced by pass 10 Test12= 3.31D-13 1.00D-09 XBig12= 4.19D-13 3.14D-08.
      3 vectors produced by pass 11 Test12= 3.31D-13 1.00D-09 XBig12= 2.50D-15 2.35D-09.
      1 vectors produced by pass 12 Test12= 3.31D-13 1.00D-09 XBig12= 8.79D-16 1.18D-09.
 InvSVY:  IOpt=1 It=  1 EMax= 1.14D-13
 Solved reduced A of dimension  1601 with   186 vectors.
 Isotropic polarizability for W=    0.000000     1888.60 Bohr**3.
 End of Minotr F.D. properties file   721 does not exist.
 End of Minotr F.D. properties file   722 does not exist.
 End of Minotr F.D. properties file   788 does not exist.

 **********************************************************************

            Population analysis using the SCF Density.

 **********************************************************************

 Alpha  occ. eigenvalues --  -88.93488 -88.93140 -88.93109 -88.93070 -88.92910
 Alpha  occ. eigenvalues --  -88.92787 -88.92785 -88.92706 -88.92576 -88.92465
 Alpha  occ. eigenvalues --  -88.92410 -88.92223 -88.92210 -88.92174 -88.92085
 Alpha  occ. eigenvalues --  -88.92057 -88.91978 -88.91889 -88.91707 -88.91702
 Alpha  occ. eigenvalues --  -88.91529 -88.91513 -88.91446 -88.91420 -88.91283
 Alpha  occ. eigenvalues --  -88.91134 -88.90836 -88.90626 -88.90360 -88.90256
 Alpha  occ. eigenvalues --  -88.90196 -88.90037 -88.89911 -88.89858 -88.89762
 Alpha  occ. eigenvalues --  -88.89424 -88.89308 -88.89279 -88.88765 -88.88082
 Alpha  occ. eigenvalues --  -88.87712 -88.87362  -8.00913  -8.00684  -8.00528
 Alpha  occ. eigenvalues --   -8.00436  -8.00343  -8.00304  -8.00226  -8.00083
 Alpha  occ. eigenvalues --   -8.00027  -8.00021  -7.99933  -7.99845  -7.99780
 Alpha  occ. eigenvalues --   -7.99595  -7.99508  -7.99468  -7.99463  -7.99439
 Alpha  occ. eigenvalues --   -7.99165  -7.99086  -7.98946  -7.98937  -7.98906
 Alpha  occ. eigenvalues --   -7.98871  -7.98722  -7.98537  -7.98508  -7.98206
 Alpha  occ. eigenvalues --   -7.98082  -7.97950  -7.97888  -7.97676  -7.97292
 Alpha  occ. eigenvalues --   -7.97138  -7.97108  -7.97073  -7.96937  -7.96829
 Alpha  occ. eigenvalues --   -7.96412  -7.95492  -7.95406  -7.95145  -5.97159
 Alpha  occ. eigenvalues --   -5.96788  -5.96727  -5.96687  -5.96661  -5.96580
 Alpha  occ. eigenvalues --   -5.96531  -5.96523  -5.96523  -5.96422  -5.96402
 Alpha  occ. eigenvalues --   -5.96389  -5.96381  -5.96349  -5.96337  -5.96295
 Alpha  occ. eigenvalues --   -5.96290  -5.96264  -5.96228  -5.96166  -5.96158
 Alpha  occ. eigenvalues --   -5.96156  -5.96142  -5.96083  -5.96069  -5.96049
 Alpha  occ. eigenvalues --   -5.96044  -5.95997  -5.95982  -5.95974  -5.95963
 Alpha  occ. eigenvalues --   -5.95927  -5.95835  -5.95828  -5.95822  -5.95698
 Alpha  occ. eigenvalues --   -5.95672  -5.95648  -5.95632  -5.95591  -5.95584
 Alpha  occ. eigenvalues --   -5.95544  -5.95523  -5.95498  -5.95473  -5.95468
 Alpha  occ. eigenvalues --   -5.95436  -5.95417  -5.95405  -5.95369  -5.95345
 Alpha  occ. eigenvalues --   -5.95334  -5.95253  -5.95234  -5.95222  -5.95209
 Alpha  occ. eigenvalues --   -5.95136  -5.95074  -5.95039  -5.95002  -5.94990
 Alpha  occ. eigenvalues --   -5.94976  -5.94970  -5.94910  -5.94881  -5.94879
 Alpha  occ. eigenvalues --   -5.94876  -5.94855  -5.94834  -5.94833  -5.94786
 Alpha  occ. eigenvalues --   -5.94772  -5.94754  -5.94701  -5.94654  -5.94592
 Alpha  occ. eigenvalues --   -5.94583  -5.94478  -5.94433  -5.94403  -5.94314
 Alpha  occ. eigenvalues --   -5.94204  -5.94200  -5.94142  -5.94094  -5.94090
 Alpha  occ. eigenvalues --   -5.93997  -5.93986  -5.93903  -5.93891  -5.93815
 Alpha  occ. eigenvalues --   -5.93799  -5.93759  -5.93734  -5.93591  -5.93541
 Alpha  occ. eigenvalues --   -5.93370  -5.93358  -5.93237  -5.93218  -5.93208
 Alpha  occ. eigenvalues --   -5.93185  -5.93162  -5.93124  -5.93111  -5.93026
 Alpha  occ. eigenvalues --   -5.93020  -5.93011  -5.92933  -5.92900  -5.92874
 Alpha  occ. eigenvalues --   -5.92796  -5.92704  -5.92503  -5.92342  -5.92281
 Alpha  occ. eigenvalues --   -5.92251  -5.91566  -5.91463  -5.91446  -5.91403
 Alpha  occ. eigenvalues --   -5.91343  -5.91259  -5.91229  -5.91049  -5.90989
 Alpha  occ. eigenvalues --   -2.59331  -2.59130  -2.58401  -2.58267  -2.57419
 Alpha  occ. eigenvalues --   -2.57192  -2.57044  -2.56746  -2.56253  -2.56250
 Alpha  occ. eigenvalues --   -2.56092  -2.55858  -2.55822  -2.55609  -2.55421
 Alpha  occ. eigenvalues --   -2.55250  -2.54789  -2.54672  -2.54279  -1.61998
 Alpha  occ. eigenvalues --   -1.61996  -1.61813  -1.61741  -1.61672  -1.61216
 Alpha  occ. eigenvalues --   -1.61174  -1.60764  -1.60496  -1.60394  -1.60248
 Alpha  occ. eigenvalues --   -1.60224  -1.60153  -1.60067  -1.59953  -1.59908
 Alpha  occ. eigenvalues --   -1.59565  -1.59503  -1.59385  -1.59377  -1.59215
 Alpha  occ. eigenvalues --   -1.59203  -1.59130  -1.59063  -1.58974  -1.58896
 Alpha  occ. eigenvalues --   -1.58872  -1.58720  -1.58623  -1.58501  -1.58447
 Alpha  occ. eigenvalues --   -1.58276  -1.58169  -1.58155  -1.58035  -1.58027
 Alpha  occ. eigenvalues --   -1.57995  -1.57936  -1.57722  -1.57584  -1.57529
 Alpha  occ. eigenvalues --   -1.57474  -1.57357  -1.57330  -1.57204  -1.57137
 Alpha  occ. eigenvalues --   -1.56946  -1.56859  -1.56617  -1.56573  -1.56554
 Alpha  occ. eigenvalues --   -1.56477  -1.56228  -1.56180  -1.56152  -1.56034
 Alpha  occ. eigenvalues --   -1.55776  -0.82207  -0.80776  -0.78792  -0.77256
 Alpha  occ. eigenvalues --   -0.77155  -0.76447  -0.75987  -0.75827  -0.75696
 Alpha  occ. eigenvalues --   -0.75141  -0.75089  -0.74871  -0.74670  -0.74561
 Alpha  occ. eigenvalues --   -0.74322  -0.74284  -0.74171  -0.74084  -0.73887
 Alpha  occ. eigenvalues --   -0.73774  -0.73458  -0.73370  -0.73162  -0.73052
 Alpha  occ. eigenvalues --   -0.73028  -0.72937  -0.72660  -0.72349  -0.71828
 Alpha  occ. eigenvalues --   -0.71743  -0.71672  -0.71615  -0.71567  -0.71365
 Alpha  occ. eigenvalues --   -0.71321  -0.71062  -0.70556  -0.69814  -0.68765
 Alpha  occ. eigenvalues --   -0.68337  -0.67369  -0.64937  -0.46199  -0.45881
 Alpha  occ. eigenvalues --   -0.45859  -0.45487  -0.44890  -0.44743  -0.44324
 Alpha  occ. eigenvalues --   -0.44148  -0.43929  -0.43794  -0.43752  -0.43618
 Alpha  occ. eigenvalues --   -0.43521  -0.43278  -0.43134  -0.43054  -0.42838
 Alpha  occ. eigenvalues --   -0.42703  -0.42516  -0.42392  -0.42164  -0.42146
 Alpha  occ. eigenvalues --   -0.41931  -0.41827  -0.41662  -0.41521  -0.41427
 Alpha  occ. eigenvalues --   -0.41234  -0.41185  -0.41109  -0.40899  -0.40688
 Alpha  occ. eigenvalues --   -0.40554  -0.40375  -0.40319  -0.40201  -0.40004
 Alpha  occ. eigenvalues --   -0.39984  -0.39934  -0.39838  -0.39627  -0.39427
 Alpha  occ. eigenvalues --   -0.39325  -0.39245  -0.39117  -0.38958  -0.38681
 Alpha  occ. eigenvalues --   -0.38645  -0.38508  -0.38455  -0.38324  -0.38233
 Alpha  occ. eigenvalues --   -0.38117  -0.37935  -0.37790  -0.37698  -0.37679
 Alpha  occ. eigenvalues --   -0.37599  -0.37422  -0.37147  -0.37083  -0.36980
 Alpha  occ. eigenvalues --   -0.36961  -0.36695  -0.36590  -0.36500  -0.36491
 Alpha  occ. eigenvalues --   -0.36267  -0.36226  -0.36082  -0.35958  -0.35821
 Alpha  occ. eigenvalues --   -0.35741  -0.35591  -0.35405  -0.35247  -0.35144
 Alpha  occ. eigenvalues --   -0.35051  -0.34947  -0.34814  -0.34755  -0.34610
 Alpha  occ. eigenvalues --   -0.34385  -0.34307  -0.34292  -0.34233  -0.34139
 Alpha  occ. eigenvalues --   -0.34080  -0.33861  -0.33610  -0.33344  -0.33244
 Alpha  occ. eigenvalues --   -0.33004  -0.32878  -0.32721  -0.32569  -0.32401
 Alpha  occ. eigenvalues --   -0.32049  -0.31995  -0.31829  -0.31707  -0.31663
 Alpha  occ. eigenvalues --   -0.31305  -0.31102  -0.31032  -0.30893  -0.30859
 Alpha  occ. eigenvalues --   -0.30471  -0.30414  -0.30290  -0.30206  -0.30034
 Alpha  occ. eigenvalues --   -0.29914  -0.29793  -0.29658  -0.29415  -0.29013
 Alpha  occ. eigenvalues --   -0.28925  -0.28756  -0.28571  -0.28421  -0.28185
 Alpha  occ. eigenvalues --   -0.27898  -0.27746  -0.27365  -0.27137  -0.27029
 Alpha  occ. eigenvalues --   -0.26930  -0.26642  -0.26298  -0.26262  -0.26073
 Alpha  occ. eigenvalues --   -0.25721  -0.25695  -0.25557  -0.25436  -0.25142
 Alpha  occ. eigenvalues --   -0.24609  -0.24389  -0.23736  -0.23371
 Alpha virt. eigenvalues --   -0.20105  -0.18591  -0.18134  -0.17935  -0.17819
 Alpha virt. eigenvalues --   -0.17457  -0.17375  -0.17065  -0.16711  -0.16536
 Alpha virt. eigenvalues --   -0.16465  -0.16132  -0.15577  -0.15503  -0.15397
 Alpha virt. eigenvalues --   -0.14985  -0.14753  -0.14640  -0.14450  -0.14340
 Alpha virt. eigenvalues --   -0.14208  -0.14125  -0.13994  -0.13896  -0.13473
 Alpha virt. eigenvalues --   -0.13425  -0.13299  -0.13225  -0.13194  -0.12885
 Alpha virt. eigenvalues --   -0.12591  -0.12529  -0.12478  -0.12247  -0.12097
 Alpha virt. eigenvalues --   -0.11913  -0.11851  -0.11699  -0.11537  -0.11487
 Alpha virt. eigenvalues --   -0.11339  -0.11175  -0.11014  -0.10891  -0.10811
 Alpha virt. eigenvalues --   -0.10531  -0.10404  -0.10283  -0.10167  -0.10020
 Alpha virt. eigenvalues --   -0.09885  -0.09870  -0.09628  -0.09555  -0.09267
 Alpha virt. eigenvalues --   -0.09144  -0.09014  -0.08736  -0.08479  -0.08121
 Alpha virt. eigenvalues --   -0.07949  -0.07650  -0.07626  -0.07237  -0.06952
 Alpha virt. eigenvalues --   -0.06794  -0.06356  -0.06277  -0.06018  -0.05926
 Alpha virt. eigenvalues --   -0.05610  -0.05466  -0.05274  -0.04913  -0.04781
 Alpha virt. eigenvalues --   -0.04290  -0.03997  -0.03742  -0.03396  -0.02903
 Alpha virt. eigenvalues --   -0.01331  -0.00932  -0.00445   0.00546   0.00829
 Alpha virt. eigenvalues --    0.01589   0.01767   0.01874   0.02294   0.02722
 Alpha virt. eigenvalues --    0.02790   0.03069   0.03306   0.03519   0.03603
 Alpha virt. eigenvalues --    0.03776   0.04082   0.04167   0.04511   0.04538
 Alpha virt. eigenvalues --    0.04780   0.04970   0.05108   0.05289   0.05408
 Alpha virt. eigenvalues --    0.05623   0.05736   0.05870   0.06147   0.06339
 Alpha virt. eigenvalues --    0.06556   0.06626   0.06755   0.06884   0.06988
 Alpha virt. eigenvalues --    0.07257   0.07542   0.07681   0.07738   0.07835
 Alpha virt. eigenvalues --    0.07901   0.08056   0.08356   0.08597   0.08798
 Alpha virt. eigenvalues --    0.08844   0.09125   0.09265   0.09360   0.09549
 Alpha virt. eigenvalues --    0.09605   0.09724   0.10027   0.10098   0.10216
 Alpha virt. eigenvalues --    0.10438   0.10522   0.10550   0.10702   0.10864
 Alpha virt. eigenvalues --    0.10994   0.11054   0.11144   0.11683   0.11939
 Alpha virt. eigenvalues --    0.12050   0.12159   0.12432   0.12629   0.12930
 Alpha virt. eigenvalues --    0.13070   0.13208   0.13549   0.13680   0.13826
 Alpha virt. eigenvalues --    0.14045   0.14185   0.14687   0.14874   0.15100
 Alpha virt. eigenvalues --    0.15149   0.15505   0.15724   0.15952   0.16071
[...]
 001412,-0.00003658,0.00001811,0.00000979,0.00003650,-0.00000495,0.0000
 1507,0.00000335,-0.00002800,0.00002418,-0.00003194,0.00009089,-0.00007
 104,0.00014570,-0.00008943,-0.00001535,0.00012139,0.00007494,0.0000390
 9,0.00005264,-0.00027308,0.00026151,-0.00030445,-0.00019867,0.00006422
 ,-0.00008120,0.02568928,-0.00006405,-0.00005674,0.00002334,0.00001377,
 -0.00002654,-0.00003820,-0.00001470,-0.00001850,-0.00001090,0.00000636
 ,-0.00005149,0.00004005,-0.00002511,0.00001182,-0.00001148,-0.00004477
 ,0.00008451,-0.00007306,-0.00020524,-0.00009355,-0.00009595,0.00002175
 ,0.00009038,-0.00000833,0.00020285,0.00007424,-0.00020176,-0.00001415,
 -0.00032537,-0.00031615,-0.00006089,0.00001553,0.00007527,0.00001637,-
 0.00004141,-0.00003462,0.00012348,0.00052049,-0.00085461,0.00002306,-0
 .00002286,0.00000660,0.00010966,-0.00011309,0.00001284,0.00009105,0.00
 014049,0.00006390,0.00044704,-0.00043237,0.00034167,0.00028599,-0.0000
 3130,0.00000772,-0.00001563,-0.00000065,-0.00005474,0.00001461,0.00000
 546,-0.00003618,-0.00002636,-0.00000911,0.00007911,0.00000605,-0.00000
 568,-0.00000926,0.00000970,0.00000873,-0.00000208,-0.00228329,0.002191
 03,0.00121209,-0.00116963,-0.00298463,0.00499658,0.00098784,-0.0004280
 5,0.00005542,-0.00064862,0.00038274,0.00102632,-0.00014563,-0.00019943
 ,-0.00037125,-0.00000277,-0.00031116,0.00015300,0.00240559,0.00120355,
 0.00057931,0.00015994,0.00013121,0.00010011,0.00161038,0.00128976,0.00
 221492,0.01583272,-0.02702002,0.01854799,-0.00097942,-0.00094793,0.002
 39285,0.00657635,-0.01818505,-0.04341310,-0.00059778,-0.00003460,0.002
 24151,0.00020891,0.00001351,-0.00007540,-0.00003659,0.00035487,0.00015
 100,0.00016150,-0.00002596,0.00016719,-0.00006042,-0.00003829,0.000009
 18,-0.00002685,-0.00001411,-0.00002645,0.00007170,-0.00002631,0.000038
 99,-0.00004287,0.00002606,0.00001733,-0.00002919,-0.00001563,0.0000075
 3,0.00004103,-0.00003865,-0.00001940,-0.00000091,-0.00000246,-0.000007
 79,-0.00000040,0.00000085,0.00001133,0.00003221,0.00001611,-0.00005180
 ,0.00000297,0.00000363,-0.00000514,-0.00001667,-0.00001254,0.00004382,
 -0.00002662,0.00003584,-0.00002569,-0.00004159,0.00003072,0.00000605,0
 .00006128,0.00000169,0.00002310,-0.00017026,0.00008316,-0.00005535,0.0
 0007633,-0.00002356,-0.00013321,0.00005360,-0.00003147,0.00005893,-0.0
 0028418,0.00017124,-0.00004602,0.00007469,0.00001056,-0.00014466,-0.02
 270696,0.04468694,0.00004864,0.00004446,-0.00019956,-0.00012589,-0.000
 04456,-0.00006053,-0.00002284,-0.00000502,-0.00000979,0.00005334,-0.00
 009900,0.00006677,-0.00004001,0.00000710,-0.00000279,0.00004893,0.0002
 9191,-0.00021389,-0.00012394,-0.00018719,-0.00013060,-0.00003804,0.000
 12767,0.00012216,0.00015439,0.00007298,-0.00013405,0.00037667,-0.00003
 970,-0.00016332,-0.00010661,-0.00000247,-0.00004928,0.00005911,-0.0000
 1563,0.00000050,0.00013698,0.00008963,0.00042057,0.00003021,-0.0000118
 2,-0.00000836,0.00010305,-0.00003713,0.00000825,0.00013476,0.00020872,
 -0.00028113,0.00001308,0.00027956,-0.00154129,0.00053787,0.00009808,-0
 .00032673,0.00005071,-0.00001119,-0.00008466,0.00003967,-0.00002278,0.
 00002736,0.00003399,-0.00005386,0.00006053,-0.00002321,0.00002888,-0.0
 0001254,-0.00002983,-0.00000494,-0.00000036,0.00068112,-0.00153618,-0.
 00233616,0.00219487,0.00250055,0.00071733,0.00033600,0.00060113,0.0002
 1031,-0.00102690,-0.00015503,0.00047372,0.00043809,-0.00066487,-0.0001
 8821,0.00003015,0.00032969,0.00057338,-0.00005733,-0.00208038,-0.00569
 831,-0.00039779,-0.00005653,0.00111032,-0.00292990,0.00209307,-0.00039
 632,-0.02642877,0.02926066,-0.05802924,-0.00097077,0.00255488,0.005308
 65,0.04596239,-0.04332211,-0.09713789,-0.00187893,-0.00068088,-0.00487
 364,0.00047848,0.00039334,-0.00027148,0.00283742,-0.00117900,0.0004810
 4,-0.00024019,-0.00003264,0.00142050,-0.00013368,-0.00012468,-0.000000
 84,0.00016373,-0.00020178,-0.00001939,-0.00017795,-0.00008458,0.000173
 21,-0.00002313,0.00003627,-0.00003001,-0.00002589,-0.00001511,-0.00001
 225,0.00001730,-0.00006807,0.00017488,-0.00001639,0.00002890,-0.000003
 90,-0.00000049,0.00001369,-0.00012144,0.00004654,-0.00010059,0.0001166
 0,-0.00002476,0.00002982,0.00001036,0.00003423,0.00003344,-0.00007713,
 0.00006495,0.00004730,0.00009380,-0.00003743,0.00002646,0.00000147,-0.
 00001061,0.00002466,-0.00002887,-0.00003797,-0.00005869,0.00010164,-0.
 00006095,0.00010431,-0.00008104,-0.00004385,-0.00004805,-0.00011177,0.
 00013851,0.00025194,0.00002722,0.00003000,-0.00006033,0.00004667,-0.02
 032563,0.01138299,0.16109258,-0.00013194,-0.00025628,-0.00049577,-0.00
 045405,0.00018556,-0.00008556,-0.00007560,0.00003246,0.00006775,0.0000
 8973,-0.00003043,0.00004203,-0.00083035,0.00051271,-0.00004451,-0.0000
 8802,0.00015468,0.00002115,0.00001020,-0.00000633,-0.00001699,-0.00003
 597,0.00002253,-0.00004204,0.00034559,-0.00019667,0.00018538,0.0000081
 5,0.00002481,-0.00000083,-0.00023228,0.00014648,-0.00036745,0.00062065
 ,0.00244180,-0.00511604,-0.00017937,0.00011668,-0.00007593,-0.00496185
 ,0.00300104,-0.00266364,0.00033567,0.00014739,-0.00040840,0.00001170,-
 0.00001791,0.00002536,0.00004952,-0.00002468,0.00002792,0.00008767,0.0
 0001830,0.00004973,-0.00002197,-0.00000486,-0.00001937,-0.00001188,-0.
 00000092,-0.00004214,0.00261040,-0.00344192,-0.00108885,-0.01012810,-0
 .00508257,-0.00334131,-0.00009823,0.00016088,0.00000687,-0.00017810,0.
 00014001,-0.00009580,-0.00000676,-0.00000419,-0.00000558,0.00001389,-0
 .00002668,0.00001535,-0.00035779,-0.00022331,-0.00038091,0.00003350,0.
 00000182,0.00015115,-0.00000363,0.00009382,0.00001192,0.00008818,0.000
 07190,0.00007082,-0.00004672,-0.00000432,-0.00001083,0.00002471,-0.000
 00211,0.00000608,-0.00002073,-0.00009147,0.00010720,-0.00000276,-0.000
 01725,-0.00004983,-0.00001013,0.00003064,0.00000019,0.00011019,-0.0001
 6394,0.00008069,0.00001787,0.00002682,-0.00000794,-0.00009658,0.000049
 96,-0.00004034,0.00007969,-0.00008882,-0.00001261,-0.00002655,-0.00000
 088,-0.00004631,-0.00008080,0.00010386,-0.00001731,0.00017850,0.000007
 31,0.00000224,-0.00005543,0.00006373,-0.00002339,-0.00002590,-0.000014
 96,0.00000143,-0.00003768,0.00001880,-0.00008605,0.00010622,0.00003359
 ,-0.00001202,0.00001299,-0.00002826,0.00014873,-0.00003746,-0.00002539
 ,-0.00034729,-0.00001578,0.00026164,-0.00003656,-0.00011143,-0.0000781
 0,0.00031983,-0.09074273,0.01716508,-0.09089641,0.00034482,-0.00206888
 ,-0.00860284,0.00274181,-0.00358295,0.00418276,-0.00649566,0.00199618,
 -0.00121836,-0.00007332,0.00011656,0.00011791,0.00008661,0.00024789,-0
 .00033326,-0.00008431,-0.00008579,0.00026852,0.00023104,0.00002878,-0.
 00010190,-0.00002923,0.00003269,-0.00007391,0.10767241,0.00003863,0.00
 000533,-0.00005375,0.00021789,-0.00017948,0.00008203,-0.00001029,-0.00
 001491,0.00002270,-0.00000023,-0.00000227,0.00002113,-0.00032323,0.000
 16664,-0.00010049,-0.00001944,0.00001109,0.00000511,-0.00002285,0.0000
 1039,-0.00001224,0.00000574,0.00001235,0.00001510,-0.00015700,-0.00004
 771,-0.00001743,-0.00003475,0.00003309,0.00000203,0.00019473,-0.000137
 12,0.00018819,-0.00129691,0.00255585,-0.00265084,0.00007327,0.00000768
 ,-0.00002463,0.00329055,0.00124647,0.00464371,-0.00011233,-0.00024155,
 -0.00022254,-0.00000422,0.00000560,0.00001148,-0.00004156,0.00000691,-
 0.00000109,-0.00000561,-0.00003547,0.00002339,0.00000725,0.00002028,-0
 .00002500,-0.00001324,0.00000089,-0.00001003,0.00310707,-0.00306639,-0
 .00045621,-0.00887327,0.00096417,-0.00516745,-0.00034901,0.00025461,0.
 00037205,0.00008960,-0.00007601,0.00003535,-0.00001249,0.00000049,0.00
 000796,-0.00000033,-0.00001580,0.00000156,0.00007806,0.00001399,0.0001
 2191,-0.00005255,0.00001623,-0.00002463,-0.00001408,-0.00000589,0.0000
 1119,-0.00004432,0.00002036,-0.00006087,0.00000858,-0.00000063,-0.0000
 1784,0.00000272,-0.00001179,-0.00000173,0.00002045,0.00003859,-0.00000
 684,0.00001818,-0.00000359,0.00000216,0.00001021,-0.00000692,0.0000056
 2,-0.00004046,0.00005412,-0.00003307,0.00000140,-0.00000859,-0.0000082
 3,0.00002710,-0.00002539,0.00001092,-0.00001458,-0.00000946,0.00001208
 ,-0.00000426,0.00000347,-0.00000015,0.00000792,-0.00000600,0.00000122,
 0.00000840,-0.00001808,0.00004178,-0.00001093,0.00003518,-0.00003045,-
 0.00000640,0.00000248,-0.00000637,-0.00002189,-0.00003066,0.00000162,0
 .00004930,0.00003602,-0.00000247,0.00001172,0.00000595,0.00000091,-0.0
 0035608,-0.00013933,0.00010604,-0.00012174,0.00037052,-0.00007374,0.00
 003800,0.00003481,-0.00007438,0.01905930,-0.02011185,0.01296614,0.0004
 0094,0.00150726,0.00462125,-0.00155413,-0.00133349,0.00472281,-0.00140
 895,0.00157255,-0.00119254,0.00004583,-0.00006046,0.00007683,-0.000016
 69,-0.00008302,0.00007107,0.00002287,0.00005345,-0.00020675,-0.0000569
 2,0.00000315,0.00003550,0.00000289,-0.00000885,0.00000447,-0.01184667,
 0.01660790,-0.00000523,0.00004248,0.00000428,-0.00036138,0.00017083,0.
 00004163,0.00000732,-0.00005970,-0.00004382,0.00006069,-0.00007375,0.0
 0006544,0.00037303,0.00002527,0.00033787,-0.00011357,0.00020914,-0.000
 02384,-0.00002017,0.00000900,-0.00003154,-0.00003468,0.00003259,-0.000
 04443,0.00034792,-0.00025288,0.00031118,-0.00002711,0.00002747,-0.0000
 2312,-0.00010022,0.00026724,0.00009092,-0.00271582,0.00239990,-0.00432
 922,-0.00014068,0.00017624,-0.00010811,-0.00225461,0.00227130,0.002169
 80,0.00015326,0.00015771,-0.00002254,0.00000877,-0.00002658,0.00004244
 ,0.00001895,-0.00003447,0.00005283,0.00009051,-0.00001372,0.00008316,-
 0.00002074,0.00001281,-0.00005039,-0.00001183,0.00000196,-0.00006341,-
 0.00482510,0.00012270,0.00166828,-0.00272548,-0.00416146,-0.00110693,0
 .00030909,0.00082835,0.00035396,-0.00005980,0.00011428,-0.00013885,-0.
 00003053,-0.00000650,-0.00000057,0.00007793,-0.00005894,0.00003183,-0.
 00019459,-0.00022673,-0.00039189,-0.00000180,0.00002348,0.00016725,0.0
 0001567,0.00005686,0.00000808,0.00000904,0.00003770,0.00009479,-0.0000
 0876,-0.00000266,-0.00005329,0.00000098,0.00000135,0.00000557,-0.00005
 956,-0.00004966,0.00013887,0.00003934,-0.00002918,-0.00005711,0.000007
 73,0.00002919,0.00000254,0.00012119,-0.00017918,0.00006698,0.00002986,
 0.00002683,-0.00002539,-0.00010937,0.00003944,-0.00004193,0.00009327,-
 0.00011527,-0.00001243,-0.00003508,0.00000084,-0.00005530,-0.00009522,
 0.00012772,-0.00002081,0.00028028,0.00001076,0.00002317,-0.00009228,0.
 00003426,0.00000982,-0.00005833,-0.00001096,-0.00000485,0.00005812,-0.
 00009037,-0.00003127,-0.00004089,-0.00002331,-0.00005189,0.00000856,-0
 .00000066,0.00005365,0.00075512,0.00014449,-0.00070231,0.00029795,-0.0
 0035765,-0.00017397,-0.00017292,-0.00017984,0.00054247,-0.10000805,0.0
 1173779,-0.13909062,-0.00068881,-0.00140403,-0.00207540,0.00255007,0.0
 0351248,-0.01306259,-0.00071255,0.00210679,-0.00009914,-0.00024967,0.0
 0012577,0.00032509,0.00004706,0.00013347,-0.00023228,0.00000110,0.0000
 9849,0.00010405,0.00016304,0.00001335,-0.00009187,-0.00003607,0.000032
 02,-0.00008967,0.11023434,-0.01775367,0.15548057,0.00002414,0.00066036
 ,-0.00044537,-0.00008709,-0.00002375,-0.00004704,-0.00021181,-0.000375
 64,0.00003856,0.00017212,-0.00014257,-0.00004291,-0.00010474,0.0000035
 1,-0.00002562,-0.00192036,0.00046264,-0.00019716,0.00015383,-0.0000479
 2,-0.00007543,0.00041664,-0.00042486,0.00003419,0.00044345,0.00004895,
 -0.00015018,0.00013997,0.00003322,-0.00002891,-0.00009973,0.00009684,-
 0.00001912,0.00005435,-0.00005810,0.00001203,-0.00024116,-0.00012163,0
 .00008172,0.00004405,-0.00001946,-0.00000099,0.00001696,0.00002563,-0.
 00000801,0.00010465,0.00057335,-0.00020804,0.00008259,0.00004001,0.000
 01146,-0.00099463,-0.00079084,0.00004918,0.00502838,-0.00035519,0.0026
 4012,-0.00086793,-0.00713954,-0.00006333,0.00008027,-0.00005888,0.0001
 0500,-0.00004417,0.00004999,-0.00001145,0.00000358,-0.00004290,-0.0000
 0125,-0.00024199,0.00009927,-0.00000637,0.00003204,0.00000815,-0.00002
 982,-0.00000409,-0.00006889,0.00003980,-0.00003062,0.00001583,-0.00005
 535,0.00005681,-0.00000140,-0.00002999,0.00001325,-0.00001567,-0.00000
 544,0.00011891,-0.00001622,-0.00002100,-0.00002692,-0.00002735,0.00007
 359,0.00001020,0.00000493,0.00005580,0.00002801,-0.00012517,-0.0002245
 4,-0.00007698,0.00004752,0.00005490,-0.00009026,-0.00000056,-0.0000266
 7,0.00013828,-0.00017044,0.00009968,0.00004298,-0.00001358,0.00001041,
 -0.00010501,0.00006703,0.00000086,-0.00021697,0.00053988,0.00027751,0.
 00022678,-0.00005619,-0.00021191,0.00028862,-0.00031044,-0.00001610,-0
 .18410281,-0.04786492,0.10995989,-0.01082672,-0.00326224,-0.00456876,-
 0.00488767,0.00341799,-0.00046174,-0.00083011,-0.00025053,0.00059378,-
 0.00021004,0.00005686,-0.00022182,-0.00010235,0.00020870,-0.00066493,-
 0.00003664,-0.00021168,0.00044462,-0.00005217,0.00004692,0.00002765,0.
 00011997,0.00017666,-0.00031278,0.00009706,0.00004837,0.00015029,-0.00
 005293,-0.00000556,-0.00000216,-0.00006271,0.00003250,-0.00006297,0.00
 008759,-0.00004905,0.00008861,0.00000152,0.00003768,-0.00001535,-0.000
 04748,0.00000743,-0.00009381,0.00010480,-0.00002163,0.00002464,-0.0000
 5860,0.00002173,0.00002805,0.00005422,-0.00001994,0.00015839,-0.000122
 65,0.00000883,-0.00014930,0.19857131,0.00033142,0.00037707,0.00008413,
 0.00000077,-0.00007450,-0.00002122,0.00018489,0.00013649,-0.00003482,0
 .00018465,0.00045120,-0.00030644,-0.00007531,0.00002532,-0.00004803,-0
 .00324717,-0.00117820,0.00126989,0.00004515,0.00004487,0.00007726,0.00
 045197,-0.00000940,-0.00026059,0.00059577,-0.00005673,-0.00002925,0.00
 010454,0.00006314,0.00002847,-0.00002111,0.00012887,0.00000119,0.00000
 077,0.00001372,0.00004365,-0.00004891,-0.00004170,-0.00006844,0.000022
 37,-0.00000669,-0.00000849,0.00000385,-0.00000634,0.00000632,-0.000143
 76,-0.00036645,-0.00019132,0.00001326,0.00001907,0.00002540,-0.0001491
 8,0.00017408,0.00237671,-0.00316115,-0.00169766,0.00291854,0.00064844,
 0.00484609,0.00052115,0.00002859,-0.00001262,0.00008280,-0.00001182,0.
 00001516,-0.00000971,0.00005004,-0.00005114,-0.00003612,-0.00004090,-0
 .00003020,0.00001405,0.00000689,0.00000350,0.00000079,-0.00001153,-0.0
 0000966,0.00000022,0.00000485,-0.00000058,-0.00001223,0.00001354,0.000
 01468,-0.00001635,0.00000207,-0.00000739,0.00000202,0.00002310,-0.0000
 0948,-0.00001952,-0.00000687,-0.00000702,0.00002079,-0.00000238,0.0000
 0078,0.00001394,0.00000469,-0.00000526,-0.00005245,-0.00001606,0.00000
 855,0.00001393,-0.00000897,-0.00000721,-0.00000717,0.00000663,-0.00004
 217,0.00002076,0.00003735,0.00000225,-0.00000643,-0.00005007,-0.000020
 77,0.00001697,-0.00011128,0.00010646,-0.00029879,-0.00006570,0.0001695
 3,-0.00025021,0.00008355,-0.00004028,0.00002074,-0.04299024,-0.0378630
 0,0.03243326,-0.00490950,-0.00000961,-0.00029375,-0.00210818,0.0067511
 4,-0.00347655,-0.00090485,0.00007870,0.00009045,-0.00016698,0.00012957
 ,-0.00023527,0.00013424,0.00001732,-0.00026936,-0.00006959,-0.00004442
 ,0.00022481,-0.00002935,0.00002812,0.00001222,0.00012629,0.00005810,-0
 .00013109,0.00002783,0.00002391,0.00005195,-0.00001783,-0.00000673,-0.
 00000609,-0.00001395,0.00001664,-0.00001884,0.00002026,-0.00001492,0.0
 0001099,0.00000725,0.00001166,-0.00000741,-0.00001117,0.00000095,-0.00
 002075,0.00002605,0.00000074,-0.00001206,-0.00002025,0.00000385,0.0000
 1572,0.00001088,-0.00000777,0.00003825,-0.00003984,0.00000286,-0.00005
 114,0.05525196,0.02790353,-0.00037135,-0.00087917,0.00088212,0.0000059
 1,0.00010634,0.00004982,-0.00036678,0.00028859,-0.00023971,-0.00053229
 ,0.00015179,0.00029274,-0.00005668,-0.00002500,-0.00012046,0.00509903,
 -0.00025524,-0.00147829,-0.00025726,-0.00023384,0.00002828,-0.00083824
 ,0.00006820,-0.00041198,-0.00048239,0.00029780,0.00044906,-0.00030802,
 -0.00001185,-0.00008042,0.00002194,0.00001120,0.00002921,0.00002870,0.
 00000195,-0.00004224,0.00125087,0.00009716,-0.00007698,-0.00000738,-0.
 00000993,0.00000898,-0.00000438,-0.00004037,0.00002039,0.00000245,0.00
 014984,-0.00021920,-0.00023789,0.00002541,-0.00000159,-0.00117388,-0.0
 0159520,0.00129768,0.00417631,0.00627308,-0.01268469,0.00069834,0.0059
 5353,-0.00095895,-0.00003888,0.00000966,0.00011338,0.00002278,-0.00001
 137,-0.00001559,0.00012028,0.00007522,-0.00005369,0.00049720,-0.000230
 78,0.00009022,-0.00001693,-0.00000367,0.00003039,-0.00011978,0.0000897
 4,-0.00003678,0.00014203,-0.00002002,0.00000143,-0.00008648,0.00000689
 ,-0.00001667,-0.00001335,0.00000926,0.00001342,-0.00014329,-0.00002437
 ,0.00002535,0.00002860,0.00002194,-0.00007523,-0.00006298,0.00003513,-
 0.00005713,-0.00001732,0.00014525,0.00015667,0.00007670,-0.00003079,-0
 .00003721,0.00009476,0.00000229,0.00002616,-0.00022081,0.00029876,-0.0
 0012390,-0.00013853,-0.00007098,-0.00002943,0.00017594,-0.00010270,0.0
 0001403,0.00028009,-0.00007562,0.00012730,-0.00027140,-0.00016096,0.00
 012748,-0.00023336,0.00025006,-0.00004902,0.10242226,0.02745754,-0.067
 00271,-0.00513465,0.00085470,0.00208539,0.00206475,-0.00336738,-0.0004
 2996,0.00058466,-0.00107095,-0.00021321,-0.00008451,-0.00003325,0.0001
 2473,0.00001018,-0.00018664,-0.00023741,0.00016403,0.00005223,-0.00036
 818,0.00000633,-0.00000896,-0.00001599,-0.00011854,-0.00009750,0.00021
 627,-0.00003183,0.00001433,-0.00008377,-0.00001949,0.00002031,-0.00000
 360,0.00005170,-0.00001492,0.00004891,-0.00009387,0.00008474,-0.000066
 54,0.00000524,-0.00006189,-0.00000627,0.00004132,-0.00002222,0.0000905
 1,-0.00007525,0.00006744,-0.00006058,0.00000774,-0.00002997,0.00000399
 ,-0.00003018,0.00000251,-0.00011337,0.00006295,-0.00000990,0.00007426,
 -0.10655511,-0.03423745,0.07898256\\0.00001118,-0.00001060,-0.00000261
 ,-0.00000548,0.00000840,0.00000338,-0.00000245,0.00000061,-0.00000258,
 0.00000772,-0.00000284,0.00000730,0.00000338,-0.00000179,-0.00000256,-
 0.00003851,-0.00001379,-0.00002496,0.00000803,-0.00000342,0.00000031,0
 .00000404,-0.00000060,-0.00002798,-0.00001000,-0.00000482,0.00001518,-
 0.00000228,0.00000631,0.00000507,0.00000533,0.00000761,0.00000385,-0.0
 0000982,-0.00000237,-0.00000319,0.00000830,0.00000240,-0.00000695,0.00
 000129,0.00000152,-0.00000048,0.00000238,-0.00000230,0.00000184,0.0000
 0157,0.00000403,-0.00000030,-0.00000229,-0.00000240,-0.00000122,-0.000
 00795,-0.00000267,0.00000619,0.00000234,0.00000076,-0.00000562,-0.0000
 0152,0.00000014,0.00000033,0.00000115,-0.00001055,0.00000712,-0.000002
 10,0.00000175,-0.00000132,0.00000237,0.00000064,-0.00000041,0.00001899
 ,-0.00000532,-0.00000768,0.00000063,0.00000097,0.00000397,0.00000663,-
 0.00000530,0.00000691,0.00000621,0.00000363,-0.00000348,-0.00000566,-0
 .00000342,0.00000111,0.00000049,0.00000051,-0.00000011,-0.00001024,-0.
 00002591,0.00001576,0.00000089,0.00001341,-0.00000986,0.00000048,-0.00
 000002,0.00000133,0.00000320,0.00001344,0.00000089,0.00000103,0.000001
 30,0.00000150,0.00000352,-0.00000068,-0.00000159,-0.00001924,0.0000092
 1,-0.00000615,-0.00000587,0.00000401,-0.00000270,0.00000956,0.00000238
 ,0.00000358,-0.00000471,-0.00000775,0.00000112,0.00000209,0.00000403,0
 .00000055,-0.00000090,-0.00000085,-0.00000020,0.00000625,0.00003279,0.
 00006673,0.00000398,0.00000148,0.00000859,0.00000481,-0.00000090,0.000
 00606,0.00000003,0.00000369,-0.00000478,-0.00000396,-0.00000186,0.0000
 0526,0.00000755,0.00000369,0.00000132,0.00000048,0.00000075,0.00000019
 ,-0.00000133,0.00000139,-0.00000183,0.00000041,-0.00000074,-0.00000017
 ,-0.00000293,0.00000221,-0.00000671,0.00000012,-0.00000065,0.00000054,
 0.00000225,0.00000044,0.00000048,-0.00000280,0.00000199,0.00000269,-0.
 00000032,-0.00000403,-0.00000287,0.00000427,0.00000161,0.00000383,-0.0
 0000176,0.00000655,-0.00000287,-0.00000293,-0.00000238,0.,-0.00000440,
 -0.00000278,-0.00000185,-0.00000061,-0.00000375,0.00000033,0.00000714,
 -0.00001916,-0.00005033\\\@
 The archive entry for this job was punched.


 SLITHERY-DITHERY
 FRIEDRICH A. KEKULE
 DREAMT ON A BUS OF THINGS
 FREUD WOULD THINK KEEN.
 MOST OF THE TIME THEY WERE
 HERPETOLOGICAL
 BITING THEIR TAILS IN THE
 SHAPE OF BENZENE.
 Job cpu time:       5 days 15 hours 23 minutes  2.5 seconds.
 Elapsed time:       0 days  2 hours 57 minutes 13.7 seconds.
 File lengths (MBytes):  RWF=  12113 Int=      0 D2E=      0 Chk=     92 Scr=      2
 Normal termination of Gaussian 16 at Mon Feb 13 14:03:07 2023.
