 Entering Gaussian System, Link 0=g16
 Initial command:
 /home/chesagar/softwares/G16_AVX2//g16/l1.exe "/home/chesagar/scratch/Gau-34329.inp" -scrdir="/home/chesagar/scratch/"
 Entering Link 1 = /home/chesagar/softwares/G16_AVX2//g16/l1.exe PID=     34331.
  
 Copyright (c) 1988-2019, Gaussian, Inc.  All Rights Reserved.
  
 This is part of the Gaussian(R) 16 program.  It is based on
 the Gaussian(R) 09 system (copyright 2009, Gaussian, Inc.),
 the Gaussian(R) 03 system (copyright 2003, Gaussian, Inc.),
 the Gaussian(R) 98 system (copyright 1998, Gaussian, Inc.),
 the Gaussian(R) 94 system (copyright 1995, Gaussian, Inc.),
 the Gaussian 92(TM) system (copyright 1992, Gaussian, Inc.),
 the Gaussian 90(TM) system (copyright 1990, Gaussian, Inc.),
 the Gaussian 88(TM) system (copyright 1988, Gaussian, Inc.),
 the Gaussian 86(TM) system (copyright 1986, Carnegie Mellon
 University), and the Gaussian 82(TM) system (copyright 1983,
 Carnegie Mellon University). Gaussian is a federally registered
 trademark of Gaussian, Inc.
  
 This software contains proprietary and confidential information,
 including trade secrets, belonging to Gaussian, Inc.
  
 This software is provided under written license and may be
 used, copied, transmitted, or stored only in accord with that
 written license.
  
 The following legend is applicable only to US Government
 contracts under FAR:
  
                    RESTRICTED RIGHTS LEGEND
  
 Use, reproduction and disclosure by the US Government is
 subject to restrictions as set forth in subparagraphs (a)
 and (c) of the Commercial Computer Software - Restricted
 Rights clause in FAR 52.227-19.
  
 Gaussian, Inc.
 340 Quinnipiac St., Bldg. 40, Wallingford CT 06492
  
  
 ---------------------------------------------------------------
 Warning -- This program may not be used in any manner that
 competes with the business of Gaussian, Inc. or will provide
 assistance to any competitor of Gaussian, Inc.  The licensee
 of this program is prohibited from giving any competitor of
 Gaussian, Inc. access to this program.  By using this program,
 the user acknowledges that Gaussian, Inc. is engaged in the
 business of creating and licensing software in the field of
 computational chemistry and represents and warrants to the
 licensee that it is not a competitor of Gaussian, Inc. and that
 it will not use this program in any manner prohibited above.
 ---------------------------------------------------------------
  

 Cite this work as:
 Gaussian 16, Revision C.01,
 M. J. Frisch, G. W. Trucks, H. B. Schlegel, G. E. Scuseria, 
 M. A. Robb, J. R. Cheeseman, G. Scalmani, V. Barone, 
 G. A. Petersson, H. Nakatsuji, X. Li, M. Caricato, A. V. Marenich, 
 J. Bloino, B. G. Janesko, R. Gomperts, B. Mennucci, H. P. Hratchian, 
 J. V. Ortiz, A. F. Izmaylov, J. L. Sonnenberg, D. Williams-Young, 
 F. Ding, F. Lipparini, F. Egidi, J. Goings, B. Peng, A. Petrone, 
 T. Henderson, D. Ranasinghe, V. G. Zakrzewski, J. Gao, N. Rega, 
 G. Zheng, W. Liang, M. Hada, M. Ehara, K. Toyota, R. Fukuda, 
 J. Hasegawa, M. Ishida, T. Nakajima, Y. Honda, O. Kitao, H. Nakai, 
 T. Vreven, K. Throssell, J. A. Montgomery, Jr., J. E. Peralta, 
 F. Ogliaro, M. J. Bearpark, J. J. Heyd, E. N. Brothers, K. N. Kudin, 
 V. N. Staroverov, T. A. Keith, R. Kobayashi, J. Normand, 
 K. Raghavachari, A. P. Rendell, J. C. Burant, S. S. Iyengar, 
 J. Tomasi, M. Cossi, J. M. Millam, M. Klene, C. Adamo, R. Cammi, 
 J. W. Ochterski, R. L. Martin, K. Morokuma, O. Farkas, 
 J. B. Foresman, and D. J. Fox, Gaussian, Inc., Wallingford CT, 2019.
 
 ******************************************
 Gaussian 16:  ES64L-G16RevC.01  3-Jul-2019
                 7-Feb-2023 
 ******************************************
 %nprocshared=46
 Will use up to   46 processors via shared memory.
 %chk=int_4.chk
 %mem=100GB
 ---------------------------------------------------------
 # opt freq b3lyp/gen nosymm pseudo=read scf=maxcycles=500
 ---------------------------------------------------------
 1/18=20,19=15,26=3,38=1/1,3;
 2/9=110,12=2,15=1,17=6,18=5,40=1/2;
 3/5=7,11=2,16=1,17=8,25=1,30=1,71=1,74=-5/1,2,3;
 4//1;
 5/5=2,7=500,38=5/2;
 6/7=2,8=2,9=2,10=2,28=1/1;
 7/30=1/1,2,3,16;
 1/18=20,19=15,26=3/3(2);
 2/9=110,15=1/2;
 99//99;
 2/9=110,15=1/2;
 3/5=7,6=1,11=2,16=1,17=8,25=1,30=1,71=1,74=-5,82=7/1,2,3;
 4/5=5,16=3,69=1/1;
 5/5=2,7=500,38=5/2;
 7/30=1/1,2,3,16;
 1/18=20,19=15,26=3/3(-5);
 2/9=110,15=1/2;
 6/7=2,8=2,9=2,10=2,19=2,28=1/1;
 99/9=1/99;
 -------------------
 Title Card Required
 -------------------
 Symbolic Z-matrix:
 Charge =  0 Multiplicity = 1
 42                   -0.15127   1.4038    13.02681 
 16                    1.65346   3.12508   12.69832 
 16                   -1.17692   3.36325   13.82912 
 16                   -0.93179   1.12931   10.78765 
 16                    1.65226  -0.29351   12.06649 
 42                   -2.29944   3.01062   11.50527 
 16                   -2.83531   2.74376   8.97886 
 16                   -0.91641   4.81332   10.67385 
 42                    0.59673   3.01686   10.65902 
 16                    0.07647   2.94025   8.04897 
 16                    2.39824   1.65098   9.6301 
 42                    3.43724   1.3763    11.90564 
 42                   -1.50311   4.79637   8.08893 
 16                    4.13237   1.67454   14.25223 
 16                    4.60977   3.46397   11.41792 
 16                   -3.26415   6.3937    8.84703 
 16                   -0.04713   6.67862   7.91418 
 42                   -4.44162   4.30748   8.89746 
 16                   -6.52784   2.92223   9.43613 
 16                   -5.68821   5.44293   11.01529 
 42                    2.70368  -0.28298   14.09051 
 16                    4.25188  -1.98172   13.89105 
 16                    1.07329   1.16005   15.34506 
 42                    1.48766   4.78199   7.37177 
 16                    0.62772   4.30155   4.9519 
 16                    2.15835   4.84162   9.74421 
 42                    3.98403   3.4667    8.7888 
 16                    3.08911   2.96523   6.6469 
 16                    5.39145   5.47755   8.60711 
 42                    4.43113   4.85317   6.39677 
 16                    6.52575   4.30721   5.3746 
 16                    3.09581   6.70426   7.00042 
 42                    2.3134    5.9398    4.90569 
 16                    3.94121   4.72496   3.94712 
 16                    0.6798    7.94424   4.952 
 42                   -0.80007   6.01596   5.77768 
 16                   -2.35349   4.1551    5.89019 
 16                   -2.55422   7.13318   4.89662 
 42                   -3.9684    5.97944   6.63596 
 16                   -5.47225   4.15996   6.87423 
 16                   -5.42253   7.50248   6.25649 
 42                   -5.87415   2.89361   11.38519 
 16                   -4.147     3.42746   12.9793 
 16                   -3.95679   0.96123   11.83766 
 42                   -2.72256   1.54816   14.0248 
 16                   -1.61237  -0.62201   13.42387 
 16                   -3.07031   1.37727   16.1079 
 42                   -0.18868  -0.76646   15.28151 
 16                    1.25671  -2.32505   14.77166 
 16                   -1.13384  -1.29433   17.09947 
 42                    5.5101   -0.04934   13.50271 
 16                    4.84557  -0.47471   11.06723 
 16                    7.50749   0.97483   12.19173 
 42                    5.90068   1.65694   10.83759 
 16                    5.61181   1.56492   8.44601 
 16                    7.8076    3.64047   10.32175 
 42                    6.8       3.63256   8.43366 
 16                    8.17879   4.16919   6.71276 
 16                    1.81072   7.44399   3.22082 
 16                    6.93487  -0.21602   15.09925 
 16                   -7.66989   2.74711   12.48036 
 

 GradGradGradGradGradGradGradGradGradGradGradGradGradGradGradGradGradGrad
 Berny optimization.
 Initialization pass.
                           ----------------------------
                           !    Initial Parameters    !
                           ! (Angstroms and Degrees)  !
 --------------------------                            --------------------------
 ! Name  Definition              Value          Derivative Info.                !
 --------------------------------------------------------------------------------
 ! R1    R(1,2)                  2.5155         estimate D2E/DX2                !
 ! R2    R(1,3)                  2.3527         estimate D2E/DX2                !
 ! R3    R(1,4)                  2.3871         estimate D2E/DX2                !
 ! R4    R(1,5)                  2.6563         estimate D2E/DX2                !
 ! R5    R(1,6)                  3.0841         estimate D2E/DX2                !
 ! R6    R(1,9)                  2.9611         estimate D2E/DX2                !
 ! R7    R(1,23)                 2.6331         estimate D2E/DX2                !
 ! R8    R(1,45)                 2.7619         estimate D2E/DX2                !
 ! R9    R(1,46)                 2.5291         estimate D2E/DX2                !
 ! R10   R(2,9)                  2.2994         estimate D2E/DX2                !
 ! R11   R(2,12)                 2.6208         estimate D2E/DX2                !
 ! R12   R(3,6)                  2.6047         estimate D2E/DX2                !
 ! R13   R(3,45)                 2.392          estimate D2E/DX2                !
 ! R14   R(4,6)                  2.4341         estimate D2E/DX2                !
 ! R15   R(4,9)                  2.4322         estimate D2E/DX2                !
 ! R16   R(5,12)                 2.4496         estimate D2E/DX2                !
 ! R17   R(5,21)                 2.2808         estimate D2E/DX2                !
 ! R18   R(6,7)                  2.5964         estimate D2E/DX2                !
 ! R19   R(6,8)                  2.4195         estimate D2E/DX2                !
 ! R20   R(6,9)                  3.0173         estimate D2E/DX2                !
 ! R21   R(6,43)                 2.4            estimate D2E/DX2                !
 ! R22   R(6,44)                 2.6566         estimate D2E/DX2                !
 ! R23   R(6,45)                 2.9438         estimate D2E/DX2                !
 ! R24   R(7,13)                 2.6038         estimate D2E/DX2                !
 ! R25   R(7,18)                 2.2432         estimate D2E/DX2                !
 ! R26   R(8,9)                  2.3488         estimate D2E/DX2                !
 ! R27   R(8,13)                 2.6507         estimate D2E/DX2                !
 ! R28   R(9,10)                 2.6625         estimate D2E/DX2                !
 ! R29   R(9,11)                 2.4839         estimate D2E/DX2                !
 ! R30   R(9,26)                 2.5701         estimate D2E/DX2                !
 ! R31   R(10,13)                2.4376         estimate D2E/DX2                !
 ! R32   R(10,24)                2.417          estimate D2E/DX2                !
 ! R33   R(11,12)                2.5166         estimate D2E/DX2                !
 ! R34   R(11,27)                2.5533         estimate D2E/DX2                !
 ! R35   R(12,14)                2.4655         estimate D2E/DX2                !
 ! R36   R(12,15)                2.4436         estimate D2E/DX2                !
 ! R37   R(12,21)                2.8399         estimate D2E/DX2                !
 ! R38   R(12,51)                2.9799         estimate D2E/DX2                !
 ! R39   R(12,52)                2.4724         estimate D2E/DX2                !
 ! R40   R(12,54)                2.6996         estimate D2E/DX2                !
 ! R41   R(13,16)                2.4955         estimate D2E/DX2                !
 ! R42   R(13,17)                2.3861         estimate D2E/DX2                !
 ! R43   R(13,18)                3.0867         estimate D2E/DX2                !
 ! R44   R(13,24)                3.0756         estimate D2E/DX2                !
 ! R45   R(13,36)                2.7062         estimate D2E/DX2                !
 ! R46   R(13,37)                2.4431         estimate D2E/DX2                !
 ! R47   R(13,39)                3.0965         estimate D2E/DX2                !
 ! R48   R(14,21)                2.4288         estimate D2E/DX2                !
 ! R49   R(14,51)                2.3306         estimate D2E/DX2                !
 ! R50   R(15,27)                2.7026         estimate D2E/DX2                !
 ! R51   R(15,54)                2.2953         estimate D2E/DX2                !
 ! R52   R(16,18)                2.3961         estimate D2E/DX2                !
 ! R53   R(16,39)                2.3572         estimate D2E/DX2                !
 ! R54   R(17,24)                2.4994         estimate D2E/DX2                !
 ! R55   R(17,36)                2.3602         estimate D2E/DX2                !
 ! R56   R(18,19)                2.5615         estimate D2E/DX2                !
 ! R57   R(18,20)                2.7071         estimate D2E/DX2                !
 ! R58   R(18,39)                2.852          estimate D2E/DX2                !
 ! R59   R(18,40)                2.2754         estimate D2E/DX2                !
 ! R60   R(19,42)                2.056          estimate D2E/DX2                !
 ! R61   R(20,42)                2.5827         estimate D2E/DX2                !
 ! R62   R(21,22)                2.307          estimate D2E/DX2                !
 ! R63   R(21,23)                2.5128         estimate D2E/DX2                !
 ! R64   R(21,49)                2.5938         estimate D2E/DX2                !
 ! R65   R(21,51)                2.8768         estimate D2E/DX2                !
 ! R66   R(22,51)                2.3384         estimate D2E/DX2                !
 ! R67   R(23,48)                2.3039         estimate D2E/DX2                !
 ! R68   R(24,25)                2.6127         estimate D2E/DX2                !
 ! R69   R(24,26)                2.4661         estimate D2E/DX2                !
 ! R70   R(24,28)                2.528          estimate D2E/DX2                !
 ! R71   R(24,30)                3.1016         estimate D2E/DX2                !
 ! R72   R(24,32)                2.5336         estimate D2E/DX2                !
 ! R73   R(24,33)                2.8467         estimate D2E/DX2                !
 ! R74   R(24,36)                3.0492         estimate D2E/DX2                !
 ! R75   R(25,33)                2.3511         estimate D2E/DX2                !
 ! R76   R(25,36)                2.379          estimate D2E/DX2                !
 ! R77   R(26,27)                2.4772         estimate D2E/DX2                !
 ! R78   R(27,28)                2.3749         estimate D2E/DX2                !
 ! R79   R(27,29)                2.4612         estimate D2E/DX2                !
 ! R80   R(27,30)                2.8007         estimate D2E/DX2                !
 ! R81   R(27,55)                2.5266         estimate D2E/DX2                !
 ! R82   R(27,57)                2.8431         estimate D2E/DX2                !
 ! R83   R(28,30)                2.3298         estimate D2E/DX2                !
 ! R84   R(29,30)                2.4895         estimate D2E/DX2                !
 ! R85   R(29,57)                2.3277         estimate D2E/DX2                !
 ! R86   R(30,31)                2.3938         estimate D2E/DX2                !
 ! R87   R(30,32)                2.3609         estimate D2E/DX2                !
 ! R88   R(30,33)                2.8087         estimate D2E/DX2                !
 ! R89   R(30,34)                2.5014         estimate D2E/DX2                !
 ! R90   R(31,58)                2.1313         estimate D2E/DX2                !
 ! R91   R(32,33)                2.3631         estimate D2E/DX2                !
 ! R92   R(33,34)                2.246          estimate D2E/DX2                !
 ! R93   R(33,35)                2.5862         estimate D2E/DX2                !
 ! R94   R(33,59)                2.3139         estimate D2E/DX2                !
 ! R95   R(35,36)                2.5671         estimate D2E/DX2                !
 ! R96   R(35,59)                2.1275         estimate D2E/DX2                !
 ! R97   R(36,37)                2.4266         estimate D2E/DX2                !
 ! R98   R(36,38)                2.2586         estimate D2E/DX2                !
 ! R99   R(37,39)                2.548          estimate D2E/DX2                !
 ! R100  R(38,39)                2.5212         estimate D2E/DX2                !
 ! R101  R(39,40)                2.3725         estimate D2E/DX2                !
 ! R102  R(39,41)                2.1397         estimate D2E/DX2                !
 ! R103  R(42,43)                2.4102         estimate D2E/DX2                !
 ! R104  R(42,44)                2.7595         estimate D2E/DX2                !
 ! R105  R(42,61)                2.1084         estimate D2E/DX2                !
 ! R106  R(43,45)                2.5795         estimate D2E/DX2                !
 ! R107  R(44,45)                2.579          estimate D2E/DX2                !
 ! R108  R(45,46)                2.5106         estimate D2E/DX2                !
 ! R109  R(45,47)                2.1188         estimate D2E/DX2                !
 ! R110  R(46,48)                2.3449         estimate D2E/DX2                !
 ! R111  R(48,49)                2.1859         estimate D2E/DX2                !
 ! R112  R(48,50)                2.1159         estimate D2E/DX2                !
 ! R113  R(51,52)                2.5601         estimate D2E/DX2                !
 ! R114  R(51,53)                2.5995         estimate D2E/DX2                !
 ! R115  R(51,60)                2.1463         estimate D2E/DX2                !
 ! R116  R(52,54)                2.3895         estimate D2E/DX2                !
 ! R117  R(53,54)                2.2093         estimate D2E/DX2                !
 ! R118  R(54,55)                2.4107         estimate D2E/DX2                !
 ! R119  R(55,57)                2.3848         estimate D2E/DX2                !
 ! R120  R(56,57)                2.1401         estimate D2E/DX2                !
 ! R121  R(57,58)                2.2695         estimate D2E/DX2                !
 ! A1    A(2,1,3)               77.7254         estimate D2E/DX2                !
 ! A2    A(2,1,4)              100.9979         estimate D2E/DX2                !
 ! A3    A(2,1,5)               84.428          estimate D2E/DX2                !
 ! A4    A(2,1,6)               94.5191         estimate D2E/DX2                !
 ! A5    A(2,1,23)              81.0633         estimate D2E/DX2                !
 ! A6    A(2,1,45)             132.7918         estimate D2E/DX2                !
 ! A7    A(3,1,4)              105.8492         estimate D2E/DX2                !
 ! A8    A(3,1,5)              162.0762         estimate D2E/DX2                !
 ! A9    A(3,1,9)               85.935          estimate D2E/DX2                !
 ! A10   A(3,1,23)              88.831          estimate D2E/DX2                !
 ! A11   A(3,1,46)             111.206          estimate D2E/DX2                !
 ! A12   A(4,1,5)               79.0128         estimate D2E/DX2                !
 ! A13   A(4,1,45)              92.324          estimate D2E/DX2                !
 ! A14   A(4,1,46)              82.3145         estimate D2E/DX2                !
 ! A15   A(5,1,6)              128.8642         estimate D2E/DX2                !
 ! A16   A(5,1,9)               83.5396         estimate D2E/DX2                !
 ! A17   A(5,1,23)              86.7545         estimate D2E/DX2                !
 ! A18   A(5,1,45)             142.7623         estimate D2E/DX2                !
 ! A19   A(5,1,46)              86.3987         estimate D2E/DX2                !
 ! A20   A(6,1,23)             143.7573         estimate D2E/DX2                !
 ! A21   A(6,1,46)              95.3004         estimate D2E/DX2                !
 ! A22   A(9,1,23)             129.5662         estimate D2E/DX2                !
 ! A23   A(9,1,45)             119.7119         estimate D2E/DX2                !
 ! A24   A(9,1,46)             135.0586         estimate D2E/DX2                !
 ! A25   A(23,1,45)             96.873          estimate D2E/DX2                !
 ! A26   A(23,1,46)             93.2277         estimate D2E/DX2                !
 ! A27   A(1,2,12)              94.0837         estimate D2E/DX2                !
 ! A28   A(9,2,12)              90.7533         estimate D2E/DX2                !
 ! A29   A(1,5,12)              94.7565         estimate D2E/DX2                !
 ! A30   A(1,5,21)              89.3824         estimate D2E/DX2                !
 ! A31   A(1,6,7)              124.7691         estimate D2E/DX2                !
 ! A32   A(1,6,8)               99.1819         estimate D2E/DX2                !
 ! A33   A(1,6,43)             108.8861         estimate D2E/DX2                !
 ! A34   A(1,6,44)              88.3321         estimate D2E/DX2                !
 ! A35   A(3,6,4)               97.2109         estimate D2E/DX2                !
 ! A36   A(3,6,8)               87.6713         estimate D2E/DX2                !
 ! A37   A(3,6,9)               80.5776         estimate D2E/DX2                !
 ! A38   A(3,6,43)              76.1307         estimate D2E/DX2                !
 ! A39   A(3,6,44)             105.1692         estimate D2E/DX2                !
 ! A40   A(4,6,7)               75.502          estimate D2E/DX2                !
 ! A41   A(4,6,8)               98.823          estimate D2E/DX2                !
 ! A42   A(4,6,43)             138.4048         estimate D2E/DX2                !
 ! A43   A(4,6,44)              77.9464         estimate D2E/DX2                !
 ! A44   A(4,6,45)              87.0833         estimate D2E/DX2                !
 ! A45   A(7,6,8)               81.9626         estimate D2E/DX2                !
 ! A46   A(7,6,9)               85.7225         estimate D2E/DX2                !
 ! A47   A(7,6,43)             117.1677         estimate D2E/DX2                !
 ! A48   A(7,6,44)              85.0489         estimate D2E/DX2                !
 ! A49   A(7,6,45)             138.7722         estimate D2E/DX2                !
 ! A50   A(8,6,43)             121.4461         estimate D2E/DX2                !
 ! A51   A(8,6,45)             138.2822         estimate D2E/DX2                !
 ! A52   A(9,6,43)             155.6182         estimate D2E/DX2                !
 ! A53   A(9,6,44)             129.4585         estimate D2E/DX2                !
 ! A54   A(9,6,45)             112.2742         estimate D2E/DX2                !
 ! A55   A(43,6,44)             64.968          estimate D2E/DX2                !
 ! A56   A(6,7,13)              98.3921         estimate D2E/DX2                !
 ! A57   A(6,7,18)              96.3993         estimate D2E/DX2                !
 ! A58   A(6,8,13)             101.7604         estimate D2E/DX2                !
 ! A59   A(9,8,13)              97.5586         estimate D2E/DX2                !
 ! A60   A(1,9,8)              104.4102         estimate D2E/DX2                !
 ! A61   A(1,9,10)             135.9596         estimate D2E/DX2                !
 ! A62   A(1,9,11)             102.4092         estimate D2E/DX2                !
 ! A63   A(1,9,26)             145.5786         estimate D2E/DX2                !
 ! A64   A(2,9,4)              106.1666         estimate D2E/DX2                !
 ! A65   A(2,9,6)              101.0975         estimate D2E/DX2                !
 ! A66   A(2,9,8)              104.742          estimate D2E/DX2                !
 ! A67   A(2,9,10)             163.8585         estimate D2E/DX2                !
 ! A68   A(2,9,11)              93.4367         estimate D2E/DX2                !
 ! A69   A(2,9,26)              90.1737         estimate D2E/DX2                !
 ! A70   A(4,9,8)              100.8576         estimate D2E/DX2                !
 ! A71   A(4,9,10)              84.6472         estimate D2E/DX2                !
 ! A72   A(4,9,11)              92.9204         estimate D2E/DX2                !
 ! A73   A(4,9,26)             162.1157         estimate D2E/DX2                !
 ! A74   A(6,9,10)              95.0095         estimate D2E/DX2                !
 ! A75   A(6,9,11)             144.2137         estimate D2E/DX2                !
 ! A76   A(6,9,26)             133.1985         estimate D2E/DX2                !
 ! A77   A(8,9,10)              84.3943         estimate D2E/DX2                !
 ! A78   A(8,9,11)             152.9256         estimate D2E/DX2                !
 ! A79   A(8,9,26)              81.4107         estimate D2E/DX2                !
 ! A80   A(10,9,11)             73.7291         estimate D2E/DX2                !
 ! A81   A(10,9,26)             77.8909         estimate D2E/DX2                !
 ! A82   A(11,9,26)             78.5971         estimate D2E/DX2                !
 ! A83   A(9,10,13)             95.0853         estimate D2E/DX2                !
 ! A84   A(9,10,24)             97.9694         estimate D2E/DX2                !
 ! A85   A(9,11,12)             89.1348         estimate D2E/DX2                !
 ! A86   A(9,11,27)            101.297          estimate D2E/DX2                !
 ! A87   A(12,11,27)            96.8423         estimate D2E/DX2                !
 ! A88   A(2,12,5)              86.5048         estimate D2E/DX2                !
 ! A89   A(2,12,11)             85.3912         estimate D2E/DX2                !
 ! A90   A(2,12,14)             79.823          estimate D2E/DX2                !
 ! A91   A(2,12,15)             79.4482         estimate D2E/DX2                !
 ! A92   A(2,12,21)             88.9323         estimate D2E/DX2                !
 ! A93   A(2,12,51)            129.0937         estimate D2E/DX2                !
 ! A94   A(2,12,54)            132.1733         estimate D2E/DX2                !
 ! A95   A(5,12,11)             80.3824         estimate D2E/DX2                !
 ! A96   A(5,12,14)            103.0272         estimate D2E/DX2                !
 ! A97   A(5,12,15)            160.9369         estimate D2E/DX2                !
 ! A98   A(5,12,51)             98.3704         estimate D2E/DX2                !
 ! A99   A(5,12,52)             85.8134         estimate D2E/DX2                !
 ! A100  A(5,12,54)            139.6219         estimate D2E/DX2                !
 ! A101  A(11,12,14)           164.5412         estimate D2E/DX2                !
 ! A102  A(11,12,15)            85.6631         estimate D2E/DX2                !
 ! A103  A(11,12,21)           130.7528         estimate D2E/DX2                !
 ! A104  A(11,12,51)           145.4906         estimate D2E/DX2                !
 ! A105  A(11,12,52)            90.588          estimate D2E/DX2                !
 ! A106  A(11,12,54)            90.4388         estimate D2E/DX2                !
 ! A107  A(14,12,15)            87.2104         estimate D2E/DX2                !
 ! A108  A(14,12,52)           104.6386         estimate D2E/DX2                !
 ! A109  A(14,12,54)            96.1249         estimate D2E/DX2                !
 ! A110  A(15,12,21)           140.9575         estimate D2E/DX2                !
 ! A111  A(15,12,51)           100.4817         estimate D2E/DX2                !
 ! A112  A(15,12,52)           107.3746         estimate D2E/DX2                !
 ! A113  A(21,12,52)            88.3154         estimate D2E/DX2                !
 ! A114  A(21,12,54)           126.9288         estimate D2E/DX2                !
 ! A115  A(51,12,54)            68.1003         estimate D2E/DX2                !
 ! A116  A(7,13,8)              77.5841         estimate D2E/DX2                !
 ! A117  A(7,13,10)             74.7452         estimate D2E/DX2                !
 ! A118  A(7,13,16)             92.2755         estimate D2E/DX2                !
 ! A119  A(7,13,17)            163.5538         estimate D2E/DX2                !
 ! A120  A(7,13,24)            124.997          estimate D2E/DX2                !
 ! A121  A(7,13,36)            141.2672         estimate D2E/DX2                !
 ! A122  A(7,13,37)             85.5605         estimate D2E/DX2                !
 ! A123  A(7,13,39)             93.108          estimate D2E/DX2                !
 ! A124  A(8,13,10)             82.9595         estimate D2E/DX2                !
 ! A125  A(8,13,16)             81.7124         estimate D2E/DX2                !
 ! A126  A(8,13,17)             86.0616         estimate D2E/DX2                !
 ! A127  A(8,13,18)             87.4948         estimate D2E/DX2                !
 ! A128  A(8,13,24)             90.6983         estimate D2E/DX2                !
 ! A129  A(8,13,36)            140.5763         estimate D2E/DX2                !
 ! A130  A(8,13,37)            163.0094         estimate D2E/DX2                !
 ! A131  A(8,13,39)            129.1501         estimate D2E/DX2                !
 ! A132  A(10,13,16)           161.7456         estimate D2E/DX2                !
 ! A133  A(10,13,17)           101.7744         estimate D2E/DX2                !
 ! A134  A(10,13,18)           120.0393         estimate D2E/DX2                !
 ! A135  A(10,13,36)            99.2541         estimate D2E/DX2                !
 ! A136  A(10,13,37)            90.6262         estimate D2E/DX2                !
 ! A137  A(10,13,39)           143.0484         estimate D2E/DX2                !
 ! A138  A(16,13,17)            87.0151         estimate D2E/DX2                !
 ! A139  A(16,13,24)           139.4693         estimate D2E/DX2                !
 ! A140  A(16,13,36)            98.8771         estimate D2E/DX2                !
 ! A141  A(16,13,37)           101.2904         estimate D2E/DX2                !
 ! A142  A(17,13,18)           136.4722         estimate D2E/DX2                !
 ! A143  A(17,13,37)           110.7037         estimate D2E/DX2                !
 ! A144  A(17,13,39)            98.6299         estimate D2E/DX2                !
 ! A145  A(18,13,36)           122.8478         estimate D2E/DX2                !
 ! A146  A(18,13,37)            82.1144         estimate D2E/DX2                !
 ! A147  A(24,13,37)            97.3186         estimate D2E/DX2                !
 ! A148  A(24,13,39)           131.8023         estimate D2E/DX2                !
 ! A149  A(36,13,39)            68.5248         estimate D2E/DX2                !
 ! A150  A(12,15,27)            94.8145         estimate D2E/DX2                !
 ! A151  A(27,15,54)            83.3993         estimate D2E/DX2                !
 ! A152  A(7,18,16)            104.8217         estimate D2E/DX2                !
 ! A153  A(7,18,19)            101.4546         estimate D2E/DX2                !
 ! A154  A(7,18,20)            126.4222         estimate D2E/DX2                !
 ! A155  A(7,18,39)            108.5798         estimate D2E/DX2                !
 ! A156  A(7,18,40)            108.1445         estimate D2E/DX2                !
 ! A157  A(13,18,19)           156.3609         estimate D2E/DX2                !
 ! A158  A(13,18,20)           125.2309         estimate D2E/DX2                !
 ! A159  A(13,18,40)           102.0381         estimate D2E/DX2                !
 ! A160  A(16,18,19)           151.1049         estimate D2E/DX2                !
 ! A161  A(16,18,20)            82.9674         estimate D2E/DX2                !
 ! A162  A(16,18,40)           105.0889         estimate D2E/DX2                !
 ! A163  A(19,18,20)            71.7758         estimate D2E/DX2                !
 ! A164  A(19,18,39)           128.2381         estimate D2E/DX2                !
 ! A165  A(19,18,40)            77.4688         estimate D2E/DX2                !
 ! A166  A(20,18,39)           116.7992         estimate D2E/DX2                !
 ! A167  A(20,18,40)           120.9467         estimate D2E/DX2                !
 ! A168  A(18,19,42)            87.0156         estimate D2E/DX2                !
 ! A169  A(18,20,42)            74.4064         estimate D2E/DX2                !
 ! A170  A(5,21,14)            109.5101         estimate D2E/DX2                !
 ! A171  A(5,21,22)            103.2517         estimate D2E/DX2                !
 ! A172  A(5,21,23)             98.4297         estimate D2E/DX2                !
 ! A173  A(5,21,49)             88.4092         estimate D2E/DX2                !
 ! A174  A(5,21,51)            105.5906         estimate D2E/DX2                !
 ! A175  A(12,21,22)           100.9739         estimate D2E/DX2                !
 ! A176  A(12,21,23)           102.4841         estimate D2E/DX2                !
 ! A177  A(12,21,49)           143.7197         estimate D2E/DX2                !
 ! A178  A(14,21,22)           101.7979         estimate D2E/DX2                !
 ! A179  A(14,21,23)            83.4299         estimate D2E/DX2                !
 ! A180  A(14,21,49)           160.9406         estimate D2E/DX2                !
 ! A181  A(22,21,23)           154.3451         estimate D2E/DX2                !
 ! A182  A(22,21,49)            79.4765         estimate D2E/DX2                !
 ! A183  A(23,21,49)            87.6533         estimate D2E/DX2                !
 ! A184  A(23,21,51)           133.4967         estimate D2E/DX2                !
 ! A185  A(49,21,51)           131.4376         estimate D2E/DX2                !
 ! A186  A(1,23,21)             85.1438         estimate D2E/DX2                !
 ! A187  A(1,23,48)             78.3684         estimate D2E/DX2                !
 ! A188  A(21,23,48)            82.0349         estimate D2E/DX2                !
 ! A189  A(10,24,17)            99.143          estimate D2E/DX2                !
 ! A190  A(10,24,25)            85.826          estimate D2E/DX2                !
 ! A191  A(10,24,26)            84.7026         estimate D2E/DX2                !
 ! A192  A(10,24,28)            84.4103         estimate D2E/DX2                !
 ! A193  A(10,24,30)           131.2733         estimate D2E/DX2                !
 ! A194  A(10,24,33)           136.2181         estimate D2E/DX2                !
 ! A195  A(10,24,36)            90.9622         estimate D2E/DX2                !
 ! A196  A(13,24,25)            84.0747         estimate D2E/DX2                !
 ! A197  A(13,24,26)            92.2939         estimate D2E/DX2                !
 ! A198  A(13,24,28)           133.3334         estimate D2E/DX2                !
 ! A199  A(13,24,32)           130.38           estimate D2E/DX2                !
 ! A200  A(13,24,33)           118.827          estimate D2E/DX2                !
 ! A201  A(17,24,25)            97.957          estimate D2E/DX2                !
 ! A202  A(17,24,26)            86.5533         estimate D2E/DX2                !
 ! A203  A(17,24,30)           129.3138         estimate D2E/DX2                !
 ! A204  A(17,24,32)            81.1316         estimate D2E/DX2                !
 ! A205  A(17,24,33)            93.2955         estimate D2E/DX2                !
 ! A206  A(25,24,28)            79.0926         estimate D2E/DX2                !
 ! A207  A(25,24,30)            91.457          estimate D2E/DX2                !
 ! A208  A(25,24,32)           102.2795         estimate D2E/DX2                !
 ! A209  A(26,24,28)            96.9462         estimate D2E/DX2                !
 ! A210  A(26,24,30)            92.5081         estimate D2E/DX2                !
 ! A211  A(26,24,32)            87.1359         estimate D2E/DX2                !
 ! A212  A(26,24,33)           138.1288         estimate D2E/DX2                !
 ! A213  A(26,24,36)           134.2019         estimate D2E/DX2                !
 ! A214  A(28,24,32)            95.8043         estimate D2E/DX2                !
 ! A215  A(28,24,33)            81.9602         estimate D2E/DX2                !
 ! A216  A(28,24,36)           128.0408         estimate D2E/DX2                !
 ! A217  A(30,24,36)           122.575          estimate D2E/DX2                !
 ! A218  A(32,24,36)            95.3107         estimate D2E/DX2                !
 ! A219  A(33,24,36)            66.4312         estimate D2E/DX2                !
 ! A220  A(33,25,36)            86.272          estimate D2E/DX2                !
 ! A221  A(9,26,24)             99.2075         estimate D2E/DX2                !
 ! A222  A(9,26,27)            101.0122         estimate D2E/DX2                !
 ! A223  A(24,26,27)            79.3962         estimate D2E/DX2                !
 ! A224  A(11,27,15)            79.7784         estimate D2E/DX2                !
 ! A225  A(11,27,26)            79.0406         estimate D2E/DX2                !
 ! A226  A(11,27,28)            85.0078         estimate D2E/DX2                !
 ! A227  A(11,27,29)           163.8418         estimate D2E/DX2                !
 ! A228  A(11,27,30)           137.1046         estimate D2E/DX2                !
 ! A229  A(11,27,55)            84.8121         estimate D2E/DX2                !
 ! A230  A(11,27,57)           134.25           estimate D2E/DX2                !
 ! A231  A(15,27,26)            78.2291         estimate D2E/DX2                !
 ! A232  A(15,27,28)           164.6712         estimate D2E/DX2                !
 ! A233  A(15,27,29)            86.5739         estimate D2E/DX2                !
 ! A234  A(15,27,30)           142.5992         estimate D2E/DX2                !
 ! A235  A(15,27,55)            88.9719         estimate D2E/DX2                !
 ! A236  A(15,27,57)            83.8144         estimate D2E/DX2                !
 ! A237  A(26,27,28)           100.7968         estimate D2E/DX2                !
 ! A238  A(26,27,29)            89.7963         estimate D2E/DX2                !
 ! A239  A(26,27,30)            99.9211         estimate D2E/DX2                !
 ! A240  A(26,27,55)           160.8937         estimate D2E/DX2                !
 ! A241  A(26,27,57)           138.2247         estimate D2E/DX2                !
 ! A242  A(28,27,29)           108.7489         estimate D2E/DX2                !
 ! A243  A(28,27,55)            87.7922         estimate D2E/DX2                !
 ! A244  A(28,27,57)           105.836          estimate D2E/DX2                !
 ! A245  A(29,27,55)           103.6822         estimate D2E/DX2                !
 ! A246  A(30,27,55)            98.8524         estimate D2E/DX2                !
 ! A247  A(30,27,57)            72.9216         estimate D2E/DX2                !
 ! A248  A(24,28,27)            80.1168         estimate D2E/DX2                !
 ! A249  A(30,29,57)            88.1935         estimate D2E/DX2                !
 ! A250  A(24,30,27)            64.447          estimate D2E/DX2                !
 ! A251  A(24,30,29)            95.321          estimate D2E/DX2                !
 ! A252  A(24,30,31)           163.6197         estimate D2E/DX2                !
 ! A253  A(24,30,34)            96.9381         estimate D2E/DX2                !
 ! A254  A(27,30,31)           113.0464         estimate D2E/DX2                !
 ! A255  A(27,30,32)            94.5583         estimate D2E/DX2                !
 ! A256  A(27,30,33)           121.639          estimate D2E/DX2                !
 ! A257  A(27,30,34)           141.2382         estimate D2E/DX2                !
 ! A258  A(28,30,29)           109.276          estimate D2E/DX2                !
 ! A259  A(28,30,31)           111.4112         estimate D2E/DX2                !
 ! A260  A(28,30,32)           106.3861         estimate D2E/DX2                !
 ! A261  A(28,30,33)            86.3412         estimate D2E/DX2                !
 ! A262  A(28,30,34)            87.1792         estimate D2E/DX2                !
 ! A263  A(29,30,31)            95.6693         estimate D2E/DX2                !
 ! A264  A(29,30,32)            78.1424         estimate D2E/DX2                !
 ! A265  A(29,30,33)           131.6946         estimate D2E/DX2                !
 ! A266  A(29,30,34)           163.3114         estimate D2E/DX2                !
 ! A267  A(31,30,32)           141.5265         estimate D2E/DX2                !
 ! A268  A(31,30,33)           121.4195         estimate D2E/DX2                !
 ! A269  A(31,30,34)            75.0205         estimate D2E/DX2                !
 ! A270  A(32,30,34)           100.358          estimate D2E/DX2                !
 ! A271  A(30,31,58)           115.1725         estimate D2E/DX2                !
 ! A272  A(24,33,34)           111.0979         estimate D2E/DX2                !
 ! A273  A(24,33,35)            96.6895         estimate D2E/DX2                !
 ! A274  A(24,33,59)           146.3222         estimate D2E/DX2                !
 ! A275  A(25,33,30)           105.1045         estimate D2E/DX2                !
 ! A276  A(25,33,32)           116.4473         estimate D2E/DX2                !
 ! A277  A(25,33,34)            98.6926         estimate D2E/DX2                !
 ! A278  A(25,33,35)            94.9808         estimate D2E/DX2                !
 ! A279  A(25,33,59)           108.1514         estimate D2E/DX2                !
 ! A280  A(30,33,35)           140.0496         estimate D2E/DX2                !
 ! A281  A(30,33,59)           143.308          estimate D2E/DX2                !
 ! A282  A(32,33,34)           108.2599         estimate D2E/DX2                !
 ! A283  A(32,33,35)            86.706          estimate D2E/DX2                !
 ! A284  A(32,33,59)           120.4699         estimate D2E/DX2                !
 ! A285  A(34,33,35)           152.2094         estimate D2E/DX2                !
 ! A286  A(34,33,59)           101.4374         estimate D2E/DX2                !
 ! A287  A(33,35,36)            77.7437         estimate D2E/DX2                !
 ! A288  A(36,35,59)           113.0501         estimate D2E/DX2                !
 ! A289  A(13,36,25)            97.331          estimate D2E/DX2                !
 ! A290  A(13,36,35)           139.7271         estimate D2E/DX2                !
 ! A291  A(13,36,38)           110.7509         estimate D2E/DX2                !
 ! A292  A(17,36,25)           108.9702         estimate D2E/DX2                !
 ! A293  A(17,36,35)            84.0506         estimate D2E/DX2                !
 ! A294  A(17,36,37)           112.1821         estimate D2E/DX2                !
 ! A295  A(17,36,38)           117.5153         estimate D2E/DX2                !
 ! A296  A(24,36,35)            92.2705         estimate D2E/DX2                !
 ! A297  A(24,36,37)            98.3789         estimate D2E/DX2                !
 ! A298  A(25,36,35)            94.8006         estimate D2E/DX2                !
 ! A299  A(25,36,37)            81.2379         estimate D2E/DX2                !
 ! A300  A(25,36,38)           133.4061         estimate D2E/DX2                !
 ! A301  A(35,36,37)           163.7319         estimate D2E/DX2                !
 ! A302  A(35,36,38)            87.174          estimate D2E/DX2                !
 ! A303  A(37,36,38)            84.2742         estimate D2E/DX2                !
 ! A304  A(36,37,39)            82.5444         estimate D2E/DX2                !
 ! A305  A(36,38,39)            86.5695         estimate D2E/DX2                !
 ! A306  A(13,39,38)            92.9796         estimate D2E/DX2                !
 ! A307  A(13,39,40)            99.4692         estimate D2E/DX2                !
 ! A308  A(13,39,41)           153.6689         estimate D2E/DX2                !
 ! A309  A(16,39,37)           102.182          estimate D2E/DX2                !
 ! A310  A(16,39,38)           113.5229         estimate D2E/DX2                !
 ! A311  A(16,39,40)           103.2942         estimate D2E/DX2                !
 ! A312  A(16,39,41)           104.1407         estimate D2E/DX2                !
 ! A313  A(18,39,37)            85.2682         estimate D2E/DX2                !
 ! A314  A(18,39,38)           155.286          estimate D2E/DX2                !
 ! A315  A(18,39,41)           116.4341         estimate D2E/DX2                !
 ! A316  A(37,39,38)            76.7157         estimate D2E/DX2                !
 ! A317  A(37,39,40)            83.2257         estimate D2E/DX2                !
 ! A318  A(37,39,41)           152.6819         estimate D2E/DX2                !
 ! A319  A(38,39,40)           140.8757         estimate D2E/DX2                !
 ! A320  A(38,39,41)            86.1646         estimate D2E/DX2                !
 ! A321  A(40,39,41)            97.6388         estimate D2E/DX2                !
 ! A322  A(19,42,20)            82.7253         estimate D2E/DX2                !
 ! A323  A(19,42,43)           148.4036         estimate D2E/DX2                !
 ! A324  A(19,42,44)           112.7122         estimate D2E/DX2                !
 ! A325  A(19,42,61)           102.8608         estimate D2E/DX2                !
 ! A326  A(20,42,43)            79.8926         estimate D2E/DX2                !
 ! A327  A(20,42,44)           131.6562         estimate D2E/DX2                !
 ! A328  A(20,42,61)           101.7879         estimate D2E/DX2                !
 ! A329  A(43,42,44)            63.177          estimate D2E/DX2                !
 ! A330  A(43,42,61)           106.3893         estimate D2E/DX2                !
 ! A331  A(44,42,61)           117.2545         estimate D2E/DX2                !
 ! A332  A(6,43,42)             96.1401         estimate D2E/DX2                !
 ! A333  A(42,43,45)           120.1596         estimate D2E/DX2                !
 ! A334  A(6,44,42)             82.6893         estimate D2E/DX2                !
 ! A335  A(42,44,45)           108.1917         estimate D2E/DX2                !
 ! A336  A(1,45,43)            113.9363         estimate D2E/DX2                !
 ! A337  A(1,45,44)             97.3078         estimate D2E/DX2                !
 ! A338  A(1,45,47)            120.2534         estimate D2E/DX2                !
 ! A339  A(3,45,43)             76.752          estimate D2E/DX2                !
 ! A340  A(3,45,44)            114.3645         estimate D2E/DX2                !
 ! A341  A(3,45,46)            110.5239         estimate D2E/DX2                !
 ! A342  A(3,45,47)            104.3401         estimate D2E/DX2                !
 ! A343  A(6,45,46)             99.2654         estimate D2E/DX2                !
 ! A344  A(6,45,47)            154.8378         estimate D2E/DX2                !
 ! A345  A(43,45,44)            63.7562         estimate D2E/DX2                !
 ! A346  A(43,45,46)           140.9797         estimate D2E/DX2                !
 ! A347  A(43,45,47)           111.5062         estimate D2E/DX2                !
 ! A348  A(44,45,46)            79.159          estimate D2E/DX2                !
 ! A349  A(44,45,47)           137.4636         estimate D2E/DX2                !
 ! A350  A(46,45,47)           103.7791         estimate D2E/DX2                !
 ! A351  A(1,46,48)             79.8025         estimate D2E/DX2                !
 ! A352  A(45,46,48)            97.5912         estimate D2E/DX2                !
 ! A353  A(23,48,46)           107.6321         estimate D2E/DX2                !
 ! A354  A(23,48,49)           103.9136         estimate D2E/DX2                !
 ! A355  A(23,48,50)           115.4418         estimate D2E/DX2                !
 ! A356  A(46,48,49)           105.1059         estimate D2E/DX2                !
 ! A357  A(46,48,50)           115.1389         estimate D2E/DX2                !
 ! A358  A(49,48,50)           108.5352         estimate D2E/DX2                !
 ! A359  A(21,49,48)            82.4596         estimate D2E/DX2                !
 ! A360  A(12,51,22)            96.3191         estimate D2E/DX2                !
 ! A361  A(12,51,53)            94.3423         estimate D2E/DX2                !
 ! A362  A(12,51,60)           153.8416         estimate D2E/DX2                !
 ! A363  A(14,51,22)           103.8723         estimate D2E/DX2                !
 ! A364  A(14,51,52)           105.9859         estimate D2E/DX2                !
 ! A365  A(14,51,53)           108.9655         estimate D2E/DX2                !
 ! A366  A(14,51,60)           102.1595         estimate D2E/DX2                !
 ! A367  A(21,51,52)            85.8517         estimate D2E/DX2                !
 ! A368  A(21,51,53)           152.2058         estimate D2E/DX2                !
 ! A369  A(21,51,60)           119.2935         estimate D2E/DX2                !
 ! A370  A(22,51,52)            83.1663         estimate D2E/DX2                !
 ! A371  A(22,51,53)           145.3651         estimate D2E/DX2                !
 ! A372  A(22,51,60)            99.7574         estimate D2E/DX2                !
 ! A373  A(52,51,53)            77.5925         estimate D2E/DX2                !
 ! A374  A(52,51,60)           150.1173         estimate D2E/DX2                !
 ! A375  A(53,51,60)            84.0115         estimate D2E/DX2                !
 ! A376  A(51,52,54)            80.13           estimate D2E/DX2                !
 ! A377  A(51,53,54)            82.6411         estimate D2E/DX2                !
 ! A378  A(12,54,53)           112.8973         estimate D2E/DX2                !
 ! A379  A(12,54,55)           106.2112         estimate D2E/DX2                !
 ! A380  A(15,54,52)           115.4463         estimate D2E/DX2                !
 ! A381  A(15,54,53)           119.8107         estimate D2E/DX2                !
 ! A382  A(15,54,55)           102.3265         estimate D2E/DX2                !
 ! A383  A(52,54,53)            89.2444         estimate D2E/DX2                !
 ! A384  A(52,54,55)            90.4801         estimate D2E/DX2                !
 ! A385  A(53,54,55)           133.1131         estimate D2E/DX2                !
 ! A386  A(27,55,54)            85.0592         estimate D2E/DX2                !
 ! A387  A(54,55,57)            84.9711         estimate D2E/DX2                !
 ! A388  A(27,57,56)           110.8749         estimate D2E/DX2                !
 ! A389  A(27,57,58)           135.255          estimate D2E/DX2                !
 ! A390  A(29,57,55)           112.6648         estimate D2E/DX2                !
 ! A391  A(29,57,56)           102.4879         estimate D2E/DX2                !
 ! A392  A(29,57,58)           103.6932         estimate D2E/DX2                !
 ! A393  A(55,57,56)           103.4864         estimate D2E/DX2                !
 ! A394  A(55,57,58)           120.7728         estimate D2E/DX2                !
 ! A395  A(56,57,58)           112.462          estimate D2E/DX2                !
 ! A396  A(31,58,57)            91.1575         estimate D2E/DX2                !
 ! A397  L(2,1,46,3,-1)        188.9314         estimate D2E/DX2                !
 ! A398  L(4,1,23,2,-1)        182.0611         estimate D2E/DX2                !
 ! A399  L(3,6,7,4,-1)         172.7129         estimate D2E/DX2                !
 ! A400  L(8,6,44,1,-1)        187.5139         estimate D2E/DX2                !
 ! A401  L(2,12,52,5,-1)       172.3183         estimate D2E/DX2                !
 ! A402  L(18,13,24,8,-1)      178.1931         estimate D2E/DX2                !
 ! A403  L(10,24,32,17,-1)     180.2745         estimate D2E/DX2                !
 ! A404  L(13,24,30,26,-1)     184.8019         estimate D2E/DX2                !
 ! A405  L(17,24,28,10,-1)     183.5533         estimate D2E/DX2                !
 ! A406  L(25,24,26,10,-1)     170.5286         estimate D2E/DX2                !
 ! A407  L(24,36,38,35,-1)     179.4445         estimate D2E/DX2                !
 ! A408  L(2,1,46,3,-2)        185.8831         estimate D2E/DX2                !
 ! A409  L(4,1,23,2,-2)        194.78           estimate D2E/DX2                !
 ! A410  L(3,6,7,4,-2)         191.9856         estimate D2E/DX2                !
 ! A411  L(8,6,44,1,-2)        190.6509         estimate D2E/DX2                !
 ! A412  L(2,12,52,5,-2)       177.2202         estimate D2E/DX2                !
 ! A413  L(18,13,24,8,-2)      170.5982         estimate D2E/DX2                !
 ! A414  L(10,24,32,17,-2)     171.7014         estimate D2E/DX2                !
 ! A415  L(13,24,30,26,-2)     181.7009         estimate D2E/DX2                !
 ! A416  L(17,24,28,10,-2)     176.8294         estimate D2E/DX2                !
 ! A417  L(25,24,26,10,-2)     176.9607         estimate D2E/DX2                !
 ! A418  L(24,36,38,35,-2)     189.3122         estimate D2E/DX2                !
 ! D1    D(3,1,2,12)           174.869          estimate D2E/DX2                !
 ! D2    D(4,1,2,12)           -81.1003         estimate D2E/DX2                !
 ! D3    D(5,1,2,12)            -3.4593         estimate D2E/DX2                !
 ! D4    D(6,1,2,12)          -132.1203         estimate D2E/DX2                !
 ! D5    D(23,1,2,12)           84.1197         estimate D2E/DX2                !
 ! D6    D(45,1,2,12)          175.2371         estimate D2E/DX2                !
 ! D7    D(2,1,5,12)             3.7048         estimate D2E/DX2                !
 ! D8    D(2,1,5,21)            77.2847         estimate D2E/DX2                !
 ! D9    D(3,1,5,12)            -1.6098         estimate D2E/DX2                !
 ! D10   D(3,1,5,21)            71.9701         estimate D2E/DX2                !
 ! D11   D(4,1,5,12)           106.0733         estimate D2E/DX2                !
 ! D12   D(4,1,5,21)           179.6532         estimate D2E/DX2                !
 ! D13   D(6,1,5,12)            95.0258         estimate D2E/DX2                !
 ! D14   D(6,1,5,21)           168.6058         estimate D2E/DX2                !
 ! D15   D(9,1,5,12)            52.806          estimate D2E/DX2                !
 ! D16   D(9,1,5,21)           126.386          estimate D2E/DX2                !
 ! D17   D(23,1,5,12)          -77.6219         estimate D2E/DX2                !
 ! D18   D(23,1,5,21)           -4.042          estimate D2E/DX2                !
 ! D19   D(45,1,5,12)         -174.7143         estimate D2E/DX2                !
 ! D20   D(45,1,5,21)         -101.1344         estimate D2E/DX2                !
 ! D21   D(46,1,5,12)         -171.066          estimate D2E/DX2                !
 ! D22   D(46,1,5,21)          -97.4861         estimate D2E/DX2                !
 ! D23   D(2,1,6,7)             93.2486         estimate D2E/DX2                !
 ! D24   D(2,1,6,8)              6.7001         estimate D2E/DX2                !
 ! D25   D(2,1,6,43)          -121.1671         estimate D2E/DX2                !
 ! D26   D(2,1,6,44)           176.0492         estimate D2E/DX2                !
 ! D27   D(5,1,6,7)              6.7685         estimate D2E/DX2                !
 ! D28   D(5,1,6,8)            -79.7799         estimate D2E/DX2                !
 ! D29   D(5,1,6,43)           152.3528         estimate D2E/DX2                !
 ! D30   D(5,1,6,44)            89.5691         estimate D2E/DX2                !
 ! D31   D(23,1,6,7)           174.288          estimate D2E/DX2                !
 ! D32   D(23,1,6,8)            87.7396         estimate D2E/DX2                !
 ! D33   D(23,1,6,43)          -40.1277         estimate D2E/DX2                !
 ! D34   D(23,1,6,44)         -102.9114         estimate D2E/DX2                !
 ! D35   D(46,1,6,7)           -82.8732         estimate D2E/DX2                !
 ! D36   D(46,1,6,8)          -169.4217         estimate D2E/DX2                !
 ! D37   D(46,1,6,43)           62.7111         estimate D2E/DX2                !
 ! D38   D(46,1,6,44)           -0.0726         estimate D2E/DX2                !
 ! D39   D(3,1,9,8)            -20.932          estimate D2E/DX2                !
 ! D40   D(3,1,9,10)          -117.8598         estimate D2E/DX2                !
 ! D41   D(3,1,9,11)           162.8101         estimate D2E/DX2                !
 ! D42   D(3,1,9,26)            74.9321         estimate D2E/DX2                !
 ! D43   D(5,1,9,8)            173.5996         estimate D2E/DX2                !
 ! D44   D(5,1,9,10)            76.6718         estimate D2E/DX2                !
 ! D45   D(5,1,9,11)            -2.6583         estimate D2E/DX2                !
 ! D46   D(5,1,9,26)           -90.5363         estimate D2E/DX2                !
 ! D47   D(23,1,9,8)          -106.0414         estimate D2E/DX2                !
 ! D48   D(23,1,9,10)          157.0308         estimate D2E/DX2                !
 ! D49   D(23,1,9,11)           77.7007         estimate D2E/DX2                !
 ! D50   D(23,1,9,26)          -10.1774         estimate D2E/DX2                !
 ! D51   D(45,1,9,8)            24.52           estimate D2E/DX2                !
 ! D52   D(45,1,9,10)          -72.4079         estimate D2E/DX2                !
 ! D53   D(45,1,9,11)         -151.738          estimate D2E/DX2                !
 ! D54   D(45,1,9,26)          120.384          estimate D2E/DX2                !
 ! D55   D(46,1,9,8)            95.3096         estimate D2E/DX2                !
 ! D56   D(46,1,9,10)           -1.6183         estimate D2E/DX2                !
 ! D57   D(46,1,9,11)          -80.9484         estimate D2E/DX2                !
 ! D58   D(46,1,9,26)         -168.8264         estimate D2E/DX2                !
 ! D59   D(2,1,23,21)          -81.1822         estimate D2E/DX2                !
 ! D60   D(2,1,23,48)         -164.0305         estimate D2E/DX2                !
 ! D61   D(3,1,23,21)         -158.9399         estimate D2E/DX2                !
 ! D62   D(3,1,23,48)          118.2118         estimate D2E/DX2                !
 ! D63   D(5,1,23,21)            3.6813         estimate D2E/DX2                !
 ! D64   D(5,1,23,48)          -79.167          estimate D2E/DX2                !
 ! D65   D(6,1,23,21)         -166.6159         estimate D2E/DX2                !
 ! D66   D(6,1,23,48)          110.5359         estimate D2E/DX2                !
 ! D67   D(9,1,23,21)          -75.1881         estimate D2E/DX2                !
 ! D68   D(9,1,23,48)         -158.0364         estimate D2E/DX2                !
 ! D69   D(45,1,23,21)         146.4639         estimate D2E/DX2                !
 ! D70   D(45,1,23,48)          63.6157         estimate D2E/DX2                !
 ! D71   D(46,1,23,21)          89.8848         estimate D2E/DX2                !
 ! D72   D(46,1,23,48)           7.0366         estimate D2E/DX2                !
 ! D73   D(2,1,45,43)           50.0265         estimate D2E/DX2                !
 ! D74   D(2,1,45,44)          114.5059         estimate D2E/DX2                !
 ! D75   D(2,1,45,47)          -86.2966         estimate D2E/DX2                !
 ! D76   D(4,1,45,43)          -57.2962         estimate D2E/DX2                !
 ! D77   D(4,1,45,44)            7.1832         estimate D2E/DX2                !
 ! D78   D(4,1,45,47)          166.3807         estimate D2E/DX2                !
 ! D79   D(5,1,45,43)         -132.1178         estimate D2E/DX2                !
 ! D80   D(5,1,45,44)          -67.6384         estimate D2E/DX2                !
 ! D81   D(5,1,45,47)           91.5591         estimate D2E/DX2                !
 ! D82   D(9,1,45,43)           -9.6577         estimate D2E/DX2                !
 ! D83   D(9,1,45,44)           54.8217         estimate D2E/DX2                !
 ! D84   D(9,1,45,47)         -145.9808         estimate D2E/DX2                !
 ! D85   D(23,1,45,43)         134.193          estimate D2E/DX2                !
 ! D86   D(23,1,45,44)        -161.3276         estimate D2E/DX2                !
 ! D87   D(23,1,45,47)          -2.1301         estimate D2E/DX2                !
 ! D88   D(3,1,46,48)          -96.8773         estimate D2E/DX2                !
 ! D89   D(4,1,46,48)          159.0448         estimate D2E/DX2                !
 ! D90   D(5,1,46,48)           79.6596         estimate D2E/DX2                !
 ! D91   D(6,1,46,48)         -151.6157         estimate D2E/DX2                !
 ! D92   D(9,1,46,48)          156.794          estimate D2E/DX2                !
 ! D93   D(23,1,46,48)          -6.8795         estimate D2E/DX2                !
 ! D94   D(12,2,9,4)            85.3549         estimate D2E/DX2                !
 ! D95   D(12,2,9,6)           138.442          estimate D2E/DX2                !
 ! D96   D(12,2,9,8)          -168.4399         estimate D2E/DX2                !
 ! D97   D(12,2,9,10)          -45.3581         estimate D2E/DX2                !
 ! D98   D(12,2,9,11)           -8.6908         estimate D2E/DX2                !
 ! D99   D(12,2,9,26)          -87.2777         estimate D2E/DX2                !
 ! D100  D(1,2,12,5)             3.7409         estimate D2E/DX2                !
 ! D101  D(1,2,12,11)           84.3597         estimate D2E/DX2                !
 ! D102  D(1,2,12,14)         -100.1698         estimate D2E/DX2                !
 ! D103  D(1,2,12,15)          170.7962         estimate D2E/DX2                !
 ! D104  D(1,2,12,21)          -46.6761         estimate D2E/DX2                !
 ! D105  D(1,2,12,51)          -94.208          estimate D2E/DX2                !
 ! D106  D(1,2,12,54)          170.7672         estimate D2E/DX2                !
 ! D107  D(9,2,12,5)           -72.0293         estimate D2E/DX2                !
 ! D108  D(9,2,12,11)            8.5895         estimate D2E/DX2                !
 ! D109  D(9,2,12,14)         -175.9399         estimate D2E/DX2                !
 ! D110  D(9,2,12,15)           95.026          estimate D2E/DX2                !
 ! D111  D(9,2,12,21)         -122.4463         estimate D2E/DX2                !
 ! D112  D(9,2,12,51)         -169.9781         estimate D2E/DX2                !
 ! D113  D(9,2,12,54)           94.997          estimate D2E/DX2                !
 ! D114  D(1,3,6,45)            74.2235         estimate D2E/DX2                !
 ! D115  D(1,4,6,9)             77.7428         estimate D2E/DX2                !
 ! D116  D(1,5,12,2)            -3.5456         estimate D2E/DX2                !
 ! D117  D(1,5,12,11)          -89.457          estimate D2E/DX2                !
 ! D118  D(1,5,12,14)           75.1614         estimate D2E/DX2                !
 ! D119  D(1,5,12,15)          -45.9432         estimate D2E/DX2                !
 ! D120  D(1,5,12,51)          125.4736         estimate D2E/DX2                !
 ! D121  D(1,5,12,52)          179.2342         estimate D2E/DX2                !
 ! D122  D(1,5,12,54)         -168.6634         estimate D2E/DX2                !
 ! D123  D(1,5,21,14)          -81.699          estimate D2E/DX2                !
 ! D124  D(1,5,21,22)          170.4651         estimate D2E/DX2                !
 ! D125  D(1,5,21,23)            4.2752         estimate D2E/DX2                !
 ! D126  D(1,5,21,49)           91.6659         estimate D2E/DX2                !
 ! D127  D(1,5,21,51)         -135.5217         estimate D2E/DX2                !
 ! D128  D(1,6,7,13)           -99.9004         estimate D2E/DX2                !
 ! D129  D(1,6,7,18)          -179.3931         estimate D2E/DX2                !
 ! D130  D(4,6,7,13)          -105.6009         estimate D2E/DX2                !
 ! D131  D(4,6,7,18)           174.9065         estimate D2E/DX2                !
 ! D132  D(8,6,7,13)            -4.2678         estimate D2E/DX2                !
 ! D133  D(8,6,7,18)           -83.7604         estimate D2E/DX2                !
 ! D134  D(9,6,7,13)           -54.1558         estimate D2E/DX2                !
 ! D135  D(9,6,7,18)          -133.6484         estimate D2E/DX2                !
 ! D136  D(43,6,7,13)          117.0469         estimate D2E/DX2                !
 ! D137  D(43,6,7,18)           37.5542         estimate D2E/DX2                !
 ! D138  D(44,6,7,13)          175.5914         estimate D2E/DX2                !
 ! D139  D(44,6,7,18)           96.0988         estimate D2E/DX2                !
 ! D140  D(45,6,7,13)         -173.587          estimate D2E/DX2                !
 ! D141  D(45,6,7,18)          106.9204         estimate D2E/DX2                !
 ! D142  D(1,6,8,13)           128.3321         estimate D2E/DX2                !
 ! D143  D(3,6,8,13)           175.0481         estimate D2E/DX2                !
 ! D144  D(4,6,8,13)            78.1088         estimate D2E/DX2                !
 ! D145  D(7,6,8,13)             4.2363         estimate D2E/DX2                !
 ! D146  D(43,6,8,13)         -112.7747         estimate D2E/DX2                !
 ! D147  D(45,6,8,13)          173.6595         estimate D2E/DX2                !
 ! D148  D(3,6,9,2)              5.1423         estimate D2E/DX2                !
 ! D149  D(3,6,9,10)          -173.7979         estimate D2E/DX2                !
 ! D150  D(3,6,9,11)           117.2636         estimate D2E/DX2                !
 ! D151  D(3,6,9,26)           -95.7184         estimate D2E/DX2                !
 ! D152  D(7,6,9,2)           -176.8008         estimate D2E/DX2                !
 ! D153  D(7,6,9,10)             4.259          estimate D2E/DX2                !
 ! D154  D(7,6,9,11)           -64.6795         estimate D2E/DX2                !
 ! D155  D(7,6,9,26)            82.3385         estimate D2E/DX2                !
 ! D156  D(43,6,9,2)            22.4441         estimate D2E/DX2                !
 ! D157  D(43,6,9,10)         -156.496          estimate D2E/DX2                !
 ! D158  D(43,6,9,11)          134.5654         estimate D2E/DX2                !
 ! D159  D(43,6,9,26)          -78.4165         estimate D2E/DX2                !
 ! D160  D(44,6,9,2)           -96.8015         estimate D2E/DX2                !
 ! D161  D(44,6,9,10)           84.2583         estimate D2E/DX2                !
 ! D162  D(44,6,9,11)           15.3198         estimate D2E/DX2                !
 ! D163  D(44,6,9,26)          162.3378         estimate D2E/DX2                !
 ! D164  D(45,6,9,2)           -35.1379         estimate D2E/DX2                !
 ! D165  D(45,6,9,10)          145.9219         estimate D2E/DX2                !
 ! D166  D(45,6,9,11)           76.9834         estimate D2E/DX2                !
 ! D167  D(45,6,9,26)         -135.9986         estimate D2E/DX2                !
 ! D168  D(1,6,43,42)         -135.8859         estimate D2E/DX2                !
 ! D169  D(3,6,43,42)         -171.4344         estimate D2E/DX2                !
 ! D170  D(4,6,43,42)          -86.2177         estimate D2E/DX2                !
 ! D171  D(7,6,43,42)           12.6573         estimate D2E/DX2                !
 ! D172  D(8,6,43,42)          110.1051         estimate D2E/DX2                !
 ! D173  D(9,6,43,42)          170.9756         estimate D2E/DX2                !
 ! D174  D(44,6,43,42)         -57.0553         estimate D2E/DX2                !
 ! D175  D(1,6,44,42)          159.0617         estimate D2E/DX2                !
 ! D176  D(3,6,44,42)          113.662          estimate D2E/DX2                !
 ! D177  D(4,6,44,42)         -152.0315         estimate D2E/DX2                !
 ! D178  D(7,6,44,42)          -75.8266         estimate D2E/DX2                !
 ! D179  D(9,6,44,42)         -156.1392         estimate D2E/DX2                !
 ! D180  D(43,6,44,42)          47.2849         estimate D2E/DX2                !
 ! D181  D(4,6,45,46)           -6.7105         estimate D2E/DX2                !
 ! D182  D(4,6,45,47)          149.4762         estimate D2E/DX2                !
 ! D183  D(7,6,45,46)           57.2818         estimate D2E/DX2                !
 ! D184  D(7,6,45,47)         -146.5316         estimate D2E/DX2                !
 ! D185  D(8,6,45,46)         -106.71           estimate D2E/DX2                !
 ! D186  D(8,6,45,47)           49.4766         estimate D2E/DX2                !
 ! D187  D(9,6,45,46)          -52.9079         estimate D2E/DX2                !
 ! D188  D(9,6,45,47)          103.2787         estimate D2E/DX2                !
 ! D189  D(6,7,13,8)             3.949          estimate D2E/DX2                !
 ! D190  D(6,7,13,10)           89.9323         estimate D2E/DX2                !
 ! D191  D(6,7,13,16)          -77.0496         estimate D2E/DX2                !
 ! D192  D(6,7,13,17)           10.1152         estimate D2E/DX2                !
 ! D193  D(6,7,13,24)           85.9647         estimate D2E/DX2                !
 ! D194  D(6,7,13,36)          175.7109         estimate D2E/DX2                !
 ! D195  D(6,7,13,37)         -178.2032         estimate D2E/DX2                !
 ! D196  D(6,7,13,39)         -125.5059         estimate D2E/DX2                !
 ! D197  D(6,7,18,16)           78.0485         estimate D2E/DX2                !
 ! D198  D(6,7,18,19)          -89.8186         estimate D2E/DX2                !
 ! D199  D(6,7,18,20)          -14.1211         estimate D2E/DX2                !
 ! D200  D(6,7,18,39)          132.9296         estimate D2E/DX2                !
 ! D201  D(6,7,18,40)         -170.2306         estimate D2E/DX2                !
 ! D202  D(13,8,9,1)          -135.7432         estimate D2E/DX2                !
 ! D203  D(13,8,9,2)           166.8201         estimate D2E/DX2                !
 ! D204  D(13,8,9,4)           -83.082          estimate D2E/DX2                !
 ! D205  D(13,8,9,10)            0.3565         estimate D2E/DX2                !
 ! D206  D(13,8,9,11)           36.2065         estimate D2E/DX2                !
 ! D207  D(13,8,9,26)           78.9161         estimate D2E/DX2                !
 ! D208  D(6,8,13,7)            -4.2829         estimate D2E/DX2                !
 ! D209  D(6,8,13,10)          -80.1442         estimate D2E/DX2                !
 ! D210  D(6,8,13,16)           89.9122         estimate D2E/DX2                !
 ! D211  D(6,8,13,17)          177.4638         estimate D2E/DX2                !
 ! D212  D(6,8,13,18)           40.5385         estimate D2E/DX2                !
 ! D213  D(6,8,13,24)         -130.0597         estimate D2E/DX2                !
 ! D214  D(6,8,13,36)         -176.167          estimate D2E/DX2                !
 ! D215  D(6,8,13,37)          -11.6446         estimate D2E/DX2                !
 ! D216  D(6,8,13,39)           79.5375         estimate D2E/DX2                !
 ! D217  D(9,8,13,7)            75.4708         estimate D2E/DX2                !
 ! D218  D(9,8,13,10)           -0.3905         estimate D2E/DX2                !
 ! D219  D(9,8,13,16)          169.6659         estimate D2E/DX2                !
 ! D220  D(9,8,13,17)         -102.7824         estimate D2E/DX2                !
 ! D221  D(9,8,13,18)          120.2922         estimate D2E/DX2                !
 ! D222  D(9,8,13,24)          -50.306          estimate D2E/DX2                !
 ! D223  D(9,8,13,36)          -96.4133         estimate D2E/DX2                !
 ! D224  D(9,8,13,37)           68.1091         estimate D2E/DX2                !
 ! D225  D(9,8,13,39)          159.2912         estimate D2E/DX2                !
 ! D226  D(1,9,10,13)          104.5783         estimate D2E/DX2                !
 ! D227  D(1,9,10,24)         -176.2307         estimate D2E/DX2                !
 ! D228  D(2,9,10,13)         -125.877          estimate D2E/DX2                !
 ! D229  D(2,9,10,24)          -46.6861         estimate D2E/DX2                !
 ! D230  D(4,9,10,13)          101.1101         estimate D2E/DX2                !
 ! D231  D(4,9,10,24)         -179.6989         estimate D2E/DX2                !
 ! D232  D(6,9,10,13)           50.3797         estimate D2E/DX2                !
 ! D233  D(6,9,10,24)          129.5706         estimate D2E/DX2                !
 ! D234  D(8,9,10,13)           -0.3858         estimate D2E/DX2                !
 ! D235  D(8,9,10,24)           78.8051         estimate D2E/DX2                !
 ! D236  D(11,9,10,13)        -164.2637         estimate D2E/DX2                !
 ! D237  D(11,9,10,24)         -85.0727         estimate D2E/DX2                !
 ! D238  D(26,9,10,13)         -82.776          estimate D2E/DX2                !
 ! D239  D(26,9,10,24)          -3.5851         estimate D2E/DX2                !
 ! D240  D(1,9,11,12)          -46.2745         estimate D2E/DX2                !
 ! D241  D(1,9,11,27)         -143.0794         estimate D2E/DX2                !
 ! D242  D(2,9,11,12)            9.0539         estimate D2E/DX2                !
 ! D243  D(2,9,11,27)          -87.751          estimate D2E/DX2                !
 ! D244  D(4,9,11,12)          -97.3472         estimate D2E/DX2                !
 ! D245  D(4,9,11,27)          165.8479         estimate D2E/DX2                !
 ! D246  D(6,9,11,12)         -105.3433         estimate D2E/DX2                !
 ! D247  D(6,9,11,27)          157.8519         estimate D2E/DX2                !
 ! D248  D(8,9,11,12)          141.7086         estimate D2E/DX2                !
 ! D249  D(8,9,11,27)           44.9037         estimate D2E/DX2                !
 ! D250  D(10,9,11,12)         179.0947         estimate D2E/DX2                !
 ! D251  D(10,9,11,27)          82.2899         estimate D2E/DX2                !
 ! D252  D(26,9,11,12)          98.5374         estimate D2E/DX2                !
 ! D253  D(26,9,11,27)           1.7325         estimate D2E/DX2                !
 ! D254  D(1,9,26,24)          174.468          estimate D2E/DX2                !
 ! D255  D(1,9,26,27)           93.5803         estimate D2E/DX2                !
 ! D256  D(2,9,26,24)          172.5746         estimate D2E/DX2                !
 ! D257  D(2,9,26,27)           91.6869         estimate D2E/DX2                !
 ! D258  D(4,9,26,24)           16.2184         estimate D2E/DX2                !
 ! D259  D(4,9,26,27)          -64.6693         estimate D2E/DX2                !
 ! D260  D(6,9,26,24)          -81.9465         estimate D2E/DX2                !
 ! D261  D(6,9,26,27)         -162.8342         estimate D2E/DX2                !
 ! D262  D(8,9,26,24)          -82.5394         estimate D2E/DX2                !
 ! D263  D(8,9,26,27)         -163.4271         estimate D2E/DX2                !
 ! D264  D(10,9,26,24)           3.5251         estimate D2E/DX2                !
 ! D265  D(10,9,26,27)         -77.3626         estimate D2E/DX2                !
 ! D266  D(11,9,26,24)          79.1037         estimate D2E/DX2                !
 ! D267  D(11,9,26,27)          -1.784          estimate D2E/DX2                !
 ! D268  D(9,10,13,7)          -78.6536         estimate D2E/DX2                !
 ! D269  D(9,10,13,8)            0.3428         estimate D2E/DX2                !
 ! D270  D(9,10,13,16)         -32.7172         estimate D2E/DX2                !
 ! D271  D(9,10,13,17)          84.8088         estimate D2E/DX2                !
 ! D272  D(9,10,13,18)         -82.6327         estimate D2E/DX2                !
 ! D273  D(9,10,13,36)         140.5605         estimate D2E/DX2                !
 ! D274  D(9,10,13,37)        -163.88           estimate D2E/DX2                !
 ! D275  D(9,10,13,39)        -153.0451         estimate D2E/DX2                !
 ! D276  D(9,10,24,17)         -81.968          estimate D2E/DX2                !
 ! D277  D(9,10,24,25)        -179.3705         estimate D2E/DX2                !
 ! D278  D(9,10,24,26)           3.6688         estimate D2E/DX2                !
 ! D279  D(9,10,24,28)         101.2026         estimate D2E/DX2                !
 ! D280  D(9,10,24,30)          92.3563         estimate D2E/DX2                !
 ! D281  D(9,10,24,33)         173.431          estimate D2E/DX2                !
 ! D282  D(9,10,24,36)        -130.6556         estimate D2E/DX2                !
 ! D283  D(9,11,12,2)           -7.9474         estimate D2E/DX2                !
 ! D284  D(9,11,12,5)           79.2799         estimate D2E/DX2                !
 ! D285  D(9,11,12,14)         -24.9023         estimate D2E/DX2                !
 ! D286  D(9,11,12,15)         -87.6864         estimate D2E/DX2                !
 ! D287  D(9,11,12,21)          76.6505         estimate D2E/DX2                !
 ! D288  D(9,11,12,51)         170.0902         estimate D2E/DX2                !
 ! D289  D(9,11,12,52)         164.9334         estimate D2E/DX2                !
 ! D290  D(9,11,12,54)        -140.243          estimate D2E/DX2                !
 ! D291  D(27,11,12,2)          93.3272         estimate D2E/DX2                !
 ! D292  D(27,11,12,5)        -179.4456         estimate D2E/DX2                !
 ! D293  D(27,11,12,14)         76.3723         estimate D2E/DX2                !
 ! D294  D(27,11,12,15)         13.5882         estimate D2E/DX2                !
 ! D295  D(27,11,12,21)        177.925          estimate D2E/DX2                !
 ! D296  D(27,11,12,51)        -88.6353         estimate D2E/DX2                !
 ! D297  D(27,11,12,52)        -93.7921         estimate D2E/DX2                !
 ! D298  D(27,11,12,54)        -38.9684         estimate D2E/DX2                !
 ! D299  D(9,11,27,15)          78.0554         estimate D2E/DX2                !
 ! D300  D(9,11,27,26)          -1.7948         estimate D2E/DX2                !
 ! D301  D(9,11,27,28)        -103.8261         estimate D2E/DX2                !
 ! D302  D(9,11,27,29)          45.255          estimate D2E/DX2                !
 ! D303  D(9,11,27,30)         -94.6266         estimate D2E/DX2                !
 ! D304  D(9,11,27,55)         167.9445         estimate D2E/DX2                !
 ! D305  D(9,11,27,57)         148.8771         estimate D2E/DX2                !
 ! D306  D(12,11,27,15)        -12.4294         estimate D2E/DX2                !
 ! D307  D(12,11,27,26)        -92.2795         estimate D2E/DX2                !
 ! D308  D(12,11,27,28)        165.6891         estimate D2E/DX2                !
 ! D309  D(12,11,27,29)        -45.2298         estimate D2E/DX2                !
 ! D310  D(12,11,27,30)        174.8886         estimate D2E/DX2                !
 ! D311  D(12,11,27,55)         77.4598         estimate D2E/DX2                !
 ! D312  D(12,11,27,57)         58.3923         estimate D2E/DX2                !
 ! D313  D(2,12,15,27)         -98.8874         estimate D2E/DX2                !
 ! D314  D(5,12,15,27)         -55.6838         estimate D2E/DX2                !
 ! D315  D(11,12,15,27)        -12.7775         estimate D2E/DX2                !
 ! D316  D(14,12,15,27)       -179.0493         estimate D2E/DX2                !
 ! D317  D(21,12,15,27)       -173.8308         estimate D2E/DX2                !
 ! D318  D(51,12,15,27)        132.9525         estimate D2E/DX2                !
 ! D319  D(52,12,15,27)         76.4808         estimate D2E/DX2                !
 ! D320  D(2,12,21,22)        -174.9868         estimate D2E/DX2                !
 ! D321  D(2,12,21,23)          -5.4486         estimate D2E/DX2                !
 ! D322  D(2,12,21,49)          97.8926         estimate D2E/DX2                !
 ! D323  D(11,12,21,22)        102.0294         estimate D2E/DX2                !
 ! D324  D(11,12,21,23)        -88.4324         estimate D2E/DX2                !
 ! D325  D(11,12,21,49)         14.9088         estimate D2E/DX2                !
 ! D326  D(15,12,21,22)       -103.2724         estimate D2E/DX2                !
 ! D327  D(15,12,21,23)         66.2658         estimate D2E/DX2                !
 ! D328  D(15,12,21,49)        169.607          estimate D2E/DX2                !
 ! D329  D(52,12,21,22)         12.7049         estimate D2E/DX2                !
 ! D330  D(52,12,21,23)       -177.7569         estimate D2E/DX2                !
 ! D331  D(52,12,21,49)        -74.4157         estimate D2E/DX2                !
 ! D332  D(54,12,21,22)        -29.2963         estimate D2E/DX2                !
 ! D333  D(54,12,21,23)        140.2419         estimate D2E/DX2                !
 ! D334  D(54,12,21,49)       -116.4169         estimate D2E/DX2                !
 ! D335  D(2,12,51,22)          94.8752         estimate D2E/DX2                !
[...]
 02639,0.00000024,0.00003249,-0.00000601,-0.00000144,0.00000175,-0.0000
 4195,0.00002195,-0.00002674,0.00012779,-0.00003822,0.00017672,-0.00007
 986,-0.00009278,0.00007405,0.00006008,0.00002825,0.00003285,-0.0001897
 8,0.00032395,-0.00017493,-0.00025006,0.00008221,-0.00002651,0.02497523
 ,-0.00006168,-0.00003665,0.00009946,0.00002669,0.00001081,0.00006468,0
 .00002400,-0.00002792,-0.00001555,-0.00003440,-0.00003002,0.00001990,-
 0.00002534,0.00000897,-0.00001475,-0.00001375,0.00001801,-0.00007729,-
 0.00030131,-0.00016437,-0.00018281,0.00006954,0.00010339,-0.00005023,0
 .00033700,0.00003335,-0.00031724,0.00000663,-0.00043781,-0.00020380,-0
 .00004601,0.00002580,0.00003140,-0.00003963,-0.00000360,-0.00002982,0.
 00009074,0.00052168,-0.00083657,0.00002082,-0.00002203,-0.00000742,0.0
 0009009,-0.00010566,0.00001651,0.00008921,0.00012403,0.00009724,0.0003
 6154,-0.00039561,0.00032773,0.00034331,-0.00003323,-0.00002882,0.00000
 181,-0.00003270,0.00002370,0.00002585,0.00008772,-0.00007944,-0.000018
 60,-0.00000591,0.00006455,0.00000135,-0.00000687,-0.00000735,-0.000006
 99,0.00001923,-0.00001178,-0.00268488,0.00214968,0.00148625,-0.0013017
 9,-0.00273463,0.00442479,0.00089288,-0.00045985,0.00000560,-0.00053341
 ,0.00036929,0.00099818,-0.00012812,-0.00013087,-0.00030943,-0.00000563
 ,-0.00033161,0.00013911,0.00263043,0.00083328,0.00107076,0.00014450,0.
 00016850,-0.00005586,0.00206725,0.00093125,0.00218991,0.01763538,-0.03
 074340,0.02205222,-0.00048630,-0.00127735,0.00196748,0.00406107,-0.014
 10639,-0.03951206,-0.00093138,-0.00027836,0.00283566,0.00030715,-0.000
 07564,-0.00000547,0.00003066,0.00046814,0.00008921,0.00010060,0.000000
 75,0.00017619,-0.00004073,0.00001089,0.00001592,-0.00004608,-0.0000172
 3,-0.00002468,0.00005385,-0.00013733,0.00004149,-0.00003617,-0.0000180
 4,0.00004958,-0.00006721,0.00000457,-0.00001276,-0.00002445,0.00005982
 ,-0.00005877,-0.00001827,-0.00001444,-0.00002557,0.00000124,-0.0000114
 5,0.00004172,0.00004260,0.00001388,-0.00005233,-0.00000328,-0.00000125
 ,-0.00000560,-0.00002459,-0.00000693,0.00004863,-0.00002937,0.00003007
 ,-0.00003405,-0.00004062,0.00001675,0.00001752,0.00007965,-0.00000026,
 0.00003147,-0.00017010,0.00012515,-0.00008499,0.00007315,-0.00005745,-
 0.00013206,0.00006175,-0.00002591,0.00009304,-0.00028788,0.00014582,-0
 .00006767,0.00001619,0.00003118,-0.00014680,-0.02229922,0.04543047,-0.
 00002045,0.00007270,-0.00020851,-0.00003772,-0.00002943,0.00002518,-0.
 00008042,-0.00005764,-0.00006867,0.00003679,-0.00004706,0.00009627,-0.
 00003008,0.00000273,-0.00000400,0.00024160,0.00015738,-0.00011360,-0.0
 0036199,-0.00030513,-0.00035927,0.00015092,0.00017003,0.00011062,0.000
 22700,0.00008579,-0.00041508,0.00048164,-0.00023200,-0.00017308,-0.000
 07444,-0.00008033,0.00004500,-0.00008653,0.00005061,-0.00009520,-0.000
 29257,0.00026701,0.00061064,0.00003968,-0.00002121,0.00000404,0.000104
 05,-0.00005636,0.00004283,0.00012061,0.00025203,-0.00034905,0.00006952
 ,0.00037546,-0.00147911,0.00067506,0.00023940,-0.00054247,0.00001765,0
 .00002486,0.00010811,0.00008221,0.00002793,-0.00017830,0.00002646,-0.0
 0006454,0.00006568,-0.00002522,0.00003382,-0.00001039,-0.00003851,0.00
 000517,0.00002434,0.00045152,-0.00129363,-0.00238656,0.00232365,0.0025
 1573,0.00110457,0.00052373,0.00056649,-0.00003907,-0.00121438,0.000114
 46,0.00060092,0.00038259,-0.00076056,-0.00028242,0.00010649,0.00029508
 ,0.00058269,0.00012919,-0.00235789,-0.00524754,-0.00055875,0.00002354,
 0.00102026,-0.00246333,0.00217897,-0.00074965,-0.02554550,0.03313168,-
 0.05564422,-0.00058269,0.00255266,0.00575436,0.04453228,-0.04012224,-0
 .10084348,-0.00307999,0.00021082,-0.00524318,0.00043682,-0.00002970,-0
 .00010049,0.00317411,-0.00139564,0.00040044,-0.00028147,-0.00012957,0.
 00178855,-0.00003979,-0.00010715,-0.00003261,0.00016287,-0.00011968,-0
 .00006333,-0.00014260,-0.00032056,0.00019721,-0.00004054,0.00004416,0.
 00002694,-0.00001780,0.00000139,0.00000200,-0.00015716,0.00001490,0.00
 014830,-0.00000241,-0.00000194,-0.00001251,0.00007616,-0.00000216,-0.0
 0011701,0.00004051,-0.00007059,0.00013052,-0.00003468,0.00003055,0.000
 01069,0.00004606,0.00000757,-0.00008236,0.00007387,0.00003575,0.000087
 96,-0.00003599,-0.00000561,0.00000346,0.00000249,0.00003724,-0.0000123
 7,-0.00003899,0.00000666,0.00009916,0.00001485,0.00000567,-0.00016534,
 -0.00004471,-0.00006102,-0.00010339,0.00008946,0.00029206,0.00010708,-
 0.00002009,-0.00003410,0.00005471,-0.01956005,0.00382221,0.16207876,-0
 .00010664,-0.00038957,-0.00059426,-0.00023535,0.00006648,-0.00019061,-
 0.00003286,0.00006994,0.00006966,0.00005289,0.00000202,0.00009562,-0.0
 0089322,0.00070048,0.00002997,-0.00007152,0.00003502,-0.00000992,-0.00
 001482,0.00002535,-0.00005246,-0.00002519,0.00008711,-0.00007023,0.000
 17754,-0.00004616,0.00020860,0.00002167,0.00001467,-0.00000697,-0.0000
 5725,-0.00006175,-0.00067458,-0.00045966,0.00334010,-0.00451220,-0.000
 10309,0.00002901,0.00005680,-0.00486592,0.00283876,-0.00257768,0.00027
 336,0.00016908,-0.00028220,0.00000837,-0.00001305,0.00001045,0.0000425
 6,-0.00003223,0.00003659,0.00007669,-0.00003837,0.00002179,0.00000911,
 0.00000334,-0.00004943,-0.00001170,0.00001417,-0.00000582,0.00259683,-
 0.00399822,-0.00123316,-0.01147170,-0.00526812,-0.00291517,-0.00008248
 ,0.00033913,0.00007912,-0.00015537,0.00011154,-0.00006871,-0.00001766,
 0.00000024,-0.00001061,0.00009473,0.00001280,-0.00000957,-0.00038969,-
 0.00002298,-0.00044264,0.00002626,-0.00002799,0.00014256,0.00001377,0.
 00009645,0.00003077,0.00010899,0.00010623,0.00009732,-0.00004438,-0.00
 000508,-0.00003896,0.00002848,-0.00000750,0.00000571,-0.00001562,-0.00
 009411,0.00011479,0.00000055,-0.00002753,-0.00006104,-0.00000389,0.000
 03620,0.00000876,0.00010316,-0.00016026,0.00002786,0.00000606,0.000038
 48,-0.00001189,-0.00008147,0.00005522,-0.00003582,0.00008393,-0.000099
 29,-0.00001886,-0.00001848,0.00000516,-0.00004016,-0.00008507,0.000102
 79,-0.00001653,0.00017902,0.00000041,0.00003290,-0.00003940,-0.0000319
 6,0.00000276,-0.00006204,-0.00000561,-0.00002876,0.00000142,0.00013912
 ,-0.00014734,0.00008581,0.00002763,-0.00000785,-0.00005449,-0.00003019
 ,0.00019392,0.00006373,-0.00014067,-0.00037987,-0.00007705,0.00026340,
 -0.00006674,-0.00013942,-0.00002663,0.00032894,-0.09966616,0.01664097,
 -0.09117295,0.00074356,-0.00226092,-0.00927216,0.00268698,-0.00314301,
 0.00296179,-0.00717747,0.00102407,-0.00124827,0.00023256,0.00020864,0.
 00026669,0.00005195,0.00031206,-0.00048735,-0.00001237,0.00018149,0.00
 003283,0.00018753,0.00001635,-0.00008206,-0.00003265,0.00003825,-0.000
 07539,0.11865805,0.00008319,0.00003537,-0.00002899,0.00023893,-0.00016
 011,0.00043939,-0.00000676,-0.00005141,0.00003234,0.00002612,-0.000022
 28,0.00002811,-0.00030749,0.00021105,-0.00008673,-0.00006900,0.0000208
 3,0.00003399,-0.00004123,0.00003274,-0.00001507,-0.00000387,-0.0000331
 0,0.00005244,0.00028389,-0.00019307,-0.00000114,-0.00006852,0.00004799
 ,-0.00003877,0.00023403,-0.00029301,0.00009475,-0.00185220,0.00270386,
 -0.00323895,0.00014680,-0.00002409,-0.00001484,0.00332001,0.00141118,0
 .00458618,-0.00012052,-0.00014245,-0.00017367,-0.00000027,-0.00001688,
 0.00000342,-0.00005240,0.00000662,-0.00000809,-0.00001123,-0.00000661,
 0.00002658,-0.00000081,0.00000603,-0.00001998,0.00000794,-0.00000141,-
 0.00004194,0.00237649,-0.00298332,-0.00001020,-0.00917820,0.00093297,-
 0.00497649,-0.00029412,0.00038140,0.00040917,0.00012930,-0.00011849,0.
 00007757,-0.00001497,0.00000234,0.00001194,-0.00001049,0.00003084,-0.0
 0003013,0.00014074,-0.00003983,0.00015440,-0.00005563,0.00001321,-0.00
 001281,0.00000296,0.00000198,0.00000687,-0.00006559,0.00005650,-0.0000
 8393,0.00002162,0.00000219,-0.00001363,-0.00000596,-0.00001121,-0.0000
 0518,0.00004805,0.00004535,-0.00001033,0.00001930,-0.00001061,0.000001
 71,0.00000844,-0.00000262,0.00001183,-0.00006317,0.00009790,-0.0000510
 9,-0.00000593,-0.00000211,0.00000188,0.00003941,-0.00003849,0.00001006
 ,-0.00003512,-0.00001720,0.00001385,-0.00000172,0.00000650,-0.00000141
 ,0.00000734,-0.00000434,0.00000362,0.00002834,-0.00004088,0.00005288,-
 0.00001279,0.00000455,-0.00000073,-0.00002507,0.00001360,-0.00003285,-
 0.00001203,0.00003684,-0.00003880,0.00003910,0.00001791,0.00002400,-0.
 00000062,-0.00000119,0.00001593,-0.00022456,-0.00005871,0.00001916,-0.
 00000262,0.00023974,-0.00014405,0.00004043,0.00002130,-0.00004418,0.01
 836465,-0.02064723,0.01129653,0.00049969,0.00176915,0.00475358,-0.0012
 1422,-0.00061427,0.00435292,-0.00121968,0.00099773,-0.00111359,0.00011
 890,-0.00008681,0.00015999,-0.00000400,-0.00005647,0.00009114,-0.00000
 911,0.00010480,-0.00025531,-0.00005907,-0.00000693,0.00003917,0.000005
 17,-0.00001088,0.00000339,-0.01118852,0.01644041,-0.00018587,0.0001470
 5,0.00013798,-0.00003259,-0.00000838,0.00044534,0.00008651,-0.00008105
 ,-0.00006363,0.00001587,-0.00005815,0.00009800,0.00056479,0.00004877,0
 .00037609,-0.00003889,-0.00004782,-0.00002210,-0.00005262,0.00006636,-
 0.00004681,-0.00005867,0.00016437,0.00001283,0.00079511,-0.00045596,0.
 00019730,-0.00007815,0.00005337,-0.00009367,0.00017736,-0.00004079,-0.
 00010738,-0.00402156,0.00293447,-0.00412325,0.00002278,0.00001921,0.00
 009211,-0.00209830,0.00210241,0.00230530,0.00014022,0.00003974,0.00010
 736,0.00001156,-0.00003673,0.00000717,0.00000502,-0.00003822,0.0000516
 6,0.00007761,-0.00005539,0.00004792,0.00001086,0.00000679,-0.00006499,
 -0.00000603,0.00001829,-0.00004490,-0.00458624,0.00093156,0.00213510,-
 0.00198137,-0.00387539,-0.00061011,0.00019721,0.00078958,0.00030351,0.
 00001325,0.00002878,-0.00009785,-0.00004657,0.00001220,0.00000179,0.00
 008648,0.00005067,0.00004763,-0.00008911,-0.00024159,-0.00050331,-0.00
 001573,0.00000885,0.00018674,0.00003043,0.00003250,0.00000569,0.000006
 34,0.00008216,0.00010756,0.00000247,-0.00000175,-0.00006254,-0.0000003
 8,0.00000248,0.00000722,-0.00003131,-0.00003314,0.00014021,0.00003918,
 -0.00003901,-0.00006281,0.00002251,0.00002482,0.00001818,0.00007055,-0
 .00014073,-0.00001570,0.00000880,0.00004002,-0.00002064,-0.00007049,0.
 00004500,-0.00003645,0.00006527,-0.00011635,-0.00001017,-0.00002087,0.
 00001500,-0.00005096,-0.00009165,0.00011594,-0.00001734,0.00023355,-0.
 00002910,0.00006795,-0.00007269,-0.00002345,0.00002938,-0.00009809,0.0
 0001202,-0.00001933,0.00007353,0.00001804,-0.00019122,-0.00002723,-0.0
 0003037,-0.00004735,-0.00006131,-0.00001001,0.00016901,0.00080789,0.00
 001328,-0.00058416,0.00012055,-0.00040856,-0.00005711,-0.00020462,-0.0
 0007937,0.00045879,-0.10247786,0.00957664,-0.13060216,-0.00095834,-0.0
 0171966,-0.00164548,0.00198675,0.00421290,-0.01343708,0.00000063,0.001
 88068,-0.00039184,-0.00028395,0.00000884,0.00037037,0.00009549,0.00010
 527,-0.00018409,-0.00000032,0.00028605,0.00000467,0.00012748,-0.000009
 80,-0.00007438,-0.00004022,0.00003238,-0.00009467,0.11195591,-0.016310
 63,0.14535622,0.00012929,0.00029074,-0.00031803,-0.00005979,-0.0000360
 5,0.00004059,0.00027624,0.00000084,0.00010384,-0.00006972,-0.00004129,
 0.00011353,-0.00003025,-0.00000149,0.00000116,0.00063759,0.00027895,-0
 .00023409,0.00071889,0.00009392,-0.00047442,-0.00004478,-0.00005506,0.
 00010859,0.00007854,0.00000039,0.00002712,0.00019775,-0.00001995,-0.00
 004950,-0.00002360,0.00005411,-0.00003524,-0.00013540,0.00004699,-0.00
 006399,-0.00068164,-0.00025736,-0.00003355,0.00003636,-0.00001100,0.00
 000625,0.00001878,0.00002268,-0.00000354,-0.00021870,-0.00007598,-0.00
 053637,0.00017303,0.00002132,-0.00000335,0.00032651,-0.00113193,0.0036
 5934,0.00688126,0.00357441,0.00900137,0.00165531,-0.00384326,0.0001734
 0,0.00008371,-0.00007756,0.00002615,-0.00004862,0.00004862,-0.00000067
 ,-0.00004723,0.00000416,0.00003826,-0.00049633,0.00021697,0.00002574,0
 .00003905,0.00001903,-0.00005250,0.00008703,-0.00004565,0.00003189,-0.
 00015020,0.00005014,-0.00010804,0.00010509,-0.00002010,-0.00002036,0.0
 0000814,-0.00001059,-0.00001083,0.00018772,-0.00002385,0.00002187,-0.0
 0004518,-0.00002254,0.00007577,0.00004878,-0.00001923,0.00006484,-0.00
 000292,-0.00014452,-0.00024737,-0.00009341,0.00005574,0.00005787,-0.00
 010501,0.00001122,-0.00004153,0.00010597,-0.00030079,0.00010150,0.0001
 0389,0.00002605,-0.00002094,-0.00015001,0.00009163,0.00000883,-0.00003
 757,0.00062378,-0.00027718,0.00014465,0.00028108,-0.00050635,0.0002539
 1,-0.00025707,0.00002047,-0.19200394,-0.05490392,0.11533389,-0.0025460
 6,-0.00041184,-0.00165793,-0.00392744,0.00123244,0.00016044,-0.0027066
 2,-0.00028668,0.00113877,0.00002567,0.00010665,0.00009846,0.00106364,0
 .00002550,-0.00133408,-0.00007745,-0.00015298,0.00042727,-0.00005258,0
 .00004301,0.00001628,0.00015068,0.00003022,-0.00028000,0.00009439,0.00
 000994,0.00013594,-0.00001955,-0.00001112,0.00001118,-0.00006753,0.000
 03716,-0.00006218,0.00013055,-0.00007798,0.00009985,-0.00000816,0.0000
 5134,-0.00000129,-0.00005785,0.00001772,-0.00010539,0.00012023,-0.0000
 5166,0.00005488,-0.00003786,0.00003292,0.00001878,0.00004391,-0.000018
 00,0.00014441,-0.00011144,0.00000665,-0.00012093,0.19013026,0.00015219
 ,0.00008260,-0.00014968,-0.00002035,-0.00000054,-0.00000916,0.00007513
 ,-0.00006606,0.00003015,0.00005185,0.00001750,0.00005032,0.00000008,0.
 00000680,-0.00000277,0.00023066,-0.00027037,-0.00019942,-0.00007117,-0
 .00019385,-0.00011963,0.00005186,0.00013657,-0.00012127,-0.00017193,0.
 00009740,0.00009586,0.00004595,0.00001261,-0.00005226,0.00002260,-0.00
 000834,-0.00003864,-0.00003018,0.00000477,-0.00001240,0.00001610,0.000
 01655,-0.00007748,0.00000891,-0.00000109,0.00000120,0.00000491,0.00000
 982,-0.00000332,0.00003241,0.00023801,-0.00002190,0.00005853,-0.000037
 61,-0.00000500,-0.00122703,-0.00070058,0.00011551,0.00549504,0.0020855
 1,0.00327456,-0.00340649,0.00042611,0.00297793,0.00001728,-0.00001434,
 -0.00000121,-0.00001022,0.00001342,0.,-0.00000509,-0.00000760,0.000008
 84,-0.00015658,0.00009420,-0.00001479,0.00001248,-0.00000078,-0.000018
 06,0.00006114,-0.00002757,-0.00000338,-0.00005188,0.00001015,-0.000042
 60,0.00002817,-0.00000891,0.00000474,0.00000522,0.00000038,-0.00000747
 ,0.00006442,-0.00000392,0.00002540,-0.00001271,-0.00000873,0.00002319,
 0.00001860,-0.00000120,0.00002068,-0.00000162,-0.00006422,-0.00007349,
 -0.00003300,0.00001884,0.00001745,-0.00005872,0.00000458,-0.00002189,0
 .00003586,-0.00016363,0.00010205,0.00001299,0.00001196,-0.00005894,-0.
 00010666,0.00005115,0.00000886,0.00007360,0.00025894,0.00003306,0.0000
 9000,-0.00000633,-0.00036286,0.00011006,-0.00010609,0.00001255,-0.0558
 6476,-0.03210949,0.03578325,-0.00188472,-0.00025553,0.00041076,0.00176
 998,0.00248788,-0.00250246,-0.00051702,-0.00037704,-0.00003270,-0.0000
 5111,0.00005022,-0.00013574,0.00023436,0.00006963,-0.00033621,-0.00009
 075,0.00000158,0.00015228,-0.00000890,0.00000810,0.00000638,0.00006237
 ,0.00001456,-0.00009628,0.00002830,-0.00000142,0.00003842,-0.00000237,
 -0.00000347,0.00000288,-0.00002123,0.00000864,-0.00001804,0.00003966,-
 0.00002697,0.00003296,-0.00000406,0.00001769,0.00000101,-0.00001993,0.
 00000711,-0.00003578,0.00003967,-0.00001845,0.00002465,-0.00001101,0.0
 0001156,0.00000349,0.00001840,-0.00000086,0.00004983,-0.00003241,0.000
 00316,-0.00003514,0.05490313,0.02820695,-0.00005450,-0.00016512,0.0002
 6813,0.00002011,0.00003480,-0.00002093,-0.00022059,-0.00020393,-0.0001
 1313,-0.00017369,0.00009342,0.00002755,0.00005045,-0.00000586,-0.00000
 063,-0.00136630,0.00004437,0.00023917,-0.00000917,-0.00011681,0.000311
 84,0.00013481,-0.00000039,0.00006737,0.00003642,0.00005483,-0.00011360
 ,-0.00013065,-0.00001634,0.00003914,0.00001186,-0.00001563,0.00002676,
 0.00007893,-0.00004441,0.00003663,0.00038698,-0.00015459,-0.00000103,-
 0.00002974,0.00001374,-0.00000922,-0.00001508,-0.00001246,-0.00000454,
 -0.00004620,0.00016985,0.00016274,-0.00013978,0.00004257,0.00002517,-0
 .00027827,-0.00024166,-0.00046451,0.00429533,0.00163105,-0.00769907,-0
 .00030523,0.00356211,-0.00081791,-0.00005932,0.00004240,-0.00004381,0.
 00003401,-0.00003622,0.00000654,0.00001681,-0.00001566,-0.00002355,0.0
 0038190,-0.00018879,-0.00001474,-0.00001639,-0.00000249,0.00003147,-0.
 00006163,0.00003472,-0.00000065,0.00009624,-0.00004794,0.00007398,-0.0
 0006920,0.00001368,0.00000563,-0.00000714,0.00000907,0.00000968,-0.000
 14189,0.00001386,-0.00002518,0.00003201,0.00001733,-0.00005481,-0.0000
 4502,0.00001359,-0.00004690,0.00000933,0.00010955,0.00017689,0.0000682
 9,-0.00003994,-0.00004541,0.00009083,-0.00000708,0.00003383,-0.0001599
 1,0.00027205,-0.00009953,-0.00001960,-0.00006445,0.00005631,0.00019765
 ,-0.00006225,-0.00005375,-0.00005430,-0.00030887,0.00028305,-0.0000788
 4,-0.00013424,0.00005045,-0.00020692,0.00021371,0.00000362,0.12089449,
 0.03649694,-0.10352733,-0.00031022,0.00139994,0.00428265,0.00116125,-0
 .00347391,0.00196267,0.00136143,-0.00009380,-0.00033436,0.00001411,-0.
 00003216,0.00008814,-0.00056989,-0.00013662,0.00093045,0.00009860,0.00
 010553,-0.00029836,0.00003295,-0.00004010,-0.00002134,-0.00012339,-0.0
 0003259,0.00021460,-0.00007908,-0.00001640,-0.00010640,0.00001844,0.00
 000541,-0.00000038,0.00004880,-0.00002598,0.00004196,-0.00008737,0.000
 06398,-0.00006757,0.00000456,-0.00003436,-0.00000259,0.00004184,-0.000
 01078,0.00007341,-0.00009141,0.00003477,-0.00003371,0.00003285,-0.0000
 2430,-0.00001513,-0.00003776,0.00001644,-0.00011435,0.00008609,-0.0000
 0529,0.00009441,-0.12474888,-0.03869828,0.10455019\\-0.00001162,-0.000
 00116,-0.00006152,0.00000118,-0.00000550,0.00000683,0.00000154,-0.0000
 0012,0.00001613,-0.00000478,-0.00001258,0.00000831,0.00000786,-0.00000
 019,0.00000470,0.00002222,-0.00000265,-0.00002905,-0.00001047,-0.00000
 067,0.00002750,-0.00000954,0.00001447,0.00002492,0.00001325,0.00004564
 ,0.00001121,-0.00000056,-0.00001547,-0.00001248,-0.00000284,-0.0000186
 9,0.00000090,0.00002887,0.00002019,0.00001753,0.00003666,-0.00003580,-
 0.00001414,-0.00000306,-0.00000503,0.00000030,-0.00000626,-0.00000556,
 -0.00000530,0.00000163,0.00000855,-0.00000892,-0.00000054,-0.00000286,
 0.00001488,0.00002202,-0.00000561,0.00000943,-0.00000231,0.00000099,-0
 .00001484,-0.00000562,0.00000802,-0.00000918,-0.00001787,0.00000771,0.
 00001306,0.00000451,0.00000018,-0.00000554,-0.00000178,-0.00001271,0.0
 0000485,-0.00004997,0.00003587,-0.00000550,0.00000315,-0.00000369,-0.0
 0000570,-0.00000681,-0.00001426,-0.00000858,-0.00000007,0.00000617,0.0
 0001231,0.00001073,0.00000241,0.00000707,-0.00000500,-0.00000657,-0.00
 000073,0.00000241,-0.00000518,-0.00000644,0.00000431,0.00000392,0.0000
 0367,0.00000762,0.00000097,-0.00000781,-0.00000835,-0.00000309,-0.0000
 0685,0.00000037,-0.00000578,0.00000254,-0.00000392,0.00000246,0.000007
 96,0.00001513,0.00001049,-0.00000164,0.00000406,-0.00000490,0.00001993
 ,-0.00000367,-0.00000737,0.00000096,0.00000023,0.00000969,-0.00001602,
 -0.00001629,0.00000689,0.00000255,-0.00000831,-0.00000497,0.00000323,0
 .00000313,0.00000223,0.00002954,-0.00000978,0.00000190,-0.00001634,-0.
 00000382,-0.00001156,-0.00001140,-0.00001489,0.00000865,-0.00002988,0.
 00000283,0.00000149,0.00002549,0.00001474,-0.00000278,0.00000930,0.000
 00093,0.00000056,0.00000133,0.00000004,-0.00000094,-0.00000005,0.00000
 014,-0.00000173,0.00000049,-0.00001500,-0.00000918,0.00000042,-0.00000
 200,0.00000294,-0.00000257,-0.00000003,0.00000960,-0.00000366,0.000007
 11,-0.00000682,-0.00000443,-0.00000052,0.00000356,0.00000102,0.0000003
 9,-0.00000329,-0.00000161,-0.00000256,-0.00000005,-0.00000227,0.000000
 34,0.00000187,-0.00000086,0.00000464,0.00000067,0.00000290,0.00000298,
 -0.00000152,-0.00000228,0.00000323,0.00000017,0.00000434\\\@
 The archive entry for this job was punched.


 FROM AN ANONYMOUS WRITER, ON PERSPECTIVE:

 MAN, DESPITE HIS ARTISTIC PRETENSIONS, HIS SOPHISTICATION AND MANY 
 ACCOMPLISHMENTS, OWES THE FACT OF HIS EXISTENCE TO A SIX-INCH LAYER OF 
 TOPSOIL AND THE FACT THAT IT RAINS.
 Job cpu time:       5 days 14 hours 55 minutes 51.4 seconds.
 Elapsed time:       0 days  2 hours 56 minutes 36.6 seconds.
 File lengths (MBytes):  RWF=  12144 Int=      0 D2E=      0 Chk=    131 Scr=      2
 Normal termination of Gaussian 16 at Tue Feb  7 10:17:26 2023.
