 Entering Gaussian System, Link 0=g16
 Initial command:
 /home/chesagar/softwares/G16_AVX2//g16/l1.exe "/home/chesagar/scratch/Gau-102206.inp" -scrdir="/home/chesagar/scratch/"
 Entering Link 1 = /home/chesagar/softwares/G16_AVX2//g16/l1.exe PID=    102207.
  
 Copyright (c) 1988-2019, Gaussian, Inc.  All Rights Reserved.
  
 This is part of the Gaussian(R) 16 program.  It is based on
 the Gaussian(R) 09 system (copyright 2009, Gaussian, Inc.),
 the Gaussian(R) 03 system (copyright 2003, Gaussian, Inc.),
 the Gaussian(R) 98 system (copyright 1998, Gaussian, Inc.),
 the Gaussian(R) 94 system (copyright 1995, Gaussian, Inc.),
 the Gaussian 92(TM) system (copyright 1992, Gaussian, Inc.),
 the Gaussian 90(TM) system (copyright 1990, Gaussian, Inc.),
 the Gaussian 88(TM) system (copyright 1988, Gaussian, Inc.),
 the Gaussian 86(TM) system (copyright 1986, Carnegie Mellon
 University), and the Gaussian 82(TM) system (copyright 1983,
 Carnegie Mellon University). Gaussian is a federally registered
 trademark of Gaussian, Inc.
  
 This software contains proprietary and confidential information,
 including trade secrets, belonging to Gaussian, Inc.
  
 This software is provided under written license and may be
 used, copied, transmitted, or stored only in accord with that
 written license.
  
 The following legend is applicable only to US Government
 contracts under FAR:
  
                    RESTRICTED RIGHTS LEGEND
  
 Use, reproduction and disclosure by the US Government is
 subject to restrictions as set forth in subparagraphs (a)
 and (c) of the Commercial Computer Software - Restricted
 Rights clause in FAR 52.227-19.
  
 Gaussian, Inc.
 340 Quinnipiac St., Bldg. 40, Wallingford CT 06492
  
  
 ---------------------------------------------------------------
 Warning -- This program may not be used in any manner that
 competes with the business of Gaussian, Inc. or will provide
 assistance to any competitor of Gaussian, Inc.  The licensee
 of this program is prohibited from giving any competitor of
 Gaussian, Inc. access to this program.  By using this program,
 the user acknowledges that Gaussian, Inc. is engaged in the
 business of creating and licensing software in the field of
 computational chemistry and represents and warrants to the
 licensee that it is not a competitor of Gaussian, Inc. and that
 it will not use this program in any manner prohibited above.
 ---------------------------------------------------------------
  

 Cite this work as:
 Gaussian 16, Revision C.01,
 M. J. Frisch, G. W. Trucks, H. B. Schlegel, G. E. Scuseria, 
 M. A. Robb, J. R. Cheeseman, G. Scalmani, V. Barone, 
 G. A. Petersson, H. Nakatsuji, X. Li, M. Caricato, A. V. Marenich, 
 J. Bloino, B. G. Janesko, R. Gomperts, B. Mennucci, H. P. Hratchian, 
 J. V. Ortiz, A. F. Izmaylov, J. L. Sonnenberg, D. Williams-Young, 
 F. Ding, F. Lipparini, F. Egidi, J. Goings, B. Peng, A. Petrone, 
 T. Henderson, D. Ranasinghe, V. G. Zakrzewski, J. Gao, N. Rega, 
 G. Zheng, W. Liang, M. Hada, M. Ehara, K. Toyota, R. Fukuda, 
 J. Hasegawa, M. Ishida, T. Nakajima, Y. Honda, O. Kitao, H. Nakai, 
 T. Vreven, K. Throssell, J. A. Montgomery, Jr., J. E. Peralta, 
 F. Ogliaro, M. J. Bearpark, J. J. Heyd, E. N. Brothers, K. N. Kudin, 
 V. N. Staroverov, T. A. Keith, R. Kobayashi, J. Normand, 
 K. Raghavachari, A. P. Rendell, J. C. Burant, S. S. Iyengar, 
 J. Tomasi, M. Cossi, J. M. Millam, M. Klene, C. Adamo, R. Cammi, 
 J. W. Ochterski, R. L. Martin, K. Morokuma, O. Farkas, 
 J. B. Foresman, and D. J. Fox, Gaussian, Inc., Wallingford CT, 2019.
 
 ******************************************
 Gaussian 16:  ES64L-G16RevC.01  3-Jul-2019
                10-Feb-2023 
 ******************************************
 %nprocshared=46
 Will use up to   46 processors via shared memory.
 %chk=int_8.chk
 %mem=100GB
 ---------------------------------------------------------
 # opt freq b3lyp/gen nosymm pseudo=read scf=maxcycles=500
 ---------------------------------------------------------
 1/18=20,19=15,26=3,38=1/1,3;
 2/9=110,12=2,15=1,17=6,18=5,40=1/2;
 3/5=7,11=2,16=1,17=8,25=1,30=1,71=1,74=-5/1,2,3;
 4//1;
 5/5=2,7=500,38=5/2;
 6/7=2,8=2,9=2,10=2,28=1/1;
 7/30=1/1,2,3,16;
 1/18=20,19=15,26=3/3(2);
 2/9=110,15=1/2;
 99//99;
 2/9=110,15=1/2;
 3/5=7,6=1,11=2,16=1,17=8,25=1,30=1,71=1,74=-5,82=7/1,2,3;
 4/5=5,16=3,69=1/1;
 5/5=2,7=500,38=5/2;
 7/30=1/1,2,3,16;
 1/18=20,19=15,26=3/3(-5);
 2/9=110,15=1/2;
 6/7=2,8=2,9=2,10=2,19=2,28=1/1;
 99/9=1/99;
 -------------------
 Title Card Required
 -------------------
 Symbolic Z-matrix:
 Charge =  0 Multiplicity = 1
 42                   -0.14605   1.56461   13.02645 
 16                    1.67007   3.2942    12.61316 
 16                   -1.35276   3.55659   13.58355 
 16                   -0.63559   1.13018   10.65796 
 16                    1.60518  -0.23645   12.19326 
 42                   -2.05932   2.87965   11.30707 
 16                   -2.76449   3.04058   8.90154 
 16                   -0.92878   4.92184   10.636 
 42                    0.75312   3.07774   10.53927 
 16                    0.09283   3.44039   8.03728 
 16                    2.40914   1.58612   9.53236 
 42                    3.42217   1.38134   11.86917 
 42                   -1.55939   5.44467   8.34911 
 16                    4.14066   1.84565   14.16157 
 16                    4.7792    3.34147   11.27705 
 16                   -3.7071    6.22492   9.45419 
 16                    0.45741   6.69187   7.95669 
 42                   -4.77675   4.15425   8.94443 
 16                   -5.81032   1.65914   9.07946 
 16                   -6.38366   4.4039    10.51264 
 42                    2.62659  -0.05141   14.20146 
 16                    4.10839  -1.82729   14.20149 
 16                    1.06563   1.59908   15.31 
 42                    2.04343   4.8205    7.31054 
 16                    0.76357   4.7491    5.12106 
 16                    2.52508   4.89552   9.69698 
 42                    4.10153   3.27925   8.7432 
 16                    3.13054   2.80871   6.56793 
 16                    5.87818   5.07612   8.55703 
 42                    4.72487   4.5927    6.5222 
 16                    6.28557   3.0528    5.44347 
 16                    3.64402   6.70394   7.09083 
 42                    2.5407    6.26991   5.05571 
 16                    4.1878    5.29777   3.9802 
 16                   -1.63682   7.89292   4.21157 
 42                   -0.68285   6.72258   5.71471 
 16                   -2.32337   4.94353   6.00249 
 16                   -2.1925    7.66328   7.38215 
 42                   -4.22054   6.22633   7.14365 
 16                   -5.35045   4.15695   6.75214 
 16                   -5.65509   7.70744   6.66374 
 42                   -5.59715   2.06764   11.24072 
 16                   -4.23648   3.56806   12.61876 
 16                   -3.61246   0.80491   11.61042 
 42                   -2.88537   1.78267   13.78305 
 16                   -1.63673  -0.36451   13.59786 
 16                   -3.65666   1.83431   15.76608 
 42                   -0.24854  -0.27855   15.48817 
 16                    1.15234  -1.9371    15.2059 
 16                   -1.25684  -0.46635   17.33781 
 42                    5.43623  -0.01395   13.58089 
 16                    4.68645  -0.62023   11.19845 
 16                    7.45603   0.62237   12.12063 
 42                    5.893     1.39777   10.75224 
 16                    5.44456   1.1745    8.38706 
 16                    8.1093    2.92737   9.93893 
 42                    6.9268    3.035     8.14543 
 16                    8.21244   3.4248    6.27424 
 16                    1.4522    8.13484   4.67222 
 16                    6.87453  -0.05304   15.17384 
 16                   -7.16486   1.14732   12.30935 
 

 GradGradGradGradGradGradGradGradGradGradGradGradGradGradGradGradGradGrad
 Berny optimization.
 Initialization pass.
                           ----------------------------
                           !    Initial Parameters    !
                           ! (Angstroms and Degrees)  !
 --------------------------                            --------------------------
 ! Name  Definition              Value          Derivative Info.                !
 --------------------------------------------------------------------------------
 ! R1    R(1,2)                  2.5418         estimate D2E/DX2                !
 ! R2    R(1,3)                  2.3947         estimate D2E/DX2                !
 ! R3    R(1,4)                  2.4573         estimate D2E/DX2                !
 ! R4    R(1,5)                  2.6467         estimate D2E/DX2                !
 ! R5    R(1,6)                  2.889          estimate D2E/DX2                !
 ! R6    R(1,9)                  3.047          estimate D2E/DX2                !
 ! R7    R(1,23)                 2.5853         estimate D2E/DX2                !
 ! R8    R(1,45)                 2.8502         estimate D2E/DX2                !
 ! R9    R(1,46)                 2.504          estimate D2E/DX2                !
 ! R10   R(1,48)                 3.077          estimate D2E/DX2                !
 ! R11   R(2,9)                  2.2779         estimate D2E/DX2                !
 ! R12   R(2,12)                 2.6986         estimate D2E/DX2                !
 ! R13   R(3,6)                  2.4779         estimate D2E/DX2                !
 ! R14   R(3,45)                 2.3528         estimate D2E/DX2                !
 ! R15   R(4,6)                  2.3471         estimate D2E/DX2                !
 ! R16   R(4,9)                  2.3949         estimate D2E/DX2                !
 ! R17   R(5,12)                 2.4543         estimate D2E/DX2                !
 ! R18   R(5,21)                 2.2606         estimate D2E/DX2                !
 ! R19   R(6,7)                  2.5119         estimate D2E/DX2                !
 ! R20   R(6,8)                  2.4288         estimate D2E/DX2                !
 ! R21   R(6,9)                  2.9221         estimate D2E/DX2                !
 ! R22   R(6,43)                 2.6333         estimate D2E/DX2                !
 ! R23   R(6,44)                 2.6094         estimate D2E/DX2                !
 ! R24   R(6,45)                 2.8313         estimate D2E/DX2                !
 ! R25   R(7,13)                 2.7454         estimate D2E/DX2                !
 ! R26   R(7,18)                 2.3003         estimate D2E/DX2                !
 ! R27   R(8,9)                  2.4978         estimate D2E/DX2                !
 ! R28   R(8,13)                 2.4292         estimate D2E/DX2                !
 ! R29   R(9,10)                 2.6129         estimate D2E/DX2                !
 ! R30   R(9,11)                 2.4457         estimate D2E/DX2                !
 ! R31   R(9,26)                 2.6746         estimate D2E/DX2                !
 ! R32   R(10,13)                2.6161         estimate D2E/DX2                !
 ! R33   R(10,24)                2.4975         estimate D2E/DX2                !
 ! R34   R(11,12)                2.5552         estimate D2E/DX2                !
 ! R35   R(11,27)                2.5206         estimate D2E/DX2                !
 ! R36   R(12,14)                2.4468         estimate D2E/DX2                !
 ! R37   R(12,15)                2.4565         estimate D2E/DX2                !
 ! R38   R(12,21)                2.8505         estimate D2E/DX2                !
 ! R39   R(12,51)                2.9889         estimate D2E/DX2                !
 ! R40   R(12,52)                2.4606         estimate D2E/DX2                !
 ! R41   R(12,54)                2.7116         estimate D2E/DX2                !
 ! R42   R(13,16)                2.5382         estimate D2E/DX2                !
 ! R43   R(13,17)                2.4035         estimate D2E/DX2                !
 ! R44   R(13,36)                3.0564         estimate D2E/DX2                !
 ! R45   R(13,37)                2.5182         estimate D2E/DX2                !
 ! R46   R(13,38)                2.5016         estimate D2E/DX2                !
 ! R47   R(13,39)                3.0242         estimate D2E/DX2                !
 ! R48   R(14,21)                2.4275         estimate D2E/DX2                !
 ! R49   R(14,51)                2.3396         estimate D2E/DX2                !
 ! R50   R(15,27)                2.6236         estimate D2E/DX2                !
 ! R51   R(15,54)                2.3008         estimate D2E/DX2                !
 ! R52   R(16,18)                2.3857         estimate D2E/DX2                !
 ! R53   R(16,39)                2.3669         estimate D2E/DX2                !
 ! R54   R(17,24)                2.5367         estimate D2E/DX2                !
 ! R55   R(17,36)                2.5155         estimate D2E/DX2                !
 ! R56   R(18,19)                2.7041         estimate D2E/DX2                !
 ! R57   R(18,20)                2.2592         estimate D2E/DX2                !
 ! R58   R(18,39)                2.801          estimate D2E/DX2                !
 ! R59   R(18,40)                2.2661         estimate D2E/DX2                !
 ! R60   R(19,42)                2.2098         estimate D2E/DX2                !
 ! R61   R(20,42)                2.5704         estimate D2E/DX2                !
 ! R62   R(21,22)                2.3129         estimate D2E/DX2                !
 ! R63   R(21,23)                2.5278         estimate D2E/DX2                !
 ! R64   R(21,49)                2.5958         estimate D2E/DX2                !
 ! R65   R(21,51)                2.8776         estimate D2E/DX2                !
 ! R66   R(22,51)                2.3316         estimate D2E/DX2                !
 ! R67   R(23,48)                2.2988         estimate D2E/DX2                !
 ! R68   R(24,25)                2.5371         estimate D2E/DX2                !
 ! R69   R(24,26)                2.4357         estimate D2E/DX2                !
 ! R70   R(24,27)                2.9434         estimate D2E/DX2                !
 ! R71   R(24,28)                2.4043         estimate D2E/DX2                !
 ! R72   R(24,30)                2.8042         estimate D2E/DX2                !
 ! R73   R(24,32)                2.4814         estimate D2E/DX2                !
 ! R74   R(24,33)                2.7262         estimate D2E/DX2                !
 ! R75   R(25,33)                2.3399         estimate D2E/DX2                !
 ! R76   R(25,36)                2.5178         estimate D2E/DX2                !
 ! R77   R(26,27)                2.451          estimate D2E/DX2                !
 ! R78   R(27,28)                2.4282         estimate D2E/DX2                !
 ! R79   R(27,29)                2.5337         estimate D2E/DX2                !
 ! R80   R(27,30)                2.6545         estimate D2E/DX2                !
 ! R81   R(27,55)                2.522          estimate D2E/DX2                !
 ! R82   R(27,57)                2.8981         estimate D2E/DX2                !
 ! R83   R(28,30)                2.393          estimate D2E/DX2                !
 ! R84   R(29,30)                2.3884         estimate D2E/DX2                !
 ! R85   R(29,57)                2.3313         estimate D2E/DX2                !
 ! R86   R(30,31)                2.4435         estimate D2E/DX2                !
 ! R87   R(30,32)                2.439          estimate D2E/DX2                !
 ! R88   R(30,33)                3.12           estimate D2E/DX2                !
 ! R89   R(30,34)                2.6921         estimate D2E/DX2                !
 ! R90   R(31,58)                2.1311         estimate D2E/DX2                !
 ! R91   R(32,33)                2.3553         estimate D2E/DX2                !
 ! R92   R(33,34)                2.1942         estimate D2E/DX2                !
 ! R93   R(33,59)                2.1931         estimate D2E/DX2                !
 ! R94   R(35,36)                2.1305         estimate D2E/DX2                !
 ! R95   R(36,37)                2.437          estimate D2E/DX2                !
 ! R96   R(36,38)                2.4381         estimate D2E/DX2                !
 ! R97   R(37,39)                2.5587         estimate D2E/DX2                !
 ! R98   R(38,39)                2.4969         estimate D2E/DX2                !
 ! R99   R(39,40)                2.39           estimate D2E/DX2                !
 ! R100  R(39,41)                2.1171         estimate D2E/DX2                !
 ! R101  R(42,43)                2.4498         estimate D2E/DX2                !
 ! R102  R(42,44)                2.3812         estimate D2E/DX2                !
 ! R103  R(42,61)                2.1087         estimate D2E/DX2                !
 ! R104  R(43,45)                2.5236         estimate D2E/DX2                !
 ! R105  R(44,45)                2.491          estimate D2E/DX2                !
 ! R106  R(45,46)                2.4907         estimate D2E/DX2                !
 ! R107  R(45,47)                2.1284         estimate D2E/DX2                !
 ! R108  R(46,48)                2.3469         estimate D2E/DX2                !
 ! R109  R(48,49)                2.1893         estimate D2E/DX2                !
 ! R110  R(48,50)                2.115          estimate D2E/DX2                !
 ! R111  R(51,52)                2.5702         estimate D2E/DX2                !
 ! R112  R(51,53)                2.5723         estimate D2E/DX2                !
 ! R113  R(51,60)                2.1466         estimate D2E/DX2                !
 ! R114  R(52,54)                2.3932         estimate D2E/DX2                !
 ! R115  R(53,54)                2.2174         estimate D2E/DX2                !
 ! R116  R(54,55)                2.4177         estimate D2E/DX2                !
 ! R117  R(55,57)                2.391          estimate D2E/DX2                !
 ! R118  R(56,57)                2.1509         estimate D2E/DX2                !
 ! R119  R(57,58)                2.3035         estimate D2E/DX2                !
 ! A1    A(2,1,3)               80.3192         estimate D2E/DX2                !
 ! A2    A(2,1,4)               96.0804         estimate D2E/DX2                !
 ! A3    A(2,1,5)               86.5083         estimate D2E/DX2                !
 ! A4    A(2,1,6)               93.8234         estimate D2E/DX2                !
 ! A5    A(2,1,23)              78.444          estimate D2E/DX2                !
 ! A6    A(2,1,45)             132.6725         estimate D2E/DX2                !
 ! A7    A(2,1,48)             124.1593         estimate D2E/DX2                !
 ! A8    A(3,1,4)              105.7185         estimate D2E/DX2                !
 ! A9    A(3,1,9)               85.7284         estimate D2E/DX2                !
 ! A10   A(3,1,23)              91.1228         estimate D2E/DX2                !
 ! A11   A(3,1,46)             106.7252         estimate D2E/DX2                !
 ! A12   A(3,1,48)             107.1801         estimate D2E/DX2                !
 ! A13   A(4,1,5)               73.0266         estimate D2E/DX2                !
 ! A14   A(4,1,23)             161.2784         estimate D2E/DX2                !
 ! A15   A(4,1,45)              94.4689         estimate D2E/DX2                !
 ! A16   A(4,1,46)              88.0028         estimate D2E/DX2                !
 ! A17   A(4,1,48)             131.1934         estimate D2E/DX2                !
 ! A18   A(5,1,6)              124.0974         estimate D2E/DX2                !
 ! A19   A(5,1,9)               83.4369         estimate D2E/DX2                !
 ! A20   A(5,1,23)              88.6836         estimate D2E/DX2                !
 ! A21   A(5,1,45)             140.4937         estimate D2E/DX2                !
 ! A22   A(5,1,46)              86.6449         estimate D2E/DX2                !
 ! A23   A(5,1,48)              82.3148         estimate D2E/DX2                !
 ! A24   A(6,1,23)             146.0986         estimate D2E/DX2                !
 ! A25   A(6,1,46)              95.2925         estimate D2E/DX2                !
 ! A26   A(6,1,48)             136.6152         estimate D2E/DX2                !
 ! A27   A(9,1,23)             125.1742         estimate D2E/DX2                !
 ! A28   A(9,1,45)             117.536          estimate D2E/DX2                !
 ! A29   A(9,1,46)             138.1189         estimate D2E/DX2                !
 ! A30   A(9,1,48)             163.8127         estimate D2E/DX2                !
 ! A31   A(23,1,45)            102.4126         estimate D2E/DX2                !
 ! A32   A(23,1,46)             95.0324         estimate D2E/DX2                !
 ! A33   A(45,1,48)             78.5476         estimate D2E/DX2                !
 ! A34   A(1,2,12)              91.5125         estimate D2E/DX2                !
 ! A35   A(9,2,12)              86.7319         estimate D2E/DX2                !
 ! A36   A(1,5,12)              94.7532         estimate D2E/DX2                !
 ! A37   A(1,5,21)              87.914          estimate D2E/DX2                !
 ! A38   A(1,6,7)              141.7231         estimate D2E/DX2                !
 ! A39   A(1,6,8)              103.822          estimate D2E/DX2                !
 ! A40   A(1,6,43)             111.7208         estimate D2E/DX2                !
 ! A41   A(1,6,44)              87.8838         estimate D2E/DX2                !
 ! A42   A(3,6,4)              106.5433         estimate D2E/DX2                !
 ! A43   A(3,6,7)              160.4517         estimate D2E/DX2                !
 ! A44   A(3,6,8)               83.7655         estimate D2E/DX2                !
 ! A45   A(3,6,9)               87.0439         estimate D2E/DX2                !
 ! A46   A(3,6,43)              72.9449         estimate D2E/DX2                !
 ! A47   A(3,6,44)             106.2685         estimate D2E/DX2                !
 ! A48   A(4,6,7)               87.3175         estimate D2E/DX2                !
 ! A49   A(4,6,8)              105.543          estimate D2E/DX2                !
 ! A50   A(4,6,43)             146.5238         estimate D2E/DX2                !
 ! A51   A(4,6,44)              78.4953         estimate D2E/DX2                !
 ! A52   A(4,6,45)              97.4715         estimate D2E/DX2                !
 ! A53   A(7,6,8)               79.176          estimate D2E/DX2                !
 ! A54   A(7,6,9)               90.815          estimate D2E/DX2                !
 ! A55   A(7,6,43)             103.1892         estimate D2E/DX2                !
 ! A56   A(7,6,44)              89.7237         estimate D2E/DX2                !
 ! A57   A(7,6,45)             141.296          estimate D2E/DX2                !
 ! A58   A(8,6,43)             107.6173         estimate D2E/DX2                !
 ! A59   A(8,6,45)             134.6849         estimate D2E/DX2                !
 ! A60   A(9,6,43)             155.3545         estimate D2E/DX2                !
 ! A61   A(9,6,44)             131.0967         estimate D2E/DX2                !
 ! A62   A(9,6,45)             122.4699         estimate D2E/DX2                !
 ! A63   A(43,6,44)             69.9918         estimate D2E/DX2                !
 ! A64   A(6,7,13)              97.214          estimate D2E/DX2                !
 ! A65   A(6,7,18)             104.9952         estimate D2E/DX2                !
 ! A66   A(13,7,18)             87.9245         estimate D2E/DX2                !
 ! A67   A(6,8,13)             108.6779         estimate D2E/DX2                !
 ! A68   A(9,8,13)             107.2927         estimate D2E/DX2                !
 ! A69   A(1,9,8)               97.8349         estimate D2E/DX2                !
 ! A70   A(1,9,10)             140.8927         estimate D2E/DX2                !
 ! A71   A(1,9,11)             103.4747         estimate D2E/DX2                !
 ! A72   A(1,9,26)             142.1926         estimate D2E/DX2                !
 ! A73   A(2,9,4)              105.4013         estimate D2E/DX2                !
 ! A74   A(2,9,6)               98.897          estimate D2E/DX2                !
 ! A75   A(2,9,8)               99.5346         estimate D2E/DX2                !
 ! A76   A(2,9,10)             163.8071         estimate D2E/DX2                !
 ! A77   A(2,9,11)              99.2202         estimate D2E/DX2                !
 ! A78   A(2,9,26)              87.4462         estimate D2E/DX2                !
 ! A79   A(4,9,8)              102.0063         estimate D2E/DX2                !
 ! A80   A(4,9,10)              90.7902         estimate D2E/DX2                !
 ! A81   A(4,9,11)              85.2425         estimate D2E/DX2                !
 ! A82   A(4,9,26)             162.2614         estimate D2E/DX2                !
 ! A83   A(6,9,10)              91.0192         estimate D2E/DX2                !
 ! A84   A(6,9,11)             135.9354         estimate D2E/DX2                !
 ! A85   A(6,9,26)             140.0379         estimate D2E/DX2                !
 ! A86   A(8,9,10)              76.376          estimate D2E/DX2                !
 ! A87   A(8,9,11)             157.2483         estimate D2E/DX2                !
 ! A88   A(8,9,26)              87.5081         estimate D2E/DX2                !
 ! A89   A(10,9,11)             82.0407         estimate D2E/DX2                !
 ! A90   A(10,9,26)             76.7936         estimate D2E/DX2                !
 ! A91   A(11,9,26)             80.5758         estimate D2E/DX2                !
 ! A92   A(9,10,13)             98.7309         estimate D2E/DX2                !
 ! A93   A(9,10,24)             99.0884         estimate D2E/DX2                !
 ! A94   A(13,10,24)            96.0029         estimate D2E/DX2                !
 ! A95   A(9,11,12)             86.6064         estimate D2E/DX2                !
 ! A96   A(9,11,27)            100.0118         estimate D2E/DX2                !
 ! A97   A(12,11,27)            94.2418         estimate D2E/DX2                !
 ! A98   A(2,12,5)              87.1435         estimate D2E/DX2                !
 ! A99   A(2,12,11)             86.4407         estimate D2E/DX2                !
 ! A100  A(2,12,14)             78.337          estimate D2E/DX2                !
 ! A101  A(2,12,15)             81.9242         estimate D2E/DX2                !
 ! A102  A(2,12,21)             87.105          estimate D2E/DX2                !
 ! A103  A(2,12,51)            127.6275         estimate D2E/DX2                !
 ! A104  A(2,12,54)            134.4976         estimate D2E/DX2                !
 ! A105  A(5,12,11)             83.1124         estimate D2E/DX2                !
 ! A106  A(5,12,14)            102.6362         estimate D2E/DX2                !
 ! A107  A(5,12,51)             96.6343         estimate D2E/DX2                !
 ! A108  A(5,12,52)             83.1185         estimate D2E/DX2                !
 ! A109  A(5,12,54)            137.136          estimate D2E/DX2                !
 ! A110  A(11,12,14)           163.3435         estimate D2E/DX2                !
 ! A111  A(11,12,15)            86.2516         estimate D2E/DX2                !
 ! A112  A(11,12,21)           132.6809         estimate D2E/DX2                !
 ! A113  A(11,12,51)           145.928          estimate D2E/DX2                !
 ! A114  A(11,12,52)            91.1235         estimate D2E/DX2                !
 ! A115  A(11,12,54)            89.0871         estimate D2E/DX2                !
 ! A116  A(14,12,15)            84.9627         estimate D2E/DX2                !
 ! A117  A(14,12,52)           105.0028         estimate D2E/DX2                !
 ! A118  A(14,12,54)            96.7301         estimate D2E/DX2                !
 ! A119  A(15,12,21)           138.8058         estimate D2E/DX2                !
 ! A120  A(15,12,51)            97.9491         estimate D2E/DX2                !
 ! A121  A(15,12,52)           107.43           estimate D2E/DX2                !
 ! A122  A(21,12,52)            87.5682         estimate D2E/DX2                !
 ! A123  A(21,12,54)           126.4693         estimate D2E/DX2                !
 ! A124  A(51,12,54)            67.9576         estimate D2E/DX2                !
 ! A125  A(7,13,8)              74.695          estimate D2E/DX2                !
 ! A126  A(7,13,10)             68.3043         estimate D2E/DX2                !
 ! A127  A(7,13,16)             79.0566         estimate D2E/DX2                !
 ! A128  A(7,13,17)            148.8232         estimate D2E/DX2                !
 ! A129  A(7,13,36)            131.7181         estimate D2E/DX2                !
 ! A130  A(7,13,37)             83.112          estimate D2E/DX2                !
 ! A131  A(7,13,38)            138.0143         estimate D2E/DX2                !
 ! A132  A(7,13,39)             85.4278         estimate D2E/DX2                !
 ! A133  A(8,13,10)             77.4887         estimate D2E/DX2                !
 ! A134  A(8,13,16)             82.874          estimate D2E/DX2                !
 ! A135  A(8,13,17)             92.7258         estimate D2E/DX2                !
 ! A136  A(8,13,36)            145.7904         estimate D2E/DX2                !
 ! A137  A(8,13,37)            155.9512         estimate D2E/DX2                !
 ! A138  A(8,13,38)            128.3508         estimate D2E/DX2                !
 ! A139  A(8,13,39)            131.2482         estimate D2E/DX2                !
 ! A140  A(10,13,16)           145.263          estimate D2E/DX2                !
 ! A141  A(10,13,17)            81.2658         estimate D2E/DX2                !
 ! A142  A(10,13,36)            92.0898         estimate D2E/DX2                !
 ! A143  A(10,13,37)            85.8748         estimate D2E/DX2                !
 ! A144  A(10,13,38)           142.4866         estimate D2E/DX2                !
 ! A145  A(10,13,39)           134.9294         estimate D2E/DX2                !
 ! A146  A(16,13,17)           128.4308         estimate D2E/DX2                !
 ! A147  A(16,13,36)           119.3014         estimate D2E/DX2                !
 ! A148  A(16,13,37)           102.1328         estimate D2E/DX2                !
 ! A149  A(16,13,38)            71.4291         estimate D2E/DX2                !
 ! A150  A(17,13,37)           101.8699         estimate D2E/DX2                !
 ! A151  A(17,13,38)            71.8836         estimate D2E/DX2                !
 ! A152  A(17,13,39)           122.627          estimate D2E/DX2                !
 ! A153  A(36,13,39)            78.5054         estimate D2E/DX2                !
 ! A154  A(37,13,38)            74.9016         estimate D2E/DX2                !
 ! A155  A(12,15,27)            94.0819         estimate D2E/DX2                !
 ! A156  A(27,15,54)            83.38           estimate D2E/DX2                !
 ! A157  A(13,16,18)            91.1197         estimate D2E/DX2                !
 ! A158  A(13,17,24)           100.5686         estimate D2E/DX2                !
 ! A159  A(24,17,36)            93.7497         estimate D2E/DX2                !
 ! A160  A(7,18,16)             91.8326         estimate D2E/DX2                !
 ! A161  A(7,18,19)             83.602          estimate D2E/DX2                !
 ! A162  A(7,18,20)            133.5253         estimate D2E/DX2                !
 ! A163  A(7,18,39)             99.9303         estimate D2E/DX2                !
 ! A164  A(7,18,40)            101.7711         estimate D2E/DX2                !
 ! A165  A(16,18,19)           164.0642         estimate D2E/DX2                !
 ! A166  A(16,18,20)            94.2827         estimate D2E/DX2                !
 ! A167  A(16,18,40)           108.6132         estimate D2E/DX2                !
 ! A168  A(19,18,20)            78.1958         estimate D2E/DX2                !
 ! A169  A(19,18,39)           142.2409         estimate D2E/DX2                !
 ! A170  A(19,18,40)            87.2856         estimate D2E/DX2                !
 ! A171  A(20,18,39)           120.3827         estimate D2E/DX2                !
 ! A172  A(20,18,40)           119.4286         estimate D2E/DX2                !
 ! A173  A(18,19,42)            80.8739         estimate D2E/DX2                !
 ! A174  A(18,20,42)            83.0233         estimate D2E/DX2                !
 ! A175  A(5,21,14)            109.3403         estimate D2E/DX2                !
 ! A176  A(5,21,22)            103.0989         estimate D2E/DX2                !
 ! A177  A(5,21,23)             99.4396         estimate D2E/DX2                !
 ! A178  A(5,21,49)             91.5856         estimate D2E/DX2                !
 ! A179  A(5,21,51)            104.5157         estimate D2E/DX2                !
 ! A180  A(12,21,22)           101.9541         estimate D2E/DX2                !
 ! A181  A(12,21,23)           101.7115         estimate D2E/DX2                !
 ! A182  A(12,21,49)           147.1665         estimate D2E/DX2                !
 ! A183  A(14,21,22)           101.5629         estimate D2E/DX2                !
 ! A184  A(14,21,23)            83.2293         estimate D2E/DX2                !
 ! A185  A(14,21,49)           158.1697         estimate D2E/DX2                !
 ! A186  A(22,21,23)           153.7624         estimate D2E/DX2                !
 ! A187  A(22,21,49)            78.8184         estimate D2E/DX2                !
 ! A188  A(23,21,49)            87.3585         estimate D2E/DX2                !
 ! A189  A(23,21,51)           133.5526         estimate D2E/DX2                !
 ! A190  A(49,21,51)           130.348          estimate D2E/DX2                !
 ! A191  A(1,23,21)             83.8784         estimate D2E/DX2                !
 ! A192  A(21,23,48)            81.5872         estimate D2E/DX2                !
 ! A193  A(10,24,17)            81.0963         estimate D2E/DX2                !
 ! A194  A(10,24,25)            80.8846         estimate D2E/DX2                !
 ! A195  A(10,24,26)            83.4749         estimate D2E/DX2                !
 ! A196  A(10,24,27)            96.6105         estimate D2E/DX2                !
 ! A197  A(10,24,28)            88.8904         estimate D2E/DX2                !
 ! A198  A(10,24,30)           141.6038         estimate D2E/DX2                !
 ! A199  A(10,24,32)           161.6149         estimate D2E/DX2                !
 ! A200  A(10,24,33)           132.6027         estimate D2E/DX2                !
 ! A201  A(17,24,25)            85.7092         estimate D2E/DX2                !
 ! A202  A(17,24,26)            81.4513         estimate D2E/DX2                !
 ! A203  A(17,24,27)           134.3847         estimate D2E/DX2                !
 ! A204  A(17,24,30)           136.8355         estimate D2E/DX2                !
 ! A205  A(17,24,32)            82.2939         estimate D2E/DX2                !
 ! A206  A(17,24,33)            86.1302         estimate D2E/DX2                !
 ! A207  A(25,24,26)           161.1099         estimate D2E/DX2                !
 ! A208  A(25,24,27)           139.2906         estimate D2E/DX2                !
 ! A209  A(25,24,28)            86.445          estimate D2E/DX2                !
 ! A210  A(25,24,30)           103.7375         estimate D2E/DX2                !
 ! A211  A(25,24,32)           105.6843         estimate D2E/DX2                !
 ! A212  A(26,24,28)           103.8264         estimate D2E/DX2                !
 ! A213  A(26,24,30)            95.0979         estimate D2E/DX2                !
 ! A214  A(26,24,32)            86.3206         estimate D2E/DX2                !
 ! A215  A(26,24,33)           139.2806         estimate D2E/DX2                !
 ! A216  A(27,24,32)            89.3995         estimate D2E/DX2                !
 ! A217  A(27,24,33)           123.6018         estimate D2E/DX2                !
 ! A218  A(28,24,32)           108.4275         estimate D2E/DX2                !
 ! A219  A(28,24,33)            96.138          estimate D2E/DX2                !
 ! A220  A(24,25,36)            93.6844         estimate D2E/DX2                !
 ! A221  A(33,25,36)            86.1847         estimate D2E/DX2                !
 ! A222  A(9,26,24)             99.0102         estimate D2E/DX2                !
 ! A223  A(9,26,27)             95.7674         estimate D2E/DX2                !
 ! A224  A(11,27,15)            83.511          estimate D2E/DX2                !
 ! A225  A(11,27,24)            91.9855         estimate D2E/DX2                !
 ! A226  A(11,27,26)            83.6426         estimate D2E/DX2                !
 ! A227  A(11,27,28)            83.2128         estimate D2E/DX2                !
 ! A228  A(11,27,30)           138.7608         estimate D2E/DX2                !
 ! A229  A(11,27,55)            80.8613         estimate D2E/DX2                !
 ! A230  A(11,27,57)           131.4905         estimate D2E/DX2                !
 ! A231  A(15,27,24)           129.6623         estimate D2E/DX2                !
 ! A232  A(15,27,26)            76.9777         estimate D2E/DX2                !
 ! A233  A(15,27,29)            82.7053         estimate D2E/DX2                !
 ! A234  A(15,27,30)           137.3631         estimate D2E/DX2                !
 ! A235  A(15,27,55)            91.067          estimate D2E/DX2                !
 ! A236  A(15,27,57)            87.0996         estimate D2E/DX2                !
 ! A237  A(24,27,29)            94.7717         estimate D2E/DX2                !
 ! A238  A(24,27,55)           137.7834         estimate D2E/DX2                !
 ! A239  A(24,27,57)           128.7099         estimate D2E/DX2                !
 ! A240  A(26,27,28)           102.6621         estimate D2E/DX2                !
 ! A241  A(26,27,29)            90.6842         estimate D2E/DX2                !
 ! A242  A(26,27,30)            98.6466         estimate D2E/DX2                !
 ! A243  A(26,27,55)           161.4071         estimate D2E/DX2                !
 ! A244  A(26,27,57)           139.7179         estimate D2E/DX2                !
 ! A245  A(28,27,29)           110.6098         estimate D2E/DX2                !
 ! A246  A(28,27,55)            85.6825         estimate D2E/DX2                !
 ! A247  A(28,27,57)           100.878          estimate D2E/DX2                !
 ! A248  A(29,27,55)           102.009          estimate D2E/DX2                !
 ! A249  A(30,27,55)            99.7724         estimate D2E/DX2                !
 ! A250  A(30,27,57)            68.9125         estimate D2E/DX2                !
 ! A251  A(30,29,57)            83.66           estimate D2E/DX2                !
 ! A252  A(24,30,29)           101.8756         estimate D2E/DX2                !
 ! A253  A(24,30,31)           141.8187         estimate D2E/DX2                !
 ! A254  A(24,30,34)            93.062          estimate D2E/DX2                !
 ! A255  A(27,30,31)           101.9777         estimate D2E/DX2                !
 ! A256  A(27,30,32)            97.4219         estimate D2E/DX2                !
 ! A257  A(27,30,33)           119.6611         estimate D2E/DX2                !
 ! A258  A(27,30,34)           150.7835         estimate D2E/DX2                !
 ! A259  A(28,30,29)           117.1502         estimate D2E/DX2                !
 ! A260  A(28,30,31)            87.946          estimate D2E/DX2                !
 ! A261  A(28,30,32)           110.219          estimate D2E/DX2                !
 ! A262  A(28,30,33)            86.7516         estimate D2E/DX2                !
 ! A263  A(28,30,34)            94.6106         estimate D2E/DX2                !
 ! A264  A(29,30,31)           101.2593         estimate D2E/DX2                !
 ! A265  A(29,30,32)            80.8023         estimate D2E/DX2                !
 ! A266  A(29,30,33)           129.0277         estimate D2E/DX2                !
 ! A267  A(29,30,34)           147.9727         estimate D2E/DX2                !
 ! A268  A(31,30,32)           158.6649         estimate D2E/DX2                !
 ! A269  A(31,30,33)           125.3389         estimate D2E/DX2                !
 ! A270  A(31,30,34)            82.8551         estimate D2E/DX2                !
 ! A271  A(32,30,34)            84.5501         estimate D2E/DX2                !
 ! A272  A(30,31,58)           107.1818         estimate D2E/DX2                !
 ! A273  A(24,33,34)           107.8651         estimate D2E/DX2                !
 ! A274  A(24,33,59)           120.4097         estimate D2E/DX2                !
 ! A275  A(25,33,30)            99.7393         estimate D2E/DX2                !
 ! A276  A(25,33,32)           116.8342         estimate D2E/DX2                !
 ! A277  A(25,33,34)           107.208          estimate D2E/DX2                !
 ! A278  A(25,33,59)           100.4051         estimate D2E/DX2                !
 ! A279  A(30,33,59)           152.4698         estimate D2E/DX2                !
 ! A280  A(32,33,34)            98.8315         estimate D2E/DX2                !
 ! A281  A(32,33,59)           103.1137         estimate D2E/DX2                !
 ! A282  A(34,33,59)           131.5744         estimate D2E/DX2                !
 ! A283  A(13,36,25)            92.3076         estimate D2E/DX2                !
 ! A284  A(13,36,35)           135.1842         estimate D2E/DX2                !
 ! A285  A(17,36,25)            86.5698         estimate D2E/DX2                !
 ! A286  A(17,36,35)           146.9812         estimate D2E/DX2                !
 ! A287  A(17,36,37)           101.0102         estimate D2E/DX2                !
 ! A288  A(17,36,38)            71.0852         estimate D2E/DX2                !
 ! A289  A(25,36,35)           121.429          estimate D2E/DX2                !
 ! A290  A(25,36,37)            80.9305         estimate D2E/DX2                !
 ! A291  A(25,36,38)           145.0243         estimate D2E/DX2                !
 ! A292  A(35,36,37)           100.5388         estimate D2E/DX2                !
 ! A293  A(35,36,38)            89.6173         estimate D2E/DX2                !
 ! A294  A(37,36,38)            77.5307         estimate D2E/DX2                !
 ! A295  A(36,37,39)           100.7075         estimate D2E/DX2                !
 ! A296  A(36,38,39)           102.4478         estimate D2E/DX2                !
 ! A297  A(13,39,18)            74.1732         estimate D2E/DX2                !
 ! A298  A(13,39,40)           104.9224         estimate D2E/DX2                !
 ! A299  A(13,39,41)           150.1634         estimate D2E/DX2                !
 ! A300  A(16,39,37)           105.9161         estimate D2E/DX2                !
 ! A301  A(16,39,38)            74.3897         estimate D2E/DX2                !
 ! A302  A(16,39,40)           105.1857         estimate D2E/DX2                !
 ! A303  A(16,39,41)           111.6351         estimate D2E/DX2                !
 ! A304  A(18,39,37)            93.617          estimate D2E/DX2                !
 ! A305  A(18,39,38)           121.7085         estimate D2E/DX2                !
 ! A306  A(18,39,41)           121.9192         estimate D2E/DX2                !
 ! A307  A(37,39,38)            74.2703         estimate D2E/DX2                !
 ! A308  A(37,39,40)            80.9899         estimate D2E/DX2                !
 ! A309  A(37,39,41)           138.7695         estimate D2E/DX2                !
 ! A310  A(38,39,40)           153.8838         estimate D2E/DX2                !
 ! A311  A(38,39,41)            99.7531         estimate D2E/DX2                !
 ! A312  A(40,39,41)           104.3748         estimate D2E/DX2                !
 ! A313  A(19,42,20)            82.0373         estimate D2E/DX2                !
 ! A314  A(19,42,43)           135.8021         estimate D2E/DX2                !
 ! A315  A(19,42,44)            97.7134         estimate D2E/DX2                !
 ! A316  A(19,42,61)           110.0739         estimate D2E/DX2                !
 ! A317  A(20,42,43)            76.8568         estimate D2E/DX2                !
 ! A318  A(20,42,44)           141.3531         estimate D2E/DX2                !
 ! A319  A(20,42,61)           108.2247         estimate D2E/DX2                !
 ! A320  A(43,42,44)            76.969          estimate D2E/DX2                !
 ! A321  A(43,42,61)           113.276          estimate D2E/DX2                !
 ! A322  A(44,42,61)           108.0305         estimate D2E/DX2                !
 ! A323  A(6,43,42)             91.083          estimate D2E/DX2                !
 ! A324  A(42,43,45)            97.0989         estimate D2E/DX2                !
 ! A325  A(6,44,42)             93.2337         estimate D2E/DX2                !
 ! A326  A(42,44,45)            99.8197         estimate D2E/DX2                !
 ! A327  A(1,45,43)            116.5007         estimate D2E/DX2                !
 ! A328  A(1,45,44)             91.0873         estimate D2E/DX2                !
 ! A329  A(1,45,47)            126.6885         estimate D2E/DX2                !
 ! A330  A(3,45,43)             77.0691         estimate D2E/DX2                !
 ! A331  A(3,45,44)            114.339          estimate D2E/DX2                !
 ! A332  A(3,45,46)            108.4882         estimate D2E/DX2                !
 ! A333  A(3,45,47)            107.2639         estimate D2E/DX2                !
 ! A334  A(6,45,46)             97.0493         estimate D2E/DX2                !
 ! A335  A(6,45,47)            155.6602         estimate D2E/DX2                !
 ! A336  A(43,45,44)            73.6818         estimate D2E/DX2                !
 ! A337  A(43,45,46)           147.5626         estimate D2E/DX2                !
 ! A338  A(43,45,47)           102.631          estimate D2E/DX2                !
 ! A339  A(44,45,46)            75.1139         estimate D2E/DX2                !
 ! A340  A(44,45,47)           135.7566         estimate D2E/DX2                !
 ! A341  A(46,45,47)           105.7748         estimate D2E/DX2                !
 ! A342  A(45,46,48)           101.8335         estimate D2E/DX2                !
 ! A343  A(1,48,49)            109.2287         estimate D2E/DX2                !
 ! A344  A(1,48,50)            140.2413         estimate D2E/DX2                !
 ! A345  A(23,48,46)           107.7972         estimate D2E/DX2                !
 ! A346  A(23,48,49)           104.063          estimate D2E/DX2                !
 ! A347  A(23,48,50)           114.3849         estimate D2E/DX2                !
 ! A348  A(46,48,49)           104.294          estimate D2E/DX2                !
 ! A349  A(46,48,50)           114.7817         estimate D2E/DX2                !
 ! A350  A(49,48,50)           110.5206         estimate D2E/DX2                !
 ! A351  A(21,49,48)            82.1238         estimate D2E/DX2                !
 ! A352  A(12,51,22)            97.5701         estimate D2E/DX2                !
 ! A353  A(12,51,53)            95.0786         estimate D2E/DX2                !
 ! A354  A(12,51,60)           152.2536         estimate D2E/DX2                !
 ! A355  A(14,51,22)           103.6939         estimate D2E/DX2                !
 ! A356  A(14,51,52)           104.8337         estimate D2E/DX2                !
 ! A357  A(14,51,53)           112.2771         estimate D2E/DX2                !
 ! A358  A(14,51,60)           101.6151         estimate D2E/DX2                !
 ! A359  A(21,51,52)            84.9512         estimate D2E/DX2                !
 ! A360  A(21,51,53)           153.1641         estimate D2E/DX2                !
 ! A361  A(21,51,60)           119.6005         estimate D2E/DX2                !
 ! A362  A(22,51,52)            84.0957         estimate D2E/DX2                !
 ! A363  A(22,51,53)           142.2459         estimate D2E/DX2                !
 ! A364  A(22,51,60)            99.7821         estimate D2E/DX2                !
 ! A365  A(52,51,53)            76.1843         estimate D2E/DX2                !
 ! A366  A(52,51,60)           151.5297         estimate D2E/DX2                !
 ! A367  A(53,51,60)            84.2409         estimate D2E/DX2                !
 ! A368  A(51,52,54)            80.0284         estimate D2E/DX2                !
 ! A369  A(51,53,54)            83.3006         estimate D2E/DX2                !
 ! A370  A(12,54,53)           112.7055         estimate D2E/DX2                !
 ! A371  A(12,54,55)           103.4969         estimate D2E/DX2                !
 ! A372  A(15,54,52)           115.1989         estimate D2E/DX2                !
 ! A373  A(15,54,53)           119.7277         estimate D2E/DX2                !
 ! A374  A(15,54,55)           102.2027         estimate D2E/DX2                !
 ! A375  A(52,54,53)            86.8729         estimate D2E/DX2                !
 ! A376  A(52,54,55)            90.631          estimate D2E/DX2                !
 ! A377  A(53,54,55)           134.6019         estimate D2E/DX2                !
 ! A378  A(27,55,54)            83.313          estimate D2E/DX2                !
 ! A379  A(54,55,57)            84.9525         estimate D2E/DX2                !
 ! A380  A(27,57,56)           111.6029         estimate D2E/DX2                !
 ! A381  A(27,57,58)           134.2173         estimate D2E/DX2                !
 ! A382  A(29,57,55)           112.6175         estimate D2E/DX2                !
 ! A383  A(29,57,56)            98.2722         estimate D2E/DX2                !
 ! A384  A(29,57,58)           104.259          estimate D2E/DX2                !
 ! A385  A(55,57,56)           102.5684         estimate D2E/DX2                !
 ! A386  A(55,57,58)           124.0393         estimate D2E/DX2                !
 ! A387  A(56,57,58)           112.2694         estimate D2E/DX2                !
 ! A388  A(31,58,57)            77.4369         estimate D2E/DX2                !
 ! A389  L(2,1,46,3,-1)        187.0444         estimate D2E/DX2                !
 ! A390  L(3,1,5,2,-1)         166.8275         estimate D2E/DX2                !
 ! A391  L(8,6,44,1,-1)        191.7059         estimate D2E/DX2                !
 ! A392  L(2,12,52,5,-1)       170.262          estimate D2E/DX2                !
 ! A393  L(5,12,15,2,-1)       169.0677         estimate D2E/DX2                !
 ! A394  L(17,24,28,10,-1)     169.9867         estimate D2E/DX2                !
 ! A395  L(11,27,29,15,-1)     166.2163         estimate D2E/DX2                !
 ! A396  L(15,27,28,11,-1)     166.7237         estimate D2E/DX2                !
 ! A397  L(2,1,46,3,-2)        186.328          estimate D2E/DX2                !
 ! A398  L(3,1,5,2,-2)         182.5314         estimate D2E/DX2                !
 ! A399  L(8,6,44,1,-2)        183.1541         estimate D2E/DX2                !
 ! A400  L(2,12,52,5,-2)       178.7318         estimate D2E/DX2                !
 ! A401  L(5,12,15,2,-2)       190.0172         estimate D2E/DX2                !
 ! A402  L(17,24,28,10,-2)     173.6215         estimate D2E/DX2                !
 ! A403  L(11,27,29,15,-2)     182.6482         estimate D2E/DX2                !
 ! A404  L(15,27,28,11,-2)     181.168          estimate D2E/DX2                !
 ! D1    D(3,1,2,12)          -179.5318         estimate D2E/DX2                !
 ! D2    D(4,1,2,12)           -74.5681         estimate D2E/DX2                !
 ! D3    D(5,1,2,12)            -2.0632         estimate D2E/DX2                !
 ! D4    D(6,1,2,12)          -126.0373         estimate D2E/DX2                !
 ! D5    D(23,1,2,12)           87.3056         estimate D2E/DX2                !
 ! D6    D(45,1,2,12)         -176.3846         estimate D2E/DX2                !
 ! D7    D(48,1,2,12)           76.2059         estimate D2E/DX2                !
 ! D8    D(2,1,5,12)             2.2757         estimate D2E/DX2                !
 ! D9    D(2,1,5,21)            76.2961         estimate D2E/DX2                !
 ! D10   D(4,1,5,12)            99.7208         estimate D2E/DX2                !
 ! D11   D(4,1,5,21)           173.7413         estimate D2E/DX2                !
 ! D12   D(6,1,5,12)            94.5319         estimate D2E/DX2                !
 ! D13   D(6,1,5,21)           168.5523         estimate D2E/DX2                !
 ! D14   D(9,1,5,12)            49.4125         estimate D2E/DX2                !
 ! D15   D(9,1,5,21)           123.433          estimate D2E/DX2                !
 ! D16   D(23,1,5,12)          -76.2254         estimate D2E/DX2                !
 ! D17   D(23,1,5,21)           -2.2049         estimate D2E/DX2                !
 ! D18   D(45,1,5,12)          175.7091         estimate D2E/DX2                !
 ! D19   D(45,1,5,21)         -110.2705         estimate D2E/DX2                !
 ! D20   D(46,1,5,12)         -171.3453         estimate D2E/DX2                !
 ! D21   D(46,1,5,21)          -97.3249         estimate D2E/DX2                !
 ! D22   D(48,1,5,12)         -122.8851         estimate D2E/DX2                !
 ! D23   D(48,1,5,21)          -48.8646         estimate D2E/DX2                !
 ! D24   D(2,1,6,7)             85.2603         estimate D2E/DX2                !
 ! D25   D(2,1,6,8)             -4.7164         estimate D2E/DX2                !
 ! D26   D(2,1,6,43)          -120.4074         estimate D2E/DX2                !
 ! D27   D(2,1,6,44)           172.1295         estimate D2E/DX2                !
 ! D28   D(5,1,6,7)             -3.1084         estimate D2E/DX2                !
 ! D29   D(5,1,6,8)            -93.0851         estimate D2E/DX2                !
 ! D30   D(5,1,6,43)           151.2239         estimate D2E/DX2                !
 ! D31   D(5,1,6,44)            83.7607         estimate D2E/DX2                !
 ! D32   D(23,1,6,7)           160.16           estimate D2E/DX2                !
 ! D33   D(23,1,6,8)            70.1833         estimate D2E/DX2                !
 ! D34   D(23,1,6,43)          -45.5077         estimate D2E/DX2                !
 ! D35   D(23,1,6,44)         -112.9709         estimate D2E/DX2                !
 ! D36   D(46,1,6,7)           -92.635          estimate D2E/DX2                !
 ! D37   D(46,1,6,8)           177.3883         estimate D2E/DX2                !
 ! D38   D(46,1,6,43)           61.6974         estimate D2E/DX2                !
 ! D39   D(46,1,6,44)           -5.7658         estimate D2E/DX2                !
 ! D40   D(48,1,6,7)          -121.8698         estimate D2E/DX2                !
 ! D41   D(48,1,6,8)           148.1535         estimate D2E/DX2                !
 ! D42   D(48,1,6,43)           32.4625         estimate D2E/DX2                !
 ! D43   D(48,1,6,44)          -35.0007         estimate D2E/DX2                !
 ! D44   D(3,1,9,8)            -15.428          estimate D2E/DX2                !
 ! D45   D(3,1,9,10)           -93.4422         estimate D2E/DX2                !
 ! D46   D(3,1,9,11)           172.5997         estimate D2E/DX2                !
 ! D47   D(3,1,9,26)            80.6428         estimate D2E/DX2                !
 ! D48   D(5,1,9,8)            172.4901         estimate D2E/DX2                !
 ! D49   D(5,1,9,10)            94.4759         estimate D2E/DX2                !
 ! D50   D(5,1,9,11)             0.5178         estimate D2E/DX2                !
 ! D51   D(5,1,9,26)           -91.4392         estimate D2E/DX2                !
 ! D52   D(23,1,9,8)          -103.7892         estimate D2E/DX2                !
 ! D53   D(23,1,9,10)          178.1967         estimate D2E/DX2                !
 ! D54   D(23,1,9,11)           84.2386         estimate D2E/DX2                !
 ! D55   D(23,1,9,26)           -7.7184         estimate D2E/DX2                !
 ! D56   D(45,1,9,8)            27.8159         estimate D2E/DX2                !
 ! D57   D(45,1,9,10)          -50.1982         estimate D2E/DX2                !
 ! D58   D(45,1,9,11)         -144.1563         estimate D2E/DX2                !
 ! D59   D(45,1,9,26)          123.8867         estimate D2E/DX2                !
 ! D60   D(46,1,9,8)            94.9969         estimate D2E/DX2                !
 ! D61   D(46,1,9,10)           16.9827         estimate D2E/DX2                !
 ! D62   D(46,1,9,11)          -76.9754         estimate D2E/DX2                !
 ! D63   D(46,1,9,26)         -168.9323         estimate D2E/DX2                !
 ! D64   D(48,1,9,8)          -159.0563         estimate D2E/DX2                !
 ! D65   D(48,1,9,10)          122.9295         estimate D2E/DX2                !
 ! D66   D(48,1,9,11)           28.9714         estimate D2E/DX2                !
 ! D67   D(48,1,9,26)          -62.9856         estimate D2E/DX2                !
 ! D68   D(2,1,23,21)          -84.7229         estimate D2E/DX2                !
 ! D69   D(3,1,23,21)         -164.6048         estimate D2E/DX2                !
 ! D70   D(4,1,23,21)          -10.1787         estimate D2E/DX2                !
 ! D71   D(5,1,23,21)            1.9818         estimate D2E/DX2                !
 ! D72   D(6,1,23,21)         -164.2225         estimate D2E/DX2                !
 ! D73   D(9,1,23,21)          -79.0398         estimate D2E/DX2                !
 ! D74   D(45,1,23,21)         143.7184         estimate D2E/DX2                !
 ! D75   D(46,1,23,21)          88.4967         estimate D2E/DX2                !
 ! D76   D(2,1,45,43)           43.6209         estimate D2E/DX2                !
 ! D77   D(2,1,45,44)          115.8896         estimate D2E/DX2                !
 ! D78   D(2,1,45,47)          -88.9262         estimate D2E/DX2                !
 ! D79   D(4,1,45,43)          -58.886          estimate D2E/DX2                !
 ! D80   D(4,1,45,44)           13.3827         estimate D2E/DX2                !
 ! D81   D(4,1,45,47)          168.5669         estimate D2E/DX2                !
 ! D82   D(5,1,45,43)         -127.4478         estimate D2E/DX2                !
 ! D83   D(5,1,45,44)          -55.1791         estimate D2E/DX2                !
 ! D84   D(5,1,45,47)          100.0051         estimate D2E/DX2                !
 ! D85   D(9,1,45,43)          -11.9991         estimate D2E/DX2                !
 ! D86   D(9,1,45,44)           60.2696         estimate D2E/DX2                !
 ! D87   D(9,1,45,47)         -144.5461         estimate D2E/DX2                !
 ! D88   D(23,1,45,43)         129.2575         estimate D2E/DX2                !
 ! D89   D(23,1,45,44)        -158.4738         estimate D2E/DX2                !
 ! D90   D(23,1,45,47)          -3.2896         estimate D2E/DX2                !
 ! D91   D(48,1,45,43)         169.9514         estimate D2E/DX2                !
 ! D92   D(48,1,45,44)        -117.7799         estimate D2E/DX2                !
 ! D93   D(48,1,45,47)          37.4043         estimate D2E/DX2                !
 ! D94   D(2,1,48,49)          -79.112          estimate D2E/DX2                !
 ! D95   D(2,1,48,50)          102.1758         estimate D2E/DX2                !
 ! D96   D(3,1,48,49)         -168.9449         estimate D2E/DX2                !
 ! D97   D(3,1,48,50)           12.3429         estimate D2E/DX2                !
 ! D98   D(4,1,48,49)           60.707          estimate D2E/DX2                !
 ! D99   D(4,1,48,50)         -118.0052         estimate D2E/DX2                !
 ! D100  D(5,1,48,49)            1.3422         estimate D2E/DX2                !
 ! D101  D(5,1,48,50)         -177.37           estimate D2E/DX2                !
 ! D102  D(6,1,48,49)          134.2454         estimate D2E/DX2                !
 ! D103  D(6,1,48,50)          -44.4668         estimate D2E/DX2                !
 ! D104  D(9,1,48,49)          -27.1875         estimate D2E/DX2                !
 ! D105  D(9,1,48,50)          154.1003         estimate D2E/DX2                !
 ! D106  D(45,1,48,49)         146.5977         estimate D2E/DX2                !
 ! D107  D(45,1,48,50)         -32.1145         estimate D2E/DX2                !
 ! D108  D(12,2,9,4)            79.7578         estimate D2E/DX2                !
 ! D109  D(12,2,9,6)           131.8519         estimate D2E/DX2                !
 ! D110  D(12,2,9,8)          -174.8717         estimate D2E/DX2                !
 ! D111  D(12,2,9,10)         -101.0174         estimate D2E/DX2                !
 ! D112  D(12,2,9,11)           -7.8099         estimate D2E/DX2                !
 ! D113  D(12,2,9,26)          -87.8307         estimate D2E/DX2                !
 ! D114  D(1,2,12,5)             2.2236         estimate D2E/DX2                !
 ! D115  D(1,2,12,11)           85.493          estimate D2E/DX2                !
 ! D116  D(1,2,12,14)         -101.3061         estimate D2E/DX2                !
 ! D117  D(1,2,12,15)          172.2064         estimate D2E/DX2                !
 ! D118  D(1,2,12,21)          -47.6042         estimate D2E/DX2                !
 ! D119  D(1,2,12,51)          -93.9529         estimate D2E/DX2                !
 ! D120  D(1,2,12,54)          170.7033         estimate D2E/DX2                !
 ! D121  D(9,2,12,5)           -75.8789         estimate D2E/DX2                !
 ! D122  D(9,2,12,11)            7.3905         estimate D2E/DX2                !
 ! D123  D(9,2,12,14)         -179.4086         estimate D2E/DX2                !
 ! D124  D(9,2,12,15)           94.1038         estimate D2E/DX2                !
 ! D125  D(9,2,12,21)         -125.7067         estimate D2E/DX2                !
 ! D126  D(9,2,12,51)         -172.0554         estimate D2E/DX2                !
 ! D127  D(9,2,12,54)           92.6008         estimate D2E/DX2                !
 ! D128  D(1,3,6,45)            78.1667         estimate D2E/DX2                !
 ! D129  D(1,4,6,9)             81.071          estimate D2E/DX2                !
 ! D130  D(1,5,12,2)            -2.142          estimate D2E/DX2                !
 ! D131  D(1,5,12,11)          -88.8984         estimate D2E/DX2                !
 ! D132  D(1,5,12,14)           75.2301         estimate D2E/DX2                !
 ! D133  D(1,5,12,51)          125.4187         estimate D2E/DX2                !
 ! D134  D(1,5,12,52)          179.1262         estimate D2E/DX2                !
 ! D135  D(1,5,12,54)         -170.0544         estimate D2E/DX2                !
 ! D136  D(1,5,21,14)          -83.7976         estimate D2E/DX2                !
 ! D137  D(1,5,21,22)          168.7582         estimate D2E/DX2                !
 ! D138  D(1,5,21,23)            2.2856         estimate D2E/DX2                !
 ! D139  D(1,5,21,49)           89.8707         estimate D2E/DX2                !
 ! D140  D(1,5,21,51)         -137.5819         estimate D2E/DX2                !
 ! D141  D(1,6,7,13)          -102.1243         estimate D2E/DX2                !
 ! D142  D(1,6,7,18)           168.0984         estimate D2E/DX2                !
 ! D143  D(3,6,7,13)            26.1908         estimate D2E/DX2                !
 ! D144  D(3,6,7,18)           -63.5865         estimate D2E/DX2                !
 ! D145  D(4,6,7,13)          -109.8605         estimate D2E/DX2                !
 ! D146  D(4,6,7,18)           160.3622         estimate D2E/DX2                !
 ! D147  D(8,6,7,13)            -3.4766         estimate D2E/DX2                !
 ! D148  D(8,6,7,18)           -93.2539         estimate D2E/DX2                !
 ! D149  D(9,6,7,13)           -57.259          estimate D2E/DX2                !
 ! D150  D(9,6,7,18)          -147.0363         estimate D2E/DX2                !
 ! D151  D(43,6,7,13)          102.2879         estimate D2E/DX2                !
 ! D152  D(43,6,7,18)           12.5106         estimate D2E/DX2                !
 ! D153  D(44,6,7,13)          171.6439         estimate D2E/DX2                !
 ! D154  D(44,6,7,18)           81.8666         estimate D2E/DX2                !
 ! D155  D(45,6,7,13)          151.5294         estimate D2E/DX2                !
 ! D156  D(45,6,7,18)           61.7521         estimate D2E/DX2                !
 ! D157  D(1,6,8,13)           145.0151         estimate D2E/DX2                !
 ! D158  D(3,6,8,13)          -166.294          estimate D2E/DX2                !
 ! D159  D(4,6,8,13)            88.2248         estimate D2E/DX2                !
 ! D160  D(7,6,8,13)             4.1157         estimate D2E/DX2                !
 ! D161  D(43,6,8,13)          -96.4298         estimate D2E/DX2                !
 ! D162  D(45,6,8,13)         -154.0698         estimate D2E/DX2                !
 ! D163  D(3,6,9,2)             10.7844         estimate D2E/DX2                !
 ! D164  D(3,6,9,10)          -156.3674         estimate D2E/DX2                !
 ! D165  D(3,6,9,11)           124.0462         estimate D2E/DX2                !
 ! D166  D(3,6,9,26)           -85.9111         estimate D2E/DX2                !
 ! D167  D(7,6,9,2)            171.342          estimate D2E/DX2                !
 ! D168  D(7,6,9,10)             4.1902         estimate D2E/DX2                !
 ! D169  D(7,6,9,11)           -75.3962         estimate D2E/DX2                !
 ! D170  D(7,6,9,26)            74.6465         estimate D2E/DX2                !
 ! D171  D(43,6,9,2)            46.0164         estimate D2E/DX2                !
 ! D172  D(43,6,9,10)         -121.1354         estimate D2E/DX2                !
 ! D173  D(43,6,9,11)          159.2782         estimate D2E/DX2                !
 ! D174  D(43,6,9,26)          -50.679          estimate D2E/DX2                !
 ! D175  D(44,6,9,2)           -98.3137         estimate D2E/DX2                !
 ! D176  D(44,6,9,10)           94.5345         estimate D2E/DX2                !
 ! D177  D(44,6,9,11)           14.9481         estimate D2E/DX2                !
 ! D178  D(44,6,9,26)          164.9908         estimate D2E/DX2                !
 ! D179  D(45,6,9,2)           -29.5695         estimate D2E/DX2                !
 ! D180  D(45,6,9,10)          163.2787         estimate D2E/DX2                !
 ! D181  D(45,6,9,11)           83.6923         estimate D2E/DX2                !
 ! D182  D(45,6,9,26)         -126.2649         estimate D2E/DX2                !
 ! D183  D(1,6,43,42)         -116.6645         estimate D2E/DX2                !
 ! D184  D(3,6,43,42)         -152.5227         estimate D2E/DX2                !
 ! D185  D(4,6,43,42)          -58.1615         estimate D2E/DX2                !
 ! D186  D(7,6,43,42)           47.3383         estimate D2E/DX2                !
 ! D187  D(8,6,43,42)          129.9869         estimate D2E/DX2                !
 ! D188  D(9,6,43,42)          170.4193         estimate D2E/DX2                !
 ! D189  D(44,6,43,42)         -37.4633         estimate D2E/DX2                !
 ! D190  D(1,6,44,42)          152.8575         estimate D2E/DX2                !
 ! D191  D(3,6,44,42)          103.2474         estimate D2E/DX2                !
 ! D192  D(4,6,44,42)         -152.6712         estimate D2E/DX2                !
 ! D193  D(7,6,44,42)          -65.3525         estimate D2E/DX2                !
 ! D194  D(9,6,44,42)         -156.193          estimate D2E/DX2                !
 ! D195  D(43,6,44,42)          38.8046         estimate D2E/DX2                !
 ! D196  D(4,6,45,46)           -2.3818         estimate D2E/DX2                !
 ! D197  D(4,6,45,47)          157.3373         estimate D2E/DX2                !
 ! D198  D(7,6,45,46)           92.6776         estimate D2E/DX2                !
 ! D199  D(7,6,45,47)         -107.6033         estimate D2E/DX2                !
 ! D200  D(8,6,45,46)         -123.0341         estimate D2E/DX2                !
 ! D201  D(8,6,45,47)           36.685          estimate D2E/DX2                !
 ! D202  D(9,6,45,46)          -52.5199         estimate D2E/DX2                !
 ! D203  D(9,6,45,47)          107.1992         estimate D2E/DX2                !
 ! D204  D(6,7,13,8)             3.5398         estimate D2E/DX2                !
 ! D205  D(6,7,13,10)           85.906          estimate D2E/DX2                !
 ! D206  D(6,7,13,16)          -81.982          estimate D2E/DX2                !
 ! D207  D(6,7,13,17)           72.6211         estimate D2E/DX2                !
 ! D208  D(6,7,13,36)          158.3205         estimate D2E/DX2                !
 ! D209  D(6,7,13,37)          174.1913         estimate D2E/DX2                !
 ! D210  D(6,7,13,38)         -127.5744         estimate D2E/DX2                !
 ! D211  D(6,7,13,39)         -131.5028         estimate D2E/DX2                !
 ! D212  D(18,7,13,8)          108.3956         estimate D2E/DX2                !
 ! D213  D(18,7,13,10)        -169.2382         estimate D2E/DX2                !
 ! D214  D(18,7,13,16)          22.8738         estimate D2E/DX2                !
 ! D215  D(18,7,13,17)         177.4769         estimate D2E/DX2                !
 ! D216  D(18,7,13,36)         -96.8237         estimate D2E/DX2                !
 ! D217  D(18,7,13,37)         -80.9528         estimate D2E/DX2                !
 ! D218  D(18,7,13,38)         -22.7186         estimate D2E/DX2                !
 ! D219  D(18,7,13,39)         -26.647          estimate D2E/DX2                !
 ! D220  D(6,7,18,16)           72.9454         estimate D2E/DX2                !
 ! D221  D(6,7,18,19)          -91.743          estimate D2E/DX2                !
 ! D222  D(6,7,18,20)          -24.7229         estimate D2E/DX2                !
 ! D223  D(6,7,18,39)          126.2565         estimate D2E/DX2                !
 ! D224  D(6,7,18,40)         -177.6116         estimate D2E/DX2                !
 ! D225  D(13,7,18,16)         -23.9687         estimate D2E/DX2                !
 ! D226  D(13,7,18,19)         171.3429         estimate D2E/DX2                !
 ! D227  D(13,7,18,20)        -121.637          estimate D2E/DX2                !
 ! D228  D(13,7,18,39)          29.3424         estimate D2E/DX2                !
 ! D229  D(13,7,18,40)          85.4743         estimate D2E/DX2                !
 ! D230  D(13,8,9,1)          -143.2825         estimate D2E/DX2                !
 ! D231  D(13,8,9,2)           161.3064         estimate D2E/DX2                !
 ! D232  D(13,8,9,4)           -90.5716         estimate D2E/DX2                !
 ! D233  D(13,8,9,10)           -2.6942         estimate D2E/DX2                !
 ! D234  D(13,8,9,11)           16.159          estimate D2E/DX2                !
 ! D235  D(13,8,9,26)           74.3177         estimate D2E/DX2                !
 ! D236  D(6,8,13,7)            -3.8343         estimate D2E/DX2                !
 ! D237  D(6,8,13,10)          -74.4522         estimate D2E/DX2                !
 ! D238  D(6,8,13,16)           76.7185         estimate D2E/DX2                !
 ! D239  D(6,8,13,17)         -154.8803         estimate D2E/DX2                !
 ! D240  D(6,8,13,36)         -149.3843         estimate D2E/DX2                !
 ! D241  D(6,8,13,37)          -27.1458         estimate D2E/DX2                !
 ! D242  D(6,8,13,38)          136.1759         estimate D2E/DX2                !
 ! D243  D(6,8,13,39)           65.6844         estimate D2E/DX2                !
 ! D244  D(9,8,13,7)            73.2967         estimate D2E/DX2                !
 ! D245  D(9,8,13,10)            2.6788         estimate D2E/DX2                !
 ! D246  D(9,8,13,16)          153.8494         estimate D2E/DX2                !
 ! D247  D(9,8,13,17)          -77.7493         estimate D2E/DX2                !
 ! D248  D(9,8,13,36)          -72.2534         estimate D2E/DX2                !
 ! D249  D(9,8,13,37)           49.9852         estimate D2E/DX2                !
 ! D250  D(9,8,13,38)         -146.6931         estimate D2E/DX2                !
 ! D251  D(9,8,13,39)          142.8153         estimate D2E/DX2                !
 ! D252  D(1,9,10,13)           88.07           estimate D2E/DX2                !
 ! D253  D(1,9,10,24)         -174.3611         estimate D2E/DX2                !
 ! D254  D(2,9,10,13)          -74.6715         estimate D2E/DX2                !
 ! D255  D(2,9,10,24)           22.8973         estimate D2E/DX2                !
 ! D256  D(4,9,10,13)          104.581          estimate D2E/DX2                !
 ! D257  D(4,9,10,24)         -157.8502         estimate D2E/DX2                !
 ! D258  D(6,9,10,13)           53.3487         estimate D2E/DX2                !
 ! D259  D(6,9,10,24)          150.9176         estimate D2E/DX2                !
 ! D260  D(8,9,10,13)            2.4164         estimate D2E/DX2                !
 ! D261  D(8,9,10,24)           99.9853         estimate D2E/DX2                !
 ! D262  D(11,9,10,13)        -170.3342         estimate D2E/DX2                !
 ! D263  D(11,9,10,24)         -72.7654         estimate D2E/DX2                !
 ! D264  D(26,9,10,13)         -88.2095         estimate D2E/DX2                !
 ! D265  D(26,9,10,24)           9.3594         estimate D2E/DX2                !
 ! D266  D(1,9,11,12)          -47.525          estimate D2E/DX2                !
 ! D267  D(1,9,11,27)         -141.2389         estimate D2E/DX2                !
 ! D268  D(2,9,11,12)            8.2524         estimate D2E/DX2                !
 ! D269  D(2,9,11,27)          -85.4614         estimate D2E/DX2                !
 ! D270  D(4,9,11,12)          -96.6086         estimate D2E/DX2                !
 ! D271  D(4,9,11,27)          169.6776         estimate D2E/DX2                !
 ! D272  D(6,9,11,12)         -104.8892         estimate D2E/DX2                !
 ! D273  D(6,9,11,27)          161.397          estimate D2E/DX2                !
 ! D274  D(8,9,11,12)          153.4359         estimate D2E/DX2                !
 ! D275  D(8,9,11,27)           59.7221         estimate D2E/DX2                !
 ! D276  D(10,9,11,12)         171.924          estimate D2E/DX2                !
 ! D277  D(10,9,11,27)          78.2102         estimate D2E/DX2                !
 ! D278  D(26,9,11,12)          94.0833         estimate D2E/DX2                !
 ! D279  D(26,9,11,27)           0.3694         estimate D2E/DX2                !
 ! D280  D(1,9,26,24)          174.2314         estimate D2E/DX2                !
 ! D281  D(1,9,26,27)           99.4927         estimate D2E/DX2                !
 ! D282  D(2,9,26,24)          174.1496         estimate D2E/DX2                !
 ! D283  D(2,9,26,27)           99.4109         estimate D2E/DX2                !
 ! D284  D(4,9,26,24)           37.0017         estimate D2E/DX2                !
 ! D285  D(4,9,26,27)          -37.737          estimate D2E/DX2                !
 ! D286  D(6,9,26,24)          -85.0254         estimate D2E/DX2                !
 ! D287  D(6,9,26,27)         -159.7641         estimate D2E/DX2                !
 ! D288  D(8,9,26,24)          -86.1843         estimate D2E/DX2                !
 ! D289  D(8,9,26,27)         -160.923          estimate D2E/DX2                !
 ! D290  D(10,9,26,24)          -9.5971         estimate D2E/DX2                !
 ! D291  D(10,9,26,27)         -84.3358         estimate D2E/DX2                !
 ! D292  D(11,9,26,24)          74.3627         estimate D2E/DX2                !
 ! D293  D(11,9,26,27)          -0.3761         estimate D2E/DX2                !
 ! D294  D(9,10,13,7)          -80.7783         estimate D2E/DX2                !
 ! D295  D(9,10,13,8)           -2.4735         estimate D2E/DX2                !
 ! D296  D(9,10,13,16)         -59.5835         estimate D2E/DX2                !
 ! D297  D(9,10,13,17)          92.3091         estimate D2E/DX2                !
 ! D298  D(9,10,13,36)         144.6211         estimate D2E/DX2                !
 ! D299  D(9,10,13,37)        -164.998          estimate D2E/DX2                !
 ! D300  D(9,10,13,38)         136.5228         estimate D2E/DX2                !
 ! D301  D(9,10,13,39)        -139.5759         estimate D2E/DX2                !
 ! D302  D(24,10,13,7)         179.0359         estimate D2E/DX2                !
 ! D303  D(24,10,13,8)        -102.6593         estimate D2E/DX2                !
 ! D304  D(24,10,13,16)       -159.7694         estimate D2E/DX2                !
 ! D305  D(24,10,13,17)         -7.8767         estimate D2E/DX2                !
 ! D306  D(24,10,13,36)         44.4353         estimate D2E/DX2                !
 ! D307  D(24,10,13,37)         94.8161         estimate D2E/DX2                !
 ! D308  D(24,10,13,38)         36.337          estimate D2E/DX2                !
 ! D309  D(24,10,13,39)        120.2382         estimate D2E/DX2                !
 ! D310  D(9,10,24,17)         -92.4047         estimate D2E/DX2                !
 ! D311  D(9,10,24,25)        -179.449          estimate D2E/DX2                !
 ! D312  D(9,10,24,26)         -10.078          estimate D2E/DX2                !
 ! D313  D(9,10,24,27)          41.5897         estimate D2E/DX2                !
 ! D314  D(9,10,24,28)          93.9738         estimate D2E/DX2                !
 ! D315  D(9,10,24,30)          79.9031         estimate D2E/DX2                !
 ! D316  D(9,10,24,32)         -66.7847         estimate D2E/DX2                !
 ! D317  D(9,10,24,33)        -168.7022         estimate D2E/DX2                !
 ! D318  D(13,10,24,17)          7.4642         estimate D2E/DX2                !
 ! D319  D(13,10,24,25)        -79.5802         estimate D2E/DX2                !
 ! D320  D(13,10,24,26)         89.7908         estimate D2E/DX2                !
 ! D321  D(13,10,24,27)        141.4585         estimate D2E/DX2                !
 ! D322  D(13,10,24,28)       -166.1573         estimate D2E/DX2                !
 ! D323  D(13,10,24,30)        179.7719         estimate D2E/DX2                !
 ! D324  D(13,10,24,32)         33.0842         estimate D2E/DX2                !
 ! D325  D(13,10,24,33)        -68.8334         estimate D2E/DX2                !
 ! D326  D(9,11,12,2)           -6.8818         estimate D2E/DX2                !
 ! D327  D(9,11,12,5)           80.6663         estimate D2E/DX2                !
 ! D328  D(9,11,12,14)         -30.742          estimate D2E/DX2                !
 ! D329  D(9,11,12,15)         -89.0087         estimate D2E/DX2                !
 ! D330  D(9,11,12,21)          75.8685         estimate D2E/DX2                !
 ! D331  D(9,11,12,51)         172.3349         estimate D2E/DX2                !
 ! D332  D(9,11,12,52)         163.5965         estimate D2E/DX2                !
 ! D333  D(9,11,12,54)        -141.5753         estimate D2E/DX2                !
 ! D334  D(27,11,12,2)          92.9197         estimate D2E/DX2                !
 ! D335  D(27,11,12,5)        -179.5322         estimate D2E/DX2                !
 ! D336  D(27,11,12,14)         69.0596         estimate D2E/DX2                !
 ! D337  D(27,11,12,15)         10.7929         estimate D2E/DX2                !
 ! D338  D(27,11,12,21)        175.67           estimate D2E/DX2                !
 ! D339  D(27,11,12,51)        -87.8635         estimate D2E/DX2                !
 ! D340  D(27,11,12,52)        -96.602          estimate D2E/DX2                !
 ! D341  D(27,11,12,54)        -41.7738         estimate D2E/DX2                !
 ! D342  D(9,11,27,15)          77.1542         estimate D2E/DX2                !
 ! D343  D(9,11,27,24)         -52.5497         estimate D2E/DX2                !
 ! D344  D(9,11,27,26)          -0.4002         estimate D2E/DX2                !
 ! D345  D(9,11,27,28)        -104.0139         estimate D2E/DX2                !
 ! D346  D(9,11,27,30)         -96.2765         estimate D2E/DX2                !
 ! D347  D(9,11,27,55)         169.2907         estimate D2E/DX2                !
 ! D348  D(9,11,27,57)         157.4487         estimate D2E/DX2                !
 ! D349  D(12,11,27,15)        -10.1415         estimate D2E/DX2                !
 ! D350  D(12,11,27,24)       -139.8454         estimate D2E/DX2                !
 ! D351  D(12,11,27,26)        -87.6959         estimate D2E/DX2                !
[...]
 8,0.00002141,0.00009343,-0.00005531,0.00000312,0.00001238,-0.00000047,
 -0.00004525,0.00008847,-0.00013291,0.00001187,0.00012531,-0.00005203,-
 0.00001924,-0.00011003,-0.00010058,0.00005247,0.00021011,-0.00007049,-
 0.00011345,0.00002662,0.00000288,-0.00007240,-0.00017045,0.00004943,-0
 .00017830,0.00012324,-0.00018517,0.00051715,0.00019582,-0.00007540,-0.
 00018626,0.07025801,-0.00036506,0.00000418,-0.00010853,0.00002075,0.00
 013664,0.00006308,0.00005808,-0.00007109,0.00004597,0.00004226,-0.0001
 0481,0.00011705,-0.00009947,0.00002054,-0.00006687,0.00010563,0.000447
 10,0.00000964,-0.00007597,0.00016453,-0.00004773,0.00026859,-0.0001071
 4,-0.00034144,0.00005614,-0.00042219,-0.00011905,-0.00113423,-0.000197
 57,0.00025963,-0.00030936,0.00000177,0.00008737,0.00003813,0.00002042,
 -0.00018163,0.00079388,-0.00051602,0.00081559,0.00003610,-0.00010317,0
 .00000656,0.00011276,-0.00017798,0.00009020,0.00009413,0.00011750,0.00
 040523,-0.00023822,-0.00026042,0.00210207,0.00013650,-0.00023431,0.000
 22544,0.00005232,0.00007355,-0.00009399,0.00006829,0.00003638,-0.00003
 737,0.00006969,-0.00004019,0.00029353,-0.00001099,0.00000833,-0.000039
 95,-0.00002298,0.00003087,-0.00001801,0.00205956,0.00181495,0.00172126
 ,-0.00497031,-0.01163609,0.00139476,-0.00101158,-0.00065103,0.00004736
 ,0.00092982,-0.00002361,0.00022053,0.00029188,0.00106274,-0.00024942,-
 0.00025036,0.00018228,0.00023991,0.00349905,-0.00260782,0.00129820,-0.
 00057415,-0.00035451,-0.00045050,0.00054532,0.00027824,0.00376651,0.06
 841947,-0.14602635,0.03304167,0.00860054,-0.00077249,-0.00627457,-0.00
 518986,0.00084267,-0.00091989,-0.00663416,-0.01211616,0.00593923,0.000
 44925,0.00080192,-0.00082957,-0.00057877,0.00060091,-0.00070630,0.0004
 5042,0.00028928,-0.00067569,0.00009433,0.00005480,-0.00028281,-0.00007
 267,-0.00009638,0.00015073,0.00008245,-0.00000804,0.00013530,0.0000044
 0,-0.00001176,0.00001161,-0.00005694,-0.00002098,-0.00011234,0.0000074
 8,-0.00012035,0.00034988,-0.00004042,-0.00000187,-0.00004820,0.0000288
 8,-0.00003968,-0.00007315,0.00020597,-0.00004519,-0.00009893,-0.000079
 58,0.00003686,-0.00000389,-0.00004707,-0.00000549,0.00010794,-0.000120
 70,0.00010810,-0.00009072,-0.00011759,0.00005307,0.00000837,0.00014380
 ,0.00007474,-0.00001022,-0.00028970,0.00013307,0.00003470,0.00000557,-
 0.00008462,0.00008929,0.00021176,-0.00005986,0.00024852,-0.00035994,0.
 00036355,-0.00047626,-0.00027825,0.00015045,0.00004693,-0.06510592,0.1
 6903932,0.00002404,-0.00000526,0.00001455,0.00002060,0.00003687,0.0000
 1261,0.00000078,0.00001631,-0.00002923,-0.00001775,-0.00001961,-0.0000
 2585,0.00001179,-0.00000747,0.00000197,0.00002592,0.00001221,-0.000007
 98,0.00007344,0.00008191,0.00007320,0.00020928,0.00020047,0.00000542,-
 0.00007330,-0.00024743,0.00006185,0.00006626,0.00020078,0.00004158,0.0
 0000305,-0.00000172,0.00004759,-0.00002783,0.00000275,0.00000274,-0.00
 064196,-0.00047394,-0.00085455,0.00000264,0.00001591,0.00000202,-0.000
 01791,0.00001401,-0.00000082,0.00003359,0.00000753,-0.00002789,0.00247
 690,0.00282785,-0.00335995,-0.00002920,0.00012219,0.00005903,0.0000096
 2,-0.00001786,-0.00000901,0.00002540,-0.00001232,-0.00005063,-0.000006
 49,0.00000881,-0.00004102,0.00000389,-0.00000252,0.00000421,0.00000482
 ,-0.00000256,-0.00000338,-0.00038874,0.00026914,0.00197037,-0.00099182
 ,-0.00002750,-0.00020720,-0.00012760,-0.00046586,-0.00032219,0.0003473
 4,0.00002882,0.00017859,-0.00028410,-0.00005252,0.00007236,-0.00021135
 ,-0.00017256,-0.00017132,0.00094935,0.00006436,0.00088578,-0.00026286,
 0.00020908,0.00014302,-0.00303472,0.00506581,-0.00109111,-0.00723555,0
 .03472630,-0.02294257,-0.00794624,-0.00120407,0.00506572,-0.00049733,0
 .00081498,0.00010177,0.00175116,-0.00453117,-0.00425558,0.00104439,0.0
 0380728,-0.00017135,-0.00015889,0.00029285,-0.00002896,-0.00045936,-0.
 00040978,0.00039467,-0.00000733,0.00003487,-0.00000133,0.00005280,0.00
 002892,-0.00005840,0.00001057,-0.00000414,0.00001224,0.00000395,-0.000
 01806,0.00001608,-0.00000689,-0.00000109,0.00001240,-0.00000891,0.0000
 0009,-0.00000473,-0.00000066,-0.00000197,-0.00000255,0.00000095,0.0000
 0084,0.00000365,-0.00002298,0.00000764,0.00000727,0.00000827,-0.000003
 59,0.00000053,0.00000413,0.00000159,-0.00001078,0.00001981,-0.00000970
 ,0.00001907,0.00002478,-0.00001512,-0.00000847,-0.00002111,-0.00001681
 ,0.00001408,0.00003245,0.00000028,-0.00002115,0.00002171,-0.00004341,-
 0.00005393,-0.00004938,0.00001846,-0.00007792,-0.00016265,-0.00008857,
 0.00027104,0.00013228,0.00003279,-0.00013449,0.01530024,-0.04110024,0.
 02449099,-0.00029067,-0.00037301,-0.00070865,-0.00032845,0.00011231,-0
 .00027917,-0.00005797,0.00010837,0.00011046,0.00011738,-0.00001113,0.0
 0009907,-0.00075349,0.00070175,-0.00000781,-0.00007728,0.00014066,-0.0
 0001118,0.00000008,-0.00001734,-0.00000540,-0.00001519,-0.00003716,-0.
 00008270,0.00004994,0.00005867,0.00024470,-0.00001732,0.00000279,-0.00
 001596,-0.00015139,0.00006456,-0.00060121,-0.00054251,0.00182930,-0.00
 416819,-0.00001172,-0.00001646,-0.00001051,-0.00473540,0.00299727,-0.0
 0288401,0.00027038,-0.00001578,-0.00046387,0.00000475,0.00000159,0.000
 01238,0.00000935,0.00001546,0.00000282,0.00010053,-0.00004207,-0.00001
 079,0.00001352,-0.00000678,-0.00005352,-0.00002478,0.00001570,0.000043
 51,0.00247663,-0.00424610,-0.00089474,-0.01227479,-0.00558685,-0.00226
 427,-0.00006098,0.00043450,0.00012113,-0.00002671,-0.00007443,0.000084
 70,-0.00005043,0.00000829,-0.00002880,-0.00000468,0.00004377,-0.000021
 60,-0.00034268,-0.00016970,-0.00028747,-0.00005058,0.00002746,0.000062
 40,0.00004025,0.00013389,0.00003483,0.00016114,-0.00004691,0.00009911,
 -0.00001826,-0.00002724,-0.00002403,0.00003204,0.00002411,-0.00000230,
 0.00005660,-0.00009626,-0.00000229,-0.00000806,0.00002175,-0.00003354,
 -0.00005265,0.00006662,-0.00007683,0.00005196,-0.00010750,0.00008689,-
 0.00000979,0.00002116,0.00000205,-0.00003358,0.00003647,-0.00000108,0.
 00012107,-0.00012619,0.00002829,-0.00001470,0.00000212,-0.00004434,-0.
 00009663,0.00011485,-0.00003691,0.00014687,0.00008546,0.00002762,-0.00
 002675,-0.00001670,-0.00002643,-0.00002410,-0.00000096,-0.00002783,0.0
 0001599,0.00003556,-0.00005572,0.00008579,0.00005517,-0.00002140,-0.00
 004631,-0.00001587,0.00015020,0.00015324,-0.00026367,-0.00033538,-0.00
 018850,0.00021800,-0.00010557,-0.00015009,-0.00000361,0.00032963,-0.09
 807622,0.01031827,-0.09292887,-0.00078897,-0.00339831,-0.00913205,0.00
 286267,-0.00268551,0.00309356,-0.00558351,0.00267800,-0.00080001,0.000
 01819,0.00002913,0.00039865,-0.00001716,-0.00001091,-0.00022970,-0.000
 09597,0.00013075,-0.00014930,0.00018689,0.00005949,-0.00010650,-0.0000
 2963,0.00008117,-0.00000839,0.11821856,0.00002086,-0.00005088,-0.00012
 310,0.00025604,-0.00008720,0.00030974,0.00000043,-0.00001659,0.0000364
 6,0.00000968,-0.00001649,0.00004870,-0.00029649,0.00016217,-0.00020222
 ,0.00004004,0.00006705,-0.00004948,0.00000208,-0.00000301,-0.00000529,
 -0.00001108,-0.00003700,-0.00000342,0.00005924,-0.00021691,-0.00001940
 ,0.00001223,0.00003330,-0.00001083,0.00015635,-0.00019221,0.00012053,-
 0.00262199,0.00195891,-0.00268331,-0.00001782,-0.00003186,-0.00004366,
 0.00370366,0.00152289,0.00497371,-0.00007176,-0.00015284,-0.00022603,0
 .00001000,0.00001083,0.00000505,0.00003317,-0.00000568,0.00000821,-0.0
 0000075,-0.00000614,0.00000027,0.00000147,0.00000061,-0.00000555,-0.00
 000029,0.00000333,-0.00000286,0.00225983,-0.00226208,-0.00031387,-0.00
 929925,0.00017143,-0.00486355,-0.00024897,0.00030539,0.00043789,-0.000
 02115,0.00000147,0.00000879,0.00004344,0.00000431,0.00000984,0.0000466
 6,0.00000713,-0.00003831,-0.00001053,0.00002464,0.00006058,0.00001381,
 -0.00002311,0.00001480,0.00001569,-0.00000970,-0.00003464,0.00003782,0
 .00007006,0.00000626,0.00002181,0.00000110,0.00000111,0.00002507,-0.00
 000534,-0.00001978,-0.00007835,0.00004972,-0.00000032,0.00002261,-0.00
 001305,-0.00000165,-0.00000490,0.00001287,-0.00001347,-0.00007250,-0.0
 0003064,0.00003669,0.00000544,0.00000481,-0.00000014,0.00001584,0.0000
 3594,0.00000760,0.00000056,-0.00000091,-0.00001095,-0.00000443,-0.0000
 0022,-0.00000396,-0.00000299,0.00000181,0.00000079,0.00000143,0.000002
 03,0.00000280,0.00001330,0.00000547,-0.00001071,-0.00000184,-0.0000029
 6,-0.00001265,-0.00001698,-0.00001822,0.00005242,0.00002720,0.00004619
 ,-0.00000353,0.00000610,-0.00000810,-0.00000818,-0.00021838,-0.0001178
 2,0.00002349,-0.00013638,0.00020222,-0.00009833,0.00001814,0.00001529,
 -0.00001846,0.01112137,-0.01900603,0.00244639,0.00043790,0.00186059,0.
 00444475,-0.00141770,-0.00023706,0.00246061,-0.00062081,0.00165894,-0.
 00160272,0.00005113,-0.00013237,0.00037926,-0.00003778,-0.00006629,0.0
 0017400,-0.00003026,0.00010673,-0.00018874,-0.00005160,-0.00001104,0.0
 0000220,0.00002254,-0.00002229,0.00000181,-0.00321416,0.01443860,-0.00
 027976,0.00017428,-0.00010518,-0.00012334,0.00006608,0.00016759,0.0000
 8345,-0.00002330,-0.00001799,0.00005589,-0.00005428,0.00009223,0.00051
 531,0.00003372,0.00041413,0.00000360,0.00015876,-0.00005142,-0.0000001
 9,-0.00002347,-0.00000820,-0.00003649,-0.00001087,-0.00003283,0.000290
 99,-0.00017496,0.00018871,-0.00002130,0.00002883,-0.00004969,-0.000003
 21,0.00002770,-0.00004580,-0.00261361,0.00209806,-0.00371031,-0.000009
 45,-0.00007118,-0.00004277,-0.00240984,0.00219731,0.00143151,0.0001240
 3,0.00014938,0.00009559,0.00002106,0.00001350,0.00001709,0.00004549,0.
 00002072,0.00002759,0.00009789,-0.00004801,-0.00001824,0.00001393,-0.0
 0001074,-0.00005444,-0.00002807,0.00002549,0.00004373,-0.00463378,0.00
 100276,0.00212004,-0.00122619,-0.00400757,0.00048482,0.00024037,0.0008
 3727,0.00029572,-0.00005835,-0.00001783,0.00001944,-0.00001016,0.00000
 585,-0.00002342,0.00001618,0.00006285,0.00000755,-0.00015471,-0.000221
 65,-0.00034572,-0.00004378,0.00002551,0.00009801,0.00005143,0.00002415
 ,-0.00004762,0.00002834,0.00006116,0.00006534,-0.00003516,-0.00003860,
 0.00000535,0.00003311,0.00001442,-0.00000515,-0.00003743,-0.00004523,0
 .00002708,0.00004303,-0.00001861,-0.00004212,-0.00006168,0.00008766,-0
 .00009638,-0.00000199,-0.00014836,0.00011957,-0.00000342,0.00003307,0.
 00000348,-0.00002746,0.00006399,0.00000268,0.00012614,-0.00013577,0.00
 002423,-0.00002041,-0.00000079,-0.00004826,-0.00010581,0.00012508,-0.0
 0003951,0.00015504,0.00009519,0.00001218,-0.00002962,-0.00002494,-0.00
 003251,-0.00003663,0.00000670,-0.00003449,0.00004380,-0.00011621,0.000
 03770,-0.00002476,-0.00000807,-0.00004831,-0.00003895,0.00000130,0.000
 08017,0.00100795,-0.00008632,-0.00062323,0.00011303,-0.00037179,-0.000
 00593,-0.00019097,-0.00004917,0.00046343,-0.10315860,0.00131637,-0.130
 26190,-0.00115386,-0.00153056,-0.00222326,0.00167518,0.00191242,-0.014
 47095,0.00009423,0.00164583,-0.00062994,-0.00017004,0.00013688,0.00026
 619,0.00003396,-0.00005129,-0.00010003,-0.00004141,0.00028951,-0.00010
 413,0.00017207,0.00000600,-0.00008203,-0.00000751,0.00006976,-0.000009
 01,0.11183611,-0.00545855,0.14671338,0.00007200,0.00031922,-0.00048922
 ,-0.00004942,-0.00002959,-0.00001055,0.00050211,0.00013374,0.00011071,
 0.00000915,-0.00003325,0.00016716,-0.00003256,-0.00000569,0.00000096,-
 0.00074287,0.00071632,-0.00116321,0.00082982,-0.00006954,-0.00014087,0
 .00017071,0.00000850,0.00015423,0.00014626,-0.00005454,0.00006573,-0.0
 0009975,-0.00005117,-0.00003605,-0.00005654,0.00004354,-0.00001238,-0.
 00007654,-0.00001031,-0.00003188,0.00008075,0.00048136,0.00029375,0.00
 004752,-0.00002441,0.00000654,0.00001400,0.00000127,-0.00000065,0.0002
 8189,-0.00039109,-0.00023638,-0.00014239,-0.00006388,0.00003868,-0.000
 33367,-0.00129170,0.00265808,0.00456361,0.00313658,0.00776139,0.002060
 91,-0.00180692,0.00059684,0.00015125,-0.00009010,0.00011768,-0.0000634
 8,0.00006352,-0.00001690,-0.00002920,-0.00000948,0.00004907,0.00011762
 ,0.00001419,-0.00009970,-0.00006505,-0.00000619,-0.00000369,-0.0000476
 3,-0.00004966,0.00006615,-0.00002116,0.00006129,-0.00005160,0.00002141
 ,0.00000301,-0.00000978,-0.00000739,-0.00000361,0.00001336,-0.00002780
 ,-0.00004079,-0.00001172,0.00002633,0.00002602,0.00001470,-0.00004303,
 -0.00001489,0.00002511,0.00011254,-0.00001421,-0.00004250,-0.00008576,
 0.00004370,0.00006198,0.00008309,-0.00014694,0.00014975,0.00013114,0.0
 0025452,-0.00023211,-0.00002580,-0.00009465,0.00000552,0.00004128,-0.0
 0015656,-0.00004783,-0.00044478,0.00016451,-0.00028007,0.00012884,0.00
 037680,-0.00012294,0.00023274,-0.00022108,0.00006311,-0.16280380,-0.09
 068803,0.09581438,-0.00162850,-0.00136513,-0.00276287,-0.00696829,0.00
 016415,0.00055723,-0.00308815,-0.00053015,0.00180586,0.00000404,0.0002
 1086,-0.00014087,0.00097313,-0.00006359,-0.00143953,-0.00005290,-0.000
 11209,0.00048671,-0.00010085,0.00007741,0.00000850,0.00019341,0.000028
 04,-0.00031060,0.00009021,0.00005635,0.00013144,-0.00003844,0.00000151
 ,0.00000592,-0.00005010,0.00004207,-0.00005862,0.00006733,-0.00007597,
 0.00007250,-0.00000512,0.00002280,-0.00000194,-0.00004261,0.00001311,-
 0.00007147,0.00010290,-0.00002247,0.00003397,-0.00009437,-0.00001359,0
 .00003042,-0.00004496,-0.00003014,0.00000508,-0.00011591,-0.00000379,-
 0.00012370,0.16617282,0.00013489,0.00018917,-0.00017536,-0.00004466,-0
 .00001869,-0.00001256,0.00027245,0.00010151,0.00008547,-0.00005596,-0.
 00007126,0.00011744,0.00000344,-0.00001115,0.00000272,-0.00064335,-0.0
 0039926,-0.00116711,0.00036496,-0.00022358,-0.00010809,0.00017473,0.00
 016058,-0.00016181,-0.00008185,0.00023805,0.00021346,0.00005478,0.0000
 4417,-0.00002346,-0.00004977,-0.00003887,0.00000273,-0.00004748,-0.000
 01556,-0.00002902,0.00020670,0.00034191,-0.00002453,0.00002618,-0.0000
 1447,0.00000530,0.00000730,0.00000201,-0.00000056,0.00035781,0.0000839
 8,-0.00012415,-0.00010637,-0.00003571,0.00000456,-0.00166957,-0.000564
 05,0.00147762,0.00509686,0.00261939,0.00585328,-0.00152351,-0.00026767
 ,0.00130712,0.00007497,-0.00005396,0.00004827,-0.00003052,0.00003352,-
 0.00000705,-0.00001259,-0.00000765,0.00002501,0.00004329,-0.00002761,-
 0.00000868,-0.00003986,-0.00000419,0.00000103,0.00001437,-0.00005208,0
 .00003562,-0.00003307,0.00005117,-0.00003470,0.00001378,0.00000991,-0.
 00000907,-0.00000666,-0.00000106,0.00000511,-0.00000737,-0.00002277,-0
 .00000569,0.00001517,0.00001319,0.00000814,-0.00001792,-0.00000168,0.0
 0000893,0.00008164,-0.00001342,-0.00002591,-0.00005072,0.00002536,0.00
 003588,0.00003685,-0.00008423,0.00010072,0.00009341,0.00013106,-0.0001
 5756,0.00000591,-0.00004431,-0.00002102,0.00001494,-0.00012366,0.00000
 690,-0.00027601,0.00019348,-0.00003082,-0.00000839,0.00016297,-0.00026
 600,0.00019438,-0.00017911,0.00001962,-0.09166187,-0.06879712,0.057771
 37,-0.00224330,-0.00146801,0.00049415,0.00109521,0.00403624,-0.0030388
 2,-0.00121998,-0.00034483,0.00075162,-0.00008524,0.00001182,-0.0002884
 1,0.00055122,0.00006968,-0.00071189,-0.00015941,-0.00000983,0.00024247
 ,-0.00004753,0.00004511,0.00001720,0.00014634,0.00001570,-0.00019033,0
 .00004816,0.00002788,0.00007623,-0.00001921,0.00000180,0.00000585,-0.0
 0002573,0.00002454,-0.00003432,0.00003556,-0.00004111,0.00004082,0.000
 00045,0.00001043,-0.00000061,-0.00002328,0.00000745,-0.00003880,0.0000
 5324,-0.00001271,0.00001607,-0.00005174,-0.00000728,0.00001743,-0.0000
 3308,-0.00000932,0.00000331,-0.00006382,-0.00000181,-0.00006944,0.0911
 2081,0.06431593,-0.00010928,-0.00036804,0.00025779,0.00003041,0.000042
 69,-0.00001874,-0.00029972,-0.00010608,0.00004624,-0.00016729,0.000177
 31,0.00002175,0.00003752,0.00001220,0.00000768,-0.00040373,-0.00013256
 ,0.00119837,-0.00024122,-0.00001296,0.00012792,-0.00000398,-0.00022798
 ,0.00002598,0.00006525,-0.00000838,-0.00021109,0.00000580,0.00003897,-
 0.00002341,0.00004392,-0.00000636,-0.00000453,0.00004350,0.00001249,0.
 00003092,-0.00005130,-0.00012821,0.00007068,-0.00003040,0.00002286,-0.
 00000949,-0.00000791,0.00000251,-0.00000366,-0.00009626,0.00023760,0.0
 0010349,0.00006683,-0.00001630,-0.00001148,0.00002956,-0.00077174,-0.0
 0061384,0.00467546,0.00317843,-0.00642864,-0.00069810,0.00174767,-0.00
 031553,-0.00011276,0.00007563,-0.00008909,0.00004702,-0.00004575,0.000
 01661,0.00002755,-0.00001491,-0.00001974,-0.00003146,-0.00002342,0.000
 04029,0.00005085,0.00000523,0.00000950,0.00000028,0.00001837,-0.000047
 47,0.00000979,-0.00005698,0.00005052,-0.00002129,-0.00000178,0.0000091
 5,0.00000925,0.00000428,-0.00001070,0.00001684,0.00002844,0.00000724,-
 0.00001919,-0.00001513,-0.00001017,0.00002694,0.00000982,-0.00000907,-
 0.00006561,0.00000680,0.00003050,0.00005492,-0.00002895,-0.00004102,-0
 .00005612,0.00006706,-0.00009370,-0.00011469,-0.00006834,0.00011722,-0
 .00000252,-0.00000928,-0.00002724,0.00005985,-0.00001753,-0.00003710,0
 .00016074,-0.00005475,0.00004704,0.00008403,-0.00013334,-0.00004544,-0
 .00021270,0.00016727,0.00000128,0.09809099,0.06040995,-0.08690510,-0.0
 0024658,0.00192303,0.00462994,0.00219252,-0.00399288,0.00128088,0.0010
 0762,0.00033579,-0.00026971,0.00004464,-0.00002499,0.00010456,-0.00059
 339,-0.00027049,0.00071641,0.00011737,0.00015280,-0.00022239,0.0000544
 9,-0.00007184,-0.00003854,-0.00014628,-0.00001992,0.00022123,-0.000059
 12,-0.00004626,-0.00009600,0.00003144,-0.00000747,-0.00000048,0.000025
 45,-0.00003116,0.00004005,-0.00002901,0.00005513,-0.00005318,0.0000025
 7,-0.00001313,0.00000035,0.00002561,-0.00000849,0.00004482,-0.00006967
 ,0.00001460,-0.00001101,0.00006595,0.00000780,-0.00002295,0.00002726,0
 .00001347,-0.00000306,0.00008020,0.00000288,0.00008622,-0.10342289,-0.
 06203566,0.08634891\\-0.00000690,-0.00000506,0.00001437,0.00000018,0.0
 0000169,0.00000188,0.00000429,0.00000075,-0.00000610,0.00000007,0.0000
 0300,-0.00000629,-0.00000014,0.00000094,-0.00000103,-0.00001932,-0.000
 02165,0.00000060,0.00001012,-0.00000390,-0.00000555,-0.00000132,0.0000
 0797,-0.00000260,0.00002321,0.00000575,0.00003416,0.00001565,-0.000007
 20,-0.00000023,-0.00000033,-0.00000663,-0.00000542,-0.00001089,0.00000
 602,0.00000451,-0.00001898,-0.00001494,0.00000496,-0.00000025,-0.00000
 212,0.00000133,-0.00000445,-0.00000264,-0.00000774,0.00000021,-0.00000
 779,0.00000261,0.00000875,0.00004461,-0.00001641,0.00000786,0.00000224
 ,0.00000091,0.00000220,-0.00000390,0.00000512,-0.00000352,0.00000036,-
 0.00000204,0.00000364,-0.00000545,-0.00000399,-0.00000040,-0.00000114,
 -0.00000032,0.00000409,-0.00000147,-0.00000246,-0.00003706,0.00001260,
 -0.00001540,-0.00000222,0.00000361,-0.00004052,0.00000094,-0.00000105,
 -0.00001114,0.00000125,0.00000349,0.00000604,0.00000391,-0.00000547,-0
 .00000018,0.00001261,0.00001320,-0.00000903,-0.00005973,-0.00002458,-0
 .00000608,0.00001891,0.00000118,0.00000336,0.00000198,0.00000681,-0.00
 001261,0.00001892,0.00006498,0.00003179,0.00000443,-0.00001370,0.00000
 977,0.00000791,0.00002634,-0.00001349,-0.00002661,-0.00009207,0.000044
 62,0.00001898,0.00002174,-0.00000563,0.00000011,0.00000206,0.00000604,
 -0.00000198,0.00000200,0.00001336,0.00000301,-0.00000109,0.00000319,0.
 00000644,0.00000543,-0.00000680,-0.00000831,0.00000419,-0.00000632,0.0
 0000316,-0.00000169,0.00000136,-0.00000674,0.00000345,0.00000546,0.000
 01396,0.00001986,-0.00000778,-0.00000260,0.00000522,0.00000245,-0.0000
 0890,-0.00001131,-0.00000383,0.00000646,-0.00000757,-0.00000974,-0.000
 00132,-0.00000008,0.00000183,-0.00000157,0.00000408,-0.00000120,0.0000
 0750,0.00000613,-0.00000305,-0.00000432,-0.00000251,-0.00000140,0.0000
 0099,-0.00001490,0.00000659,0.00000694,0.00000522,0.00000392,-0.000001
 11,-0.00000779,0.00000075,0.00000906,0.00000464,0.00000284,-0.00001442
 ,-0.00000330,0.00000927,-0.00000979,0.00000405,-0.00001332,0.00002778,
 -0.00002205,0.00000433,-0.00000183,0.00000098,0.00000093,-0.00000050,-
 0.00000152,-0.00000063\\\@
 The archive entry for this job was punched.


 THERE IS MUCH PLEASURE TO BE GAINED FROM USELESS KNOWLEDGE

                                       -- BERTRAND RUSSELL
 Job cpu time:       5 days 14 hours  3 minutes 32.1 seconds.
 Elapsed time:       0 days  2 hours 55 minutes 27.6 seconds.
 File lengths (MBytes):  RWF=  12143 Int=      0 D2E=      0 Chk=    130 Scr=      2
 Normal termination of Gaussian 16 at Fri Feb 10 18:44:24 2023.
