 Entering Gaussian System, Link 0=g16
 Initial command:
 /home/chesagar/softwares/G16_AVX2//g16/l1.exe "/home/chesagar/scratch/Gau-112647.inp" -scrdir="/home/chesagar/scratch/"
 Entering Link 1 = /home/chesagar/softwares/G16_AVX2//g16/l1.exe PID=    112649.
  
 Copyright (c) 1988-2019, Gaussian, Inc.  All Rights Reserved.
  
 This is part of the Gaussian(R) 16 program.  It is based on
 the Gaussian(R) 09 system (copyright 2009, Gaussian, Inc.),
 the Gaussian(R) 03 system (copyright 2003, Gaussian, Inc.),
 the Gaussian(R) 98 system (copyright 1998, Gaussian, Inc.),
 the Gaussian(R) 94 system (copyright 1995, Gaussian, Inc.),
 the Gaussian 92(TM) system (copyright 1992, Gaussian, Inc.),
 the Gaussian 90(TM) system (copyright 1990, Gaussian, Inc.),
 the Gaussian 88(TM) system (copyright 1988, Gaussian, Inc.),
 the Gaussian 86(TM) system (copyright 1986, Carnegie Mellon
 University), and the Gaussian 82(TM) system (copyright 1983,
 Carnegie Mellon University). Gaussian is a federally registered
 trademark of Gaussian, Inc.
  
 This software contains proprietary and confidential information,
 including trade secrets, belonging to Gaussian, Inc.
  
 This software is provided under written license and may be
 used, copied, transmitted, or stored only in accord with that
 written license.
  
 The following legend is applicable only to US Government
 contracts under FAR:
  
                    RESTRICTED RIGHTS LEGEND
  
 Use, reproduction and disclosure by the US Government is
 subject to restrictions as set forth in subparagraphs (a)
 and (c) of the Commercial Computer Software - Restricted
 Rights clause in FAR 52.227-19.
  
 Gaussian, Inc.
 340 Quinnipiac St., Bldg. 40, Wallingford CT 06492
  
  
 ---------------------------------------------------------------
 Warning -- This program may not be used in any manner that
 competes with the business of Gaussian, Inc. or will provide
 assistance to any competitor of Gaussian, Inc.  The licensee
 of this program is prohibited from giving any competitor of
 Gaussian, Inc. access to this program.  By using this program,
 the user acknowledges that Gaussian, Inc. is engaged in the
 business of creating and licensing software in the field of
 computational chemistry and represents and warrants to the
 licensee that it is not a competitor of Gaussian, Inc. and that
 it will not use this program in any manner prohibited above.
 ---------------------------------------------------------------
  

 Cite this work as:
 Gaussian 16, Revision C.01,
 M. J. Frisch, G. W. Trucks, H. B. Schlegel, G. E. Scuseria, 
 M. A. Robb, J. R. Cheeseman, G. Scalmani, V. Barone, 
 G. A. Petersson, H. Nakatsuji, X. Li, M. Caricato, A. V. Marenich, 
 J. Bloino, B. G. Janesko, R. Gomperts, B. Mennucci, H. P. Hratchian, 
 J. V. Ortiz, A. F. Izmaylov, J. L. Sonnenberg, D. Williams-Young, 
 F. Ding, F. Lipparini, F. Egidi, J. Goings, B. Peng, A. Petrone, 
 T. Henderson, D. Ranasinghe, V. G. Zakrzewski, J. Gao, N. Rega, 
 G. Zheng, W. Liang, M. Hada, M. Ehara, K. Toyota, R. Fukuda, 
 J. Hasegawa, M. Ishida, T. Nakajima, Y. Honda, O. Kitao, H. Nakai, 
 T. Vreven, K. Throssell, J. A. Montgomery, Jr., J. E. Peralta, 
 F. Ogliaro, M. J. Bearpark, J. J. Heyd, E. N. Brothers, K. N. Kudin, 
 V. N. Staroverov, T. A. Keith, R. Kobayashi, J. Normand, 
 K. Raghavachari, A. P. Rendell, J. C. Burant, S. S. Iyengar, 
 J. Tomasi, M. Cossi, J. M. Millam, M. Klene, C. Adamo, R. Cammi, 
 J. W. Ochterski, R. L. Martin, K. Morokuma, O. Farkas, 
 J. B. Foresman, and D. J. Fox, Gaussian, Inc., Wallingford CT, 2019.
 
 ******************************************
 Gaussian 16:  ES64L-G16RevC.01  3-Jul-2019
                16-Feb-2023 
 ******************************************
 %nprocshared=46
 Will use up to   46 processors via shared memory.
 %chk=244-246_qst2_min2.chk
 %mem=100gb
 ---------------------------------------------------------
 # opt freq b3lyp/gen nosymm pseudo=read scf=maxcycles=500
 ---------------------------------------------------------
 1/18=20,19=15,26=3,38=1/1,3;
 2/9=110,12=2,15=1,17=6,18=5,40=1/2;
 3/5=7,11=2,16=1,17=8,25=1,30=1,71=1,74=-5/1,2,3;
 4//1;
 5/5=2,7=500,38=5/2;
 6/7=2,8=2,9=2,10=2,28=1/1;
 7/30=1/1,2,3,16;
 1/18=20,19=15,26=3/3(2);
 2/9=110,15=1/2;
 99//99;
 2/9=110,15=1/2;
 3/5=7,6=1,11=2,16=1,17=8,25=1,30=1,71=1,74=-5,82=7/1,2,3;
 4/5=5,16=3,69=1/1;
 5/5=2,7=500,38=5/2;
 7/30=1/1,2,3,16;
 1/18=20,19=15,26=3/3(-5);
 2/9=110,15=1/2;
 6/7=2,8=2,9=2,10=2,19=2,28=1/1;
 99/9=1/99;
 -------------------
 Title Card Required
 -------------------
 Symbolic Z-matrix:
 Charge =  0 Multiplicity = 1
 42                    0.45313   1.43803   12.69449 
 16                    1.72201   3.44512   12.62928 
 16                   -1.22185   2.7872    13.67361 
 16                   -0.58522   0.89158   10.51785 
 16                    1.81852  -0.49533   12.05958 
 42                   -2.07416   2.71609   10.90816 
 16                   -3.0932    2.22576   8.77201 
 16                   -0.79143   4.75745   10.87702 
 42                    0.8566    2.90296   10.48307 
 16                    0.00801   2.94919   7.99157 
 16                    2.54153   1.43944   9.56387 
 42                    3.08741   1.59117   11.91643 
 42                   -1.98297   4.3548    8.83507 
 16                    4.10053   1.97991   14.23535 
 16                    4.71727   3.55592   11.26412 
 16                   -3.79024   5.88781   9.68568 
 16                    1.40955   6.7726    6.95457 
 42                   -4.8203    3.87157   8.93496 
 16                   -6.17045   1.68842   9.25234 
 16                   -6.23261   4.32743   10.73662 
 42                    2.76476  -0.10253   14.13824 
 16                    4.50027  -1.62483   14.05175 
 16                    1.18112   1.45392   15.23265 
 42                    1.69423   4.39079   7.46614 
 16                    0.63407   4.53651   5.0854 
 16                    2.37737   4.94443   9.62716 
 42                    4.00823   3.37025   8.727 
 16                    3.14831   2.73924   6.57463 
 16                    5.67079   5.23525   8.57814 
 42                    4.68552   4.59174   6.43977 
 16                    6.53194   3.24367   5.55926 
 16                    4.32967   6.85858   6.19535 
 42                    2.56145   6.02777   4.75774 
 16                    3.90416   4.47376   3.94659 
 16                   -1.29753   7.62708   4.58458 
 42                   -0.88644   6.23899   6.09877 
 16                   -2.4794    4.45741   6.1643 
 16                   -1.48205   7.01958   8.22669 
 42                   -3.55871   6.23472   7.29326 
 16                   -5.6157    4.47216   7.01623 
 16                   -4.68536   7.7907    6.41628 
 42                   -5.59861   1.96628   11.41216 
 16                   -3.94723   3.48278   12.54813 
 16                   -3.67024   0.4897    11.52923 
 42                   -3.23449   1.54346   13.7254 
 16                   -1.40479  -0.40039   13.67647 
 16                   -4.15631   1.42438   15.60588 
 42                    0.0246   -0.53295   15.35063 
 16                    1.50192  -2.13572   14.90456 
 16                   -0.86284  -0.84259   17.24448 
 42                    5.69207   0.40179   13.77948 
 16                    5.12938  -0.0034    11.33032 
 16                    7.48655   1.50385   12.53296 
 42                    6.22773   2.04671   10.61539 
 16                    5.49751   1.38842   8.41299 
 16                    8.21384   3.22333   9.99668 
 42                    6.85179   3.29465   8.17193 
 16                    8.3881    3.76935   6.49178 
 16                    2.21531   7.41499   3.20229 
 16                    6.98532   0.24875   15.45408 
 16                   -7.21774   1.24064   12.55539 
 

 GradGradGradGradGradGradGradGradGradGradGradGradGradGradGradGradGradGrad
 Berny optimization.
 Initialization pass.
                           ----------------------------
                           !    Initial Parameters    !
                           ! (Angstroms and Degrees)  !
 --------------------------                            --------------------------
 ! Name  Definition              Value          Derivative Info.                !
 --------------------------------------------------------------------------------
 ! R1    R(1,2)                  2.3754         estimate D2E/DX2                !
 ! R2    R(1,3)                  2.3632         estimate D2E/DX2                !
 ! R3    R(1,4)                  2.4728         estimate D2E/DX2                !
 ! R4    R(1,5)                  2.4506         estimate D2E/DX2                !
 ! R5    R(1,9)                  2.6831         estimate D2E/DX2                !
 ! R6    R(1,12)                 2.7511         estimate D2E/DX2                !
 ! R7    R(1,23)                 2.6405         estimate D2E/DX2                !
 ! R8    R(2,9)                  2.3768         estimate D2E/DX2                !
 ! R9    R(2,12)                 2.4103         estimate D2E/DX2                !
 ! R10   R(3,45)                 2.3665         estimate D2E/DX2                !
 ! R11   R(4,6)                  2.3871         estimate D2E/DX2                !
 ! R12   R(4,9)                  2.475          estimate D2E/DX2                !
 ! R13   R(5,12)                 2.4462         estimate D2E/DX2                !
 ! R14   R(5,21)                 2.3174         estimate D2E/DX2                !
 ! R15   R(6,7)                  2.417          estimate D2E/DX2                !
 ! R16   R(6,8)                  2.4111         estimate D2E/DX2                !
 ! R17   R(6,9)                  2.9673         estimate D2E/DX2                !
 ! R18   R(6,13)                 2.6441         estimate D2E/DX2                !
 ! R19   R(6,43)                 2.6049         estimate D2E/DX2                !
 ! R20   R(7,13)                 2.402          estimate D2E/DX2                !
 ! R21   R(7,18)                 2.3913         estimate D2E/DX2                !
 ! R22   R(8,9)                  2.512          estimate D2E/DX2                !
 ! R23   R(8,13)                 2.3982         estimate D2E/DX2                !
 ! R24   R(9,10)                 2.6325         estimate D2E/DX2                !
 ! R25   R(9,11)                 2.4137         estimate D2E/DX2                !
 ! R26   R(9,12)                 2.9584         estimate D2E/DX2                !
 ! R27   R(9,26)                 2.6857         estimate D2E/DX2                !
 ! R28   R(10,13)                2.579          estimate D2E/DX2                !
 ! R29   R(10,24)                2.2798         estimate D2E/DX2                !
 ! R30   R(11,12)                2.4198         estimate D2E/DX2                !
 ! R31   R(11,27)                2.5651         estimate D2E/DX2                !
 ! R32   R(12,14)                2.5603         estimate D2E/DX2                !
 ! R33   R(12,15)                2.6348         estimate D2E/DX2                !
 ! R34   R(12,21)                2.8123         estimate D2E/DX2                !
 ! R35   R(12,52)                2.6563         estimate D2E/DX2                !
 ! R36   R(13,16)                2.5179         estimate D2E/DX2                !
 ! R37   R(13,18)                2.8799         estimate D2E/DX2                !
 ! R38   R(13,37)                2.7185         estimate D2E/DX2                !
 ! R39   R(13,39)                2.8973         estimate D2E/DX2                !
 ! R40   R(14,21)                2.4759         estimate D2E/DX2                !
 ! R41   R(14,51)                2.2872         estimate D2E/DX2                !
 ! R42   R(15,27)                2.6409         estimate D2E/DX2                !
 ! R43   R(15,54)                2.2316         estimate D2E/DX2                !
 ! R44   R(16,18)                2.3853         estimate D2E/DX2                !
 ! R45   R(16,39)                2.4285         estimate D2E/DX2                !
 ! R46   R(17,24)                2.4527         estimate D2E/DX2                !
 ! R47   R(17,33)                2.5899         estimate D2E/DX2                !
 ! R48   R(17,36)                2.5077         estimate D2E/DX2                !
 ! R49   R(18,19)                2.5865         estimate D2E/DX2                !
 ! R50   R(18,20)                2.3342         estimate D2E/DX2                !
 ! R51   R(18,40)                2.1621         estimate D2E/DX2                !
 ! R52   R(19,42)                2.2514         estimate D2E/DX2                !
 ! R53   R(20,42)                2.5364         estimate D2E/DX2                !
 ! R54   R(21,22)                2.3102         estimate D2E/DX2                !
 ! R55   R(21,23)                2.4755         estimate D2E/DX2                !
 ! R56   R(21,48)                3.0272         estimate D2E/DX2                !
 ! R57   R(21,49)                2.5131         estimate D2E/DX2                !
 ! R58   R(21,51)                2.992          estimate D2E/DX2                !
 ! R59   R(22,51)                2.3668         estimate D2E/DX2                !
 ! R60   R(23,48)                2.302          estimate D2E/DX2                !
 ! R61   R(24,25)                2.6102         estimate D2E/DX2                !
 ! R62   R(24,26)                2.3331         estimate D2E/DX2                !
 ! R63   R(24,27)                2.8259         estimate D2E/DX2                !
 ! R64   R(24,28)                2.3742         estimate D2E/DX2                !
 ! R65   R(25,33)                2.4589         estimate D2E/DX2                !
 ! R66   R(25,36)                2.4975         estimate D2E/DX2                !
 ! R67   R(26,27)                2.4389         estimate D2E/DX2                !
 ! R68   R(27,28)                2.4022         estimate D2E/DX2                !
 ! R69   R(27,29)                2.5029         estimate D2E/DX2                !
 ! R70   R(27,30)                2.68           estimate D2E/DX2                !
 ! R71   R(27,55)                2.4988         estimate D2E/DX2                !
 ! R72   R(27,57)                2.8982         estimate D2E/DX2                !
 ! R73   R(28,30)                2.411          estimate D2E/DX2                !
 ! R74   R(29,30)                2.4408         estimate D2E/DX2                !
 ! R75   R(29,57)                2.3077         estimate D2E/DX2                !
 ! R76   R(30,31)                2.4499         estimate D2E/DX2                !
 ! R77   R(30,32)                2.3076         estimate D2E/DX2                !
 ! R78   R(30,33)                3.0665         estimate D2E/DX2                !
 ! R79   R(30,34)                2.6154         estimate D2E/DX2                !
 ! R80   R(30,57)                3.0619         estimate D2E/DX2                !
 ! R81   R(31,57)                2.6327         estimate D2E/DX2                !
 ! R82   R(31,58)                2.1427         estimate D2E/DX2                !
 ! R83   R(32,33)                2.4256         estimate D2E/DX2                !
 ! R84   R(33,34)                2.2081         estimate D2E/DX2                !
 ! R85   R(33,59)                2.1127         estimate D2E/DX2                !
 ! R86   R(35,36)                2.0949         estimate D2E/DX2                !
 ! R87   R(36,37)                2.3908         estimate D2E/DX2                !
 ! R88   R(36,38)                2.3435         estimate D2E/DX2                !
 ! R89   R(36,39)                2.9271         estimate D2E/DX2                !
 ! R90   R(37,39)                2.3661         estimate D2E/DX2                !
 ! R91   R(38,39)                2.4083         estimate D2E/DX2                !
 ! R92   R(39,40)                2.723          estimate D2E/DX2                !
 ! R93   R(39,41)                2.1118         estimate D2E/DX2                !
 ! R94   R(42,43)                2.5134         estimate D2E/DX2                !
 ! R95   R(42,44)                2.4316         estimate D2E/DX2                !
 ! R96   R(42,61)                2.1107         estimate D2E/DX2                !
 ! R97   R(43,45)                2.378          estimate D2E/DX2                !
 ! R98   R(44,45)                2.4746         estimate D2E/DX2                !
 ! R99   R(45,46)                2.67           estimate D2E/DX2                !
 ! R100  R(45,47)                2.0977         estimate D2E/DX2                !
 ! R101  R(46,48)                2.2053         estimate D2E/DX2                !
 ! R102  R(48,49)                2.2249         estimate D2E/DX2                !
 ! R103  R(48,50)                2.1143         estimate D2E/DX2                !
 ! R104  R(51,52)                2.5454         estimate D2E/DX2                !
 ! R105  R(51,53)                2.4471         estimate D2E/DX2                !
 ! R106  R(51,60)                2.1214         estimate D2E/DX2                !
 ! R107  R(52,54)                2.4332         estimate D2E/DX2                !
 ! R108  R(53,54)                2.3572         estimate D2E/DX2                !
 ! R109  R(54,55)                2.4119         estimate D2E/DX2                !
 ! R110  R(54,56)                2.39           estimate D2E/DX2                !
 ! R111  R(54,57)                2.8138         estimate D2E/DX2                !
 ! R112  R(55,57)                2.3507         estimate D2E/DX2                !
 ! R113  R(56,57)                2.2782         estimate D2E/DX2                !
 ! R114  R(57,58)                2.3256         estimate D2E/DX2                !
 ! A1    A(2,1,3)               84.6982         estimate D2E/DX2                !
 ! A2    A(2,1,4)              112.7591         estimate D2E/DX2                !
 ! A3    A(2,1,5)              111.215          estimate D2E/DX2                !
 ! A4    A(2,1,23)              82.7636         estimate D2E/DX2                !
 ! A5    A(3,1,4)              101.1423         estimate D2E/DX2                !
 ! A6    A(3,1,5)              162.3053         estimate D2E/DX2                !
 ! A7    A(3,1,9)               97.8372         estimate D2E/DX2                !
 ! A8    A(3,1,12)             139.8276         estimate D2E/DX2                !
 ! A9    A(3,1,23)              78.0951         estimate D2E/DX2                !
 ! A10   A(4,1,5)               80.3026         estimate D2E/DX2                !
 ! A11   A(4,1,12)              99.5225         estimate D2E/DX2                !
 ! A12   A(4,1,23)             164.4115         estimate D2E/DX2                !
 ! A13   A(5,1,9)               97.6675         estimate D2E/DX2                !
 ! A14   A(5,1,23)              95.7496         estimate D2E/DX2                !
 ! A15   A(9,1,23)             138.3736         estimate D2E/DX2                !
 ! A16   A(12,1,23)             90.4314         estimate D2E/DX2                !
 ! A17   A(1,3,45)             108.1688         estimate D2E/DX2                !
 ! A18   A(1,4,6)               87.0816         estimate D2E/DX2                !
 ! A19   A(1,5,21)              82.0323         estimate D2E/DX2                !
 ! A20   A(4,6,7)               87.9036         estimate D2E/DX2                !
 ! A21   A(4,6,8)              108.2499         estimate D2E/DX2                !
 ! A22   A(4,6,13)             108.9044         estimate D2E/DX2                !
 ! A23   A(4,6,43)             140.9324         estimate D2E/DX2                !
 ! A24   A(7,6,8)              112.6212         estimate D2E/DX2                !
 ! A25   A(7,6,9)              107.6129         estimate D2E/DX2                !
 ! A26   A(7,6,43)             108.2372         estimate D2E/DX2                !
 ! A27   A(8,6,43)              98.1336         estimate D2E/DX2                !
 ! A28   A(9,6,13)              79.3148         estimate D2E/DX2                !
 ! A29   A(9,6,43)             141.4293         estimate D2E/DX2                !
 ! A30   A(13,6,43)            109.6328         estimate D2E/DX2                !
 ! A31   A(6,7,18)              96.0079         estimate D2E/DX2                !
 ! A32   A(9,8,13)              93.9269         estimate D2E/DX2                !
 ! A33   A(1,9,6)               72.4838         estimate D2E/DX2                !
 ! A34   A(1,9,8)              100.0878         estimate D2E/DX2                !
 ! A35   A(1,9,10)             137.8317         estimate D2E/DX2                !
 ! A36   A(1,9,11)              95.0368         estimate D2E/DX2                !
 ! A37   A(1,9,26)             139.7141         estimate D2E/DX2                !
 ! A38   A(2,9,4)              112.6312         estimate D2E/DX2                !
 ! A39   A(2,9,6)              104.1601         estimate D2E/DX2                !
 ! A40   A(2,9,8)               85.9211         estimate D2E/DX2                !
 ! A41   A(2,9,11)             103.1804         estimate D2E/DX2                !
 ! A42   A(2,9,26)              84.7334         estimate D2E/DX2                !
 ! A43   A(4,9,8)              102.4485         estimate D2E/DX2                !
 ! A44   A(4,9,10)              80.7804         estimate D2E/DX2                !
 ! A45   A(4,9,11)              85.3685         estimate D2E/DX2                !
 ! A46   A(4,9,12)              94.1356         estimate D2E/DX2                !
 ! A47   A(4,9,26)             162.1915         estimate D2E/DX2                !
 ! A48   A(6,9,10)              79.5316         estimate D2E/DX2                !
 ! A49   A(6,9,11)             134.898          estimate D2E/DX2                !
 ! A50   A(6,9,12)             130.3494         estimate D2E/DX2                !
 ! A51   A(6,9,26)             130.753          estimate D2E/DX2                !
 ! A52   A(8,9,10)              85.6402         estimate D2E/DX2                !
 ! A53   A(8,9,11)             164.8687         estimate D2E/DX2                !
 ! A54   A(8,9,12)             138.252          estimate D2E/DX2                !
 ! A55   A(8,9,26)              81.9702         estimate D2E/DX2                !
 ! A56   A(10,9,11)             82.8331         estimate D2E/DX2                !
 ! A57   A(10,9,12)            135.1891         estimate D2E/DX2                !
 ! A58   A(10,9,26)             82.3893         estimate D2E/DX2                !
 ! A59   A(11,9,26)             86.804          estimate D2E/DX2                !
 ! A60   A(12,9,26)             93.6967         estimate D2E/DX2                !
 ! A61   A(9,10,13)             87.0695         estimate D2E/DX2                !
 ! A62   A(9,10,24)             89.4732         estimate D2E/DX2                !
 ! A63   A(13,10,24)           107.5616         estimate D2E/DX2                !
 ! A64   A(9,11,27)             93.8411         estimate D2E/DX2                !
 ! A65   A(12,11,27)            98.1057         estimate D2E/DX2                !
 ! A66   A(1,12,11)             93.1794         estimate D2E/DX2                !
 ! A67   A(1,12,14)             97.5389         estimate D2E/DX2                !
 ! A68   A(1,12,15)            134.7377         estimate D2E/DX2                !
 ! A69   A(1,12,21)             68.4802         estimate D2E/DX2                !
 ! A70   A(1,12,52)            139.9152         estimate D2E/DX2                !
 ! A71   A(2,12,5)             110.1764         estimate D2E/DX2                !
 ! A72   A(2,12,11)            102.0032         estimate D2E/DX2                !
 ! A73   A(2,12,14)             80.7641         estimate D2E/DX2                !
 ! A74   A(2,12,15)             81.3772         estimate D2E/DX2                !
 ! A75   A(2,12,21)             99.4732         estimate D2E/DX2                !
 ! A76   A(2,12,52)            164.2528         estimate D2E/DX2                !
 ! A77   A(5,12,9)              90.8834         estimate D2E/DX2                !
 ! A78   A(5,12,11)             83.477          estimate D2E/DX2                !
 ! A79   A(5,12,14)            106.3655         estimate D2E/DX2                !
 ! A80   A(5,12,52)             84.2403         estimate D2E/DX2                !
 ! A81   A(9,12,14)            132.0598         estimate D2E/DX2                !
 ! A82   A(9,12,15)             90.9083         estimate D2E/DX2                !
 ! A83   A(9,12,21)            124.2851         estimate D2E/DX2                !
 ! A84   A(9,12,52)            137.6429         estimate D2E/DX2                !
 ! A85   A(11,12,15)            86.8822         estimate D2E/DX2                !
 ! A86   A(11,12,21)           134.783          estimate D2E/DX2                !
 ! A87   A(11,12,52)            85.4839         estimate D2E/DX2                !
 ! A88   A(14,12,15)            82.3126         estimate D2E/DX2                !
 ! A89   A(14,12,52)            89.2439         estimate D2E/DX2                !
 ! A90   A(15,12,21)           135.6961         estimate D2E/DX2                !
 ! A91   A(15,12,52)            85.2668         estimate D2E/DX2                !
 ! A92   A(21,12,52)            84.3177         estimate D2E/DX2                !
 ! A93   A(6,13,10)             86.8629         estimate D2E/DX2                !
 ! A94   A(6,13,16)             95.0321         estimate D2E/DX2                !
 ! A95   A(6,13,18)             80.4932         estimate D2E/DX2                !
 ! A96   A(6,13,37)            141.9412         estimate D2E/DX2                !
 ! A97   A(6,13,39)            143.1881         estimate D2E/DX2                !
 ! A98   A(7,13,8)             113.6296         estimate D2E/DX2                !
 ! A99   A(7,13,10)             82.2501         estimate D2E/DX2                !
 ! A100  A(7,13,16)            102.519          estimate D2E/DX2                !
 ! A101  A(7,13,37)             85.5985         estimate D2E/DX2                !
 ! A102  A(7,13,39)            108.0455         estimate D2E/DX2                !
 ! A103  A(8,13,10)             89.222          estimate D2E/DX2                !
 ! A104  A(8,13,16)             88.0952         estimate D2E/DX2                !
 ! A105  A(8,13,18)            119.2182         estimate D2E/DX2                !
 ! A106  A(8,13,37)            157.0585         estimate D2E/DX2                !
 ! A107  A(8,13,39)            127.907          estimate D2E/DX2                !
 ! A108  A(10,13,18)           132.8805         estimate D2E/DX2                !
 ! A109  A(10,13,37)            80.806          estimate D2E/DX2                !
 ! A110  A(10,13,39)           126.8309         estimate D2E/DX2                !
 ! A111  A(16,13,37)           100.244          estimate D2E/DX2                !
 ! A112  A(18,13,37)            81.9808         estimate D2E/DX2                !
 ! A113  A(18,13,39)            65.8898         estimate D2E/DX2                !
 ! A114  A(12,14,51)            89.4305         estimate D2E/DX2                !
 ! A115  A(12,15,27)            91.108          estimate D2E/DX2                !
 ! A116  A(12,15,54)            89.2182         estimate D2E/DX2                !
 ! A117  A(27,15,54)            81.6567         estimate D2E/DX2                !
 ! A118  A(18,16,39)            81.4814         estimate D2E/DX2                !
 ! A119  A(24,17,33)            81.1424         estimate D2E/DX2                !
 ! A120  A(24,17,36)            88.3272         estimate D2E/DX2                !
 ! A121  A(33,17,36)            93.2416         estimate D2E/DX2                !
 ! A122  A(7,18,16)            106.9369         estimate D2E/DX2                !
 ! A123  A(7,18,19)             78.7229         estimate D2E/DX2                !
 ! A124  A(7,18,20)            128.6102         estimate D2E/DX2                !
 ! A125  A(7,18,40)            113.354          estimate D2E/DX2                !
 ! A126  A(13,18,19)           131.313          estimate D2E/DX2                !
 ! A127  A(13,18,20)           126.1646         estimate D2E/DX2                !
 ! A128  A(13,18,40)           106.5616         estimate D2E/DX2                !
 ! A129  A(16,18,19)           154.1922         estimate D2E/DX2                !
 ! A130  A(16,18,20)            81.5629         estimate D2E/DX2                !
 ! A131  A(16,18,40)           101.7332         estimate D2E/DX2                !
 ! A132  A(19,18,20)            75.7762         estimate D2E/DX2                !
 ! A133  A(19,18,40)            98.7037         estimate D2E/DX2                !
 ! A134  A(20,18,40)           114.0872         estimate D2E/DX2                !
 ! A135  A(18,19,42)            83.1636         estimate D2E/DX2                !
 ! A136  A(18,20,42)            82.6765         estimate D2E/DX2                !
 ! A137  A(5,21,14)            113.4549         estimate D2E/DX2                !
 ! A138  A(5,21,22)             99.2924         estimate D2E/DX2                !
 ! A139  A(5,21,23)            103.9989         estimate D2E/DX2                !
 ! A140  A(5,21,48)             88.0249         estimate D2E/DX2                !
 ! A141  A(5,21,49)             86.0552         estimate D2E/DX2                !
 ! A142  A(5,21,51)            108.6934         estimate D2E/DX2                !
 ! A143  A(12,21,22)           106.3248         estimate D2E/DX2                !
 ! A144  A(12,21,23)            92.5223         estimate D2E/DX2                !
 ! A145  A(12,21,48)           120.3906         estimate D2E/DX2                !
 ! A146  A(12,21,49)           141.7926         estimate D2E/DX2                !
 ! A147  A(12,21,51)            72.032          estimate D2E/DX2                !
 ! A148  A(14,21,22)            98.65           estimate D2E/DX2                !
 ! A149  A(14,21,23)            78.4032         estimate D2E/DX2                !
 ! A150  A(14,21,48)           126.3156         estimate D2E/DX2                !
 ! A151  A(14,21,49)           159.9817         estimate D2E/DX2                !
 ! A152  A(22,21,23)           155.7068         estimate D2E/DX2                !
 ! A153  A(22,21,48)           126.9651         estimate D2E/DX2                !
 ! A154  A(22,21,49)            81.7092         estimate D2E/DX2                !
 ! A155  A(23,21,49)            93.0039         estimate D2E/DX2                !
 ! A156  A(23,21,51)           124.9539         estimate D2E/DX2                !
 ! A157  A(48,21,51)           163.257          estimate D2E/DX2                !
 ! A158  A(49,21,51)           131.648          estimate D2E/DX2                !
 ! A159  A(1,23,21)             75.3824         estimate D2E/DX2                !
 ! A160  A(1,23,48)             84.5808         estimate D2E/DX2                !
 ! A161  A(10,24,17)           125.1889         estimate D2E/DX2                !
 ! A162  A(10,24,25)            86.8527         estimate D2E/DX2                !
 ! A163  A(10,24,26)            98.8094         estimate D2E/DX2                !
 ! A164  A(10,24,27)           105.9296         estimate D2E/DX2                !
 ! A165  A(10,24,28)            95.7197         estimate D2E/DX2                !
 ! A166  A(17,24,25)            73.0466         estimate D2E/DX2                !
 ! A167  A(17,24,26)            89.8131         estimate D2E/DX2                !
 ! A168  A(17,24,27)           122.6019         estimate D2E/DX2                !
 ! A169  A(17,24,28)           131.9349         estimate D2E/DX2                !
 ! A170  A(25,24,26)           161.8995         estimate D2E/DX2                !
 ! A171  A(25,24,27)           139.4378         estimate D2E/DX2                !
 ! A172  A(25,24,28)            86.8527         estimate D2E/DX2                !
 ! A173  A(26,24,28)           109.4847         estimate D2E/DX2                !
 ! A174  A(24,25,33)            80.6207         estimate D2E/DX2                !
 ! A175  A(24,25,36)            85.1382         estimate D2E/DX2                !
 ! A176  A(33,25,36)            96.7688         estimate D2E/DX2                !
 ! A177  A(9,26,24)             87.0773         estimate D2E/DX2                !
 ! A178  A(9,26,27)             90.3236         estimate D2E/DX2                !
 ! A179  A(11,27,15)            83.8578         estimate D2E/DX2                !
 ! A180  A(11,27,24)            87.0876         estimate D2E/DX2                !
 ! A181  A(11,27,26)            89.0303         estimate D2E/DX2                !
 ! A182  A(11,27,28)            83.6794         estimate D2E/DX2                !
 ! A183  A(11,27,29)           163.7626         estimate D2E/DX2                !
 ! A184  A(11,27,30)           139.9994         estimate D2E/DX2                !
 ! A185  A(11,27,55)            77.5722         estimate D2E/DX2                !
 ! A186  A(11,27,57)           127.1472         estimate D2E/DX2                !
 ! A187  A(15,27,24)           128.5434         estimate D2E/DX2                !
 ! A188  A(15,27,26)            77.2655         estimate D2E/DX2                !
 ! A189  A(15,27,29)            80.0033         estimate D2E/DX2                !
 ! A190  A(15,27,30)           136.057          estimate D2E/DX2                !
 ! A191  A(15,27,55)            90.9437         estimate D2E/DX2                !
 ! A192  A(15,27,57)            85.5499         estimate D2E/DX2                !
 ! A193  A(24,27,29)           104.3764         estimate D2E/DX2                !
 ! A194  A(24,27,30)            70.2176         estimate D2E/DX2                !
 ! A195  A(24,27,55)           135.9202         estimate D2E/DX2                !
 ! A196  A(24,27,57)           136.6664         estimate D2E/DX2                !
 ! A197  A(26,27,28)           105.1223         estimate D2E/DX2                !
 ! A198  A(26,27,29)            89.1512         estimate D2E/DX2                !
 ! A199  A(26,27,30)           100.9417         estimate D2E/DX2                !
 ! A200  A(26,27,55)           163.103          estimate D2E/DX2                !
 ! A201  A(26,27,57)           138.0402         estimate D2E/DX2                !
 ! A202  A(28,27,29)           112.3481         estimate D2E/DX2                !
 ! A203  A(28,27,55)            83.8243         estimate D2E/DX2                !
 ! A204  A(28,27,57)            99.9489         estimate D2E/DX2                !
 ! A205  A(29,27,55)           100.8131         estimate D2E/DX2                !
 ! A206  A(30,27,55)            95.9474         estimate D2E/DX2                !
 ! A207  A(24,28,30)            82.9352         estimate D2E/DX2                !
 ! A208  A(27,30,31)           104.2655         estimate D2E/DX2                !
 ! A209  A(27,30,32)           119.9448         estimate D2E/DX2                !
 ! A210  A(27,30,33)           120.4334         estimate D2E/DX2                !
 ! A211  A(27,30,34)           135.8491         estimate D2E/DX2                !
 ! A212  A(28,30,29)           114.264          estimate D2E/DX2                !
 ! A213  A(28,30,31)            94.4648         estimate D2E/DX2                !
 ! A214  A(28,30,32)           131.4819         estimate D2E/DX2                !
 ! A215  A(28,30,33)            87.0688         estimate D2E/DX2                !
 ! A216  A(28,30,34)            80.1065         estimate D2E/DX2                !
 ! A217  A(28,30,57)            95.391          estimate D2E/DX2                !
 ! A218  A(29,30,31)            98.9585         estimate D2E/DX2                !
 ! A219  A(29,30,32)            84.0336         estimate D2E/DX2                !
 ! A220  A(29,30,33)           129.5467         estimate D2E/DX2                !
 ! A221  A(31,30,32)           128.2215         estimate D2E/DX2                !
 ! A222  A(31,30,33)           125.6338         estimate D2E/DX2                !
 ! A223  A(31,30,34)            81.8207         estimate D2E/DX2                !
 ! A224  A(32,30,34)            84.1035         estimate D2E/DX2                !
 ! A225  A(32,30,57)           125.8141         estimate D2E/DX2                !
 ! A226  A(34,30,57)           137.0139         estimate D2E/DX2                !
 ! A227  A(30,31,58)           111.1907         estimate D2E/DX2                !
 ! A228  A(17,33,25)            73.3071         estimate D2E/DX2                !
 ! A229  A(17,33,30)            88.7098         estimate D2E/DX2                !
 ! A230  A(17,33,32)            73.9183         estimate D2E/DX2                !
 ! A231  A(17,33,34)           141.6688         estimate D2E/DX2                !
 ! A232  A(17,33,59)           111.2715         estimate D2E/DX2                !
 ! A233  A(25,33,30)           100.7102         estimate D2E/DX2                !
 ! A234  A(25,33,32)           134.4398         estimate D2E/DX2                !
 ! A235  A(25,33,34)            95.6681         estimate D2E/DX2                !
 ! A236  A(25,33,59)           111.5863         estimate D2E/DX2                !
 ! A237  A(30,33,59)           145.5701         estimate D2E/DX2                !
 ! A238  A(32,33,34)            90.888          estimate D2E/DX2                !
 ! A239  A(32,33,59)           109.3227         estimate D2E/DX2                !
 ! A240  A(34,33,59)           106.934          estimate D2E/DX2                !
 ! A241  A(17,36,25)            74.1041         estimate D2E/DX2                !
 ! A242  A(17,36,35)           106.5791         estimate D2E/DX2                !
 ! A243  A(17,36,37)           139.398          estimate D2E/DX2                !
 ! A244  A(17,36,38)            81.486          estimate D2E/DX2                !
 ! A245  A(17,36,39)           134.1793         estimate D2E/DX2                !
 ! A246  A(25,36,35)           106.1337         estimate D2E/DX2                !
 ! A247  A(25,36,37)            84.7669         estimate D2E/DX2                !
 ! A248  A(25,36,38)           138.6094         estimate D2E/DX2                !
 ! A249  A(25,36,39)           136.0882         estimate D2E/DX2                !
 ! A250  A(35,36,37)           112.5088         estimate D2E/DX2                !
 ! A251  A(35,36,38)           112.6889         estimate D2E/DX2                !
 ! A252  A(35,36,39)            96.7061         estimate D2E/DX2                !
 ! A253  A(37,36,38)            93.0945         estimate D2E/DX2                !
 ! A254  A(13,37,36)            86.1801         estimate D2E/DX2                !
 ! A255  A(13,39,36)            73.8345         estimate D2E/DX2                !
 ! A256  A(13,39,38)            62.3689         estimate D2E/DX2                !
 ! A257  A(13,39,40)            92.5786         estimate D2E/DX2                !
 ! A258  A(16,39,36)           119.2925         estimate D2E/DX2                !
 ! A259  A(16,39,37)           113.9693         estimate D2E/DX2                !
 ! A260  A(16,39,38)            75.341          estimate D2E/DX2                !
 ! A261  A(16,39,40)            86.3155         estimate D2E/DX2                !
 ! A262  A(16,39,41)           117.6133         estimate D2E/DX2                !
 ! A263  A(36,39,40)           130.4726         estimate D2E/DX2                !
 ! A264  A(36,39,41)           108.4529         estimate D2E/DX2                !
 ! A265  A(37,39,38)            92.0858         estimate D2E/DX2                !
 ! A266  A(37,39,40)            79.037          estimate D2E/DX2                !
 ! A267  A(37,39,41)           126.7759         estimate D2E/DX2                !
 ! A268  A(38,39,40)           154.3937         estimate D2E/DX2                !
 ! A269  A(38,39,41)           112.3884         estimate D2E/DX2                !
 ! A270  A(40,39,41)            91.8142         estimate D2E/DX2                !
 ! A271  A(18,40,39)            79.1416         estimate D2E/DX2                !
 ! A272  A(19,42,20)            78.2234         estimate D2E/DX2                !
 ! A273  A(19,42,43)           132.4468         estimate D2E/DX2                !
 ! A274  A(19,42,44)            99.9429         estimate D2E/DX2                !
 ! A275  A(19,42,61)           106.3992         estimate D2E/DX2                !
 ! A276  A(20,42,43)            73.9147         estimate D2E/DX2                !
 ! A277  A(20,42,44)           140.9271         estimate D2E/DX2                !
 ! A278  A(20,42,61)           105.816          estimate D2E/DX2                !
 ! A279  A(43,42,44)            79.8382         estimate D2E/DX2                !
 ! A280  A(43,42,61)           117.8164         estimate D2E/DX2                !
 ! A281  A(44,42,61)           111.9321         estimate D2E/DX2                !
 ! A282  A(6,43,42)             90.5909         estimate D2E/DX2                !
 ! A283  A(6,43,45)             81.7284         estimate D2E/DX2                !
 ! A284  A(42,43,45)            85.9069         estimate D2E/DX2                !
 ! A285  A(42,44,45)            85.6295         estimate D2E/DX2                !
 ! A286  A(3,45,43)             79.366          estimate D2E/DX2                !
 ! A287  A(3,45,44)            110.7411         estimate D2E/DX2                !
 ! A288  A(3,45,46)             78.4288         estimate D2E/DX2                !
 ! A289  A(3,45,47)            115.0365         estimate D2E/DX2                !
 ! A290  A(43,45,44)            81.6702         estimate D2E/DX2                !
 ! A291  A(43,45,46)           142.191          estimate D2E/DX2                !
 ! A292  A(43,45,47)           111.0014         estimate D2E/DX2                !
 ! A293  A(44,45,46)            78.1345         estimate D2E/DX2                !
 ! A294  A(44,45,47)           133.9521         estimate D2E/DX2                !
 ! A295  A(46,45,47)           106.0366         estimate D2E/DX2                !
 ! A296  A(45,46,48)           118.2953         estimate D2E/DX2                !
 ! A297  A(21,48,46)           105.9093         estimate D2E/DX2                !
 ! A298  A(21,48,50)           139.4221         estimate D2E/DX2                !
 ! A299  A(23,48,46)           103.5826         estimate D2E/DX2                !
 ! A300  A(23,48,49)           106.1346         estimate D2E/DX2                !
 ! A301  A(23,48,50)           112.5318         estimate D2E/DX2                !
 ! A302  A(46,48,49)           108.7512         estimate D2E/DX2                !
 ! A303  A(46,48,50)           114.6295         estimate D2E/DX2                !
 ! A304  A(49,48,50)           110.6578         estimate D2E/DX2                !
 ! A305  A(14,51,22)           102.5617         estimate D2E/DX2                !
 ! A306  A(14,51,52)            98.4988         estimate D2E/DX2                !
 ! A307  A(14,51,53)           107.5209         estimate D2E/DX2                !
 ! A308  A(14,51,60)           108.4601         estimate D2E/DX2                !
 ! A309  A(21,51,52)            82.6612         estimate D2E/DX2                !
 ! A310  A(21,51,53)           148.6957         estimate D2E/DX2                !
 ! A311  A(21,51,60)           119.3164         estimate D2E/DX2                !
 ! A312  A(22,51,52)            82.1296         estimate D2E/DX2                !
 ! A313  A(22,51,53)           144.4362         estimate D2E/DX2                !
 ! A314  A(22,51,60)            98.8819         estimate D2E/DX2                !
 ! A315  A(52,51,53)            75.1478         estimate D2E/DX2                !
 ! A316  A(52,51,60)           151.9848         estimate D2E/DX2                !
 ! A317  A(53,51,60)            89.2867         estimate D2E/DX2                !
 ! A318  A(12,52,51)            82.072          estimate D2E/DX2                !
 ! A319  A(12,52,54)            84.609          estimate D2E/DX2                !
 ! A320  A(51,52,54)            92.7974         estimate D2E/DX2                !
 ! A321  A(51,53,54)            97.2666         estimate D2E/DX2                !
 ! A322  A(15,54,52)           100.3039         estimate D2E/DX2                !
 ! A323  A(15,54,53)           106.3033         estimate D2E/DX2                !
 ! A324  A(15,54,55)           104.1888         estimate D2E/DX2                !
 ! A325  A(15,54,56)           107.7451         estimate D2E/DX2                !
 ! A326  A(15,54,57)            95.8899         estimate D2E/DX2                !
 ! A327  A(52,54,53)            78.9305         estimate D2E/DX2                !
 ! A328  A(52,54,55)            84.3572         estimate D2E/DX2                !
 ! A329  A(52,54,56)           149.997          estimate D2E/DX2                !
 ! A330  A(52,54,57)           136.7989         estimate D2E/DX2                !
 ! A331  A(53,54,55)           147.3167         estimate D2E/DX2                !
 ! A332  A(53,54,56)            83.1185         estimate D2E/DX2                !
 ! A333  A(53,54,57)           133.6404         estimate D2E/DX2                !
 ! A334  A(55,54,56)            98.6024         estimate D2E/DX2                !
 ! A335  A(27,55,54)            81.3282         estimate D2E/DX2                !
 ! A336  A(27,57,31)            94.0928         estimate D2E/DX2                !
 ! A337  A(27,57,54)            68.1391         estimate D2E/DX2                !
 ! A338  A(27,57,56)           115.7222         estimate D2E/DX2                !
 ! A339  A(27,57,58)           141.3695         estimate D2E/DX2                !
 ! A340  A(29,57,31)            97.3999         estimate D2E/DX2                !
 ! A341  A(29,57,54)            96.1191         estimate D2E/DX2                !
 ! A342  A(29,57,55)           111.6554         estimate D2E/DX2                !
 ! A343  A(29,57,56)           101.0287         estimate D2E/DX2                !
 ! A344  A(29,57,58)           107.0732         estimate D2E/DX2                !
 ! A345  A(30,57,54)           121.4813         estimate D2E/DX2                !
 ! A346  A(30,57,55)            89.6528         estimate D2E/DX2                !
 ! A347  A(30,57,56)           152.7933         estimate D2E/DX2                !
 ! A348  A(30,57,58)            88.4072         estimate D2E/DX2                !
 ! A349  A(31,57,54)           145.7167         estimate D2E/DX2                !
 ! A350  A(31,57,55)            90.921          estimate D2E/DX2                !
 ! A351  A(31,57,56)           150.1033         estimate D2E/DX2                !
 ! A352  A(54,57,58)           149.816          estimate D2E/DX2                !
 ! A353  A(55,57,56)           103.7045         estimate D2E/DX2                !
 ! A354  A(55,57,58)           128.3298         estimate D2E/DX2                !
 ! A355  A(56,57,58)           100.9588         estimate D2E/DX2                !
 ! A356  L(2,9,10,4,-1)        193.4116         estimate D2E/DX2                !
 ! A357  L(5,12,15,2,-1)       191.5536         estimate D2E/DX2                !
 ! A358  L(11,12,14,1,-1)      190.7182         estimate D2E/DX2                !
 ! A359  L(10,13,16,6,-1)      181.895          estimate D2E/DX2                !
 ! A360  L(15,27,28,11,-1)     167.5372         estimate D2E/DX2                !
 ! A361  L(29,30,34,28,-1)     194.3705         estimate D2E/DX2                !
 ! A362  L(33,30,57,28,-1)     182.4598         estimate D2E/DX2                !
 ! A363  L(13,39,41,36,-1)     182.2874         estimate D2E/DX2                !
 ! A364  L(2,9,10,4,-2)        174.1649         estimate D2E/DX2                !
 ! A365  L(5,12,15,2,-2)       187.6903         estimate D2E/DX2                !
 ! A366  L(11,12,14,1,-2)      184.6125         estimate D2E/DX2                !
 ! A367  L(10,13,16,6,-2)      175.5357         estimate D2E/DX2                !
 ! A368  L(15,27,28,11,-2)     182.6265         estimate D2E/DX2                !
 ! A369  L(29,30,34,28,-2)     177.1998         estimate D2E/DX2                !
 ! A370  L(33,30,57,28,-2)     181.4858         estimate D2E/DX2                !
 ! A371  L(13,39,41,36,-2)     188.4776         estimate D2E/DX2                !
 ! D1    D(2,1,3,45)           168.7114         estimate D2E/DX2                !
 ! D2    D(4,1,3,45)            56.5198         estimate D2E/DX2                !
 ! D3    D(5,1,3,45)           -36.4902         estimate D2E/DX2                !
 ! D4    D(9,1,3,45)           114.5009         estimate D2E/DX2                !
 ! D5    D(12,1,3,45)          176.1683         estimate D2E/DX2                !
 ! D6    D(23,1,3,45)         -107.5879         estimate D2E/DX2                !
 ! D7    D(2,1,4,6)            -71.7481         estimate D2E/DX2                !
 ! D8    D(3,1,4,6)             17.1345         estimate D2E/DX2                !
 ! D9    D(5,1,4,6)            179.2002         estimate D2E/DX2                !
 ! D10   D(12,1,4,6)          -128.2222         estimate D2E/DX2                !
 ! D11   D(23,1,4,6)           102.7516         estimate D2E/DX2                !
 ! D12   D(2,1,5,21)            71.919          estimate D2E/DX2                !
 ! D13   D(3,1,5,21)           -81.0286         estimate D2E/DX2                !
 ! D14   D(4,1,5,21)          -177.3083         estimate D2E/DX2                !
 ! D15   D(9,1,5,21)           127.9675         estimate D2E/DX2                !
 ! D16   D(23,1,5,21)          -12.5307         estimate D2E/DX2                !
 ! D17   D(3,1,9,6)            -43.7517         estimate D2E/DX2                !
 ! D18   D(3,1,9,8)              0.1356         estimate D2E/DX2                !
 ! D19   D(3,1,9,10)           -94.5337         estimate D2E/DX2                !
 ! D20   D(3,1,9,11)          -179.4128         estimate D2E/DX2                !
 ! D21   D(3,1,9,26)            89.5889         estimate D2E/DX2                !
 ! D22   D(5,1,9,6)            127.6952         estimate D2E/DX2                !
 ! D23   D(5,1,9,8)            171.5824         estimate D2E/DX2                !
 ! D24   D(5,1,9,10)            76.9131         estimate D2E/DX2                !
 ! D25   D(5,1,9,11)            -7.966          estimate D2E/DX2                !
 ! D26   D(5,1,9,26)           -98.9642         estimate D2E/DX2                !
 ! D27   D(23,1,9,6)          -124.6268         estimate D2E/DX2                !
 ! D28   D(23,1,9,8)           -80.7396         estimate D2E/DX2                !
 ! D29   D(23,1,9,10)         -175.4089         estimate D2E/DX2                !
 ! D30   D(23,1,9,11)           99.712          estimate D2E/DX2                !
 ! D31   D(23,1,9,26)            8.7138         estimate D2E/DX2                !
 ! D32   D(3,1,12,11)         -111.5262         estimate D2E/DX2                !
 ! D33   D(3,1,12,14)           63.8613         estimate D2E/DX2                !
 ! D34   D(3,1,12,15)          -22.7665         estimate D2E/DX2                !
 ! D35   D(3,1,12,21)          111.042          estimate D2E/DX2                !
 ! D36   D(3,1,12,52)          161.7111         estimate D2E/DX2                !
 ! D37   D(4,1,12,11)            8.6358         estimate D2E/DX2                !
 ! D38   D(4,1,12,14)         -175.9767         estimate D2E/DX2                !
 ! D39   D(4,1,12,15)           97.3955         estimate D2E/DX2                !
 ! D40   D(4,1,12,21)         -128.796          estimate D2E/DX2                !
 ! D41   D(4,1,12,52)          -78.1269         estimate D2E/DX2                !
 ! D42   D(23,1,12,11)         176.5856         estimate D2E/DX2                !
 ! D43   D(23,1,12,14)          -8.0269         estimate D2E/DX2                !
 ! D44   D(23,1,12,15)         -94.6547         estimate D2E/DX2                !
 ! D45   D(23,1,12,21)          39.1538         estimate D2E/DX2                !
 ! D46   D(23,1,12,52)          89.8229         estimate D2E/DX2                !
 ! D47   D(2,1,23,21)          -98.7241         estimate D2E/DX2                !
 ! D48   D(2,1,23,48)         -178.2706         estimate D2E/DX2                !
 ! D49   D(3,1,23,21)          175.1993         estimate D2E/DX2                !
 ! D50   D(3,1,23,48)           95.6528         estimate D2E/DX2                !
 ! D51   D(4,1,23,21)           86.3875         estimate D2E/DX2                !
 ! D52   D(4,1,23,48)            6.8411         estimate D2E/DX2                !
 ! D53   D(5,1,23,21)           11.9979         estimate D2E/DX2                !
 ! D54   D(5,1,23,48)          -67.5486         estimate D2E/DX2                !
 ! D55   D(9,1,23,21)          -96.3734         estimate D2E/DX2                !
 ! D56   D(9,1,23,48)         -175.9199         estimate D2E/DX2                !
 ! D57   D(12,1,23,21)         -43.6008         estimate D2E/DX2                !
 ! D58   D(12,1,23,48)        -123.1472         estimate D2E/DX2                !
 ! D59   D(1,2,9,12)           -73.7408         estimate D2E/DX2                !
 ! D60   D(1,3,45,43)         -124.6145         estimate D2E/DX2                !
 ! D61   D(1,3,45,44)          -47.8362         estimate D2E/DX2                !
 ! D62   D(1,3,45,46)           24.5883         estimate D2E/DX2                !
 ! D63   D(1,3,45,47)          127.0385         estimate D2E/DX2                !
 ! D64   D(1,4,6,7)            179.3258         estimate D2E/DX2                !
 ! D65   D(1,4,6,8)             66.1715         estimate D2E/DX2                !
 ! D66   D(1,4,6,13)           125.988          estimate D2E/DX2                !
 ! D67   D(1,4,6,43)           -63.8149         estimate D2E/DX2                !
 ! D68   D(1,5,21,14)          -69.5146         estimate D2E/DX2                !
 ! D69   D(1,5,21,22)         -173.231          estimate D2E/DX2                !
 ! D70   D(1,5,21,23)           13.7278         estimate D2E/DX2                !
 ! D71   D(1,5,21,48)           59.6089         estimate D2E/DX2                !
 ! D72   D(1,5,21,49)          105.8451         estimate D2E/DX2                !
 ! D73   D(1,5,21,51)         -121.3195         estimate D2E/DX2                !
 ! D74   D(4,6,7,18)           176.0967         estimate D2E/DX2                !
 ! D75   D(8,6,7,18)           -74.984          estimate D2E/DX2                !
 ! D76   D(9,6,7,18)          -133.1363         estimate D2E/DX2                !
 ! D77   D(43,6,7,18)           32.3945         estimate D2E/DX2                !
 ! D78   D(7,6,9,1)           -135.2341         estimate D2E/DX2                !
 ! D79   D(7,6,9,2)            178.444          estimate D2E/DX2                !
 ! D80   D(7,6,9,10)            12.8348         estimate D2E/DX2                !
 ! D81   D(7,6,9,11)           -55.8673         estimate D2E/DX2                !
 ! D82   D(7,6,9,12)          -129.32           estimate D2E/DX2                !
 ! D83   D(7,6,9,26)            83.1395         estimate D2E/DX2                !
 ! D84   D(13,6,9,1)           175.3054         estimate D2E/DX2                !
 ! D85   D(13,6,9,2)           128.9836         estimate D2E/DX2                !
 ! D86   D(13,6,9,10)          -36.6257         estimate D2E/DX2                !
 ! D87   D(13,6,9,11)         -105.3277         estimate D2E/DX2                !
 ! D88   D(13,6,9,12)         -178.7804         estimate D2E/DX2                !
 ! D89   D(13,6,9,26)           33.6791         estimate D2E/DX2                !
 ! D90   D(43,6,9,1)            67.1379         estimate D2E/DX2                !
 ! D91   D(43,6,9,2)            20.8161         estimate D2E/DX2                !
 ! D92   D(43,6,9,10)         -144.7932         estimate D2E/DX2                !
 ! D93   D(43,6,9,11)          146.5048         estimate D2E/DX2                !
 ! D94   D(43,6,9,12)           73.0521         estimate D2E/DX2                !
 ! D95   D(43,6,9,26)          -74.4884         estimate D2E/DX2                !
 ! D96   D(4,6,13,10)           -8.6661         estimate D2E/DX2                !
 ! D97   D(4,6,13,16)          175.7982         estimate D2E/DX2                !
 ! D98   D(4,6,13,18)          125.7738         estimate D2E/DX2                !
 ! D99   D(4,6,13,37)           62.091          estimate D2E/DX2                !
 ! D100  D(4,6,13,39)          149.5691         estimate D2E/DX2                !
 ! D101  D(9,6,13,10)           36.8493         estimate D2E/DX2                !
 ! D102  D(9,6,13,16)         -138.6864         estimate D2E/DX2                !
 ! D103  D(9,6,13,18)          171.2893         estimate D2E/DX2                !
 ! D104  D(9,6,13,37)          107.6065         estimate D2E/DX2                !
 ! D105  D(9,6,13,39)         -164.9155         estimate D2E/DX2                !
 ! D106  D(43,6,13,10)         177.8757         estimate D2E/DX2                !
 ! D107  D(43,6,13,16)           2.3399         estimate D2E/DX2                !
 ! D108  D(43,6,13,18)         -47.6844         estimate D2E/DX2                !
 ! D109  D(43,6,13,37)        -111.3672         estimate D2E/DX2                !
 ! D110  D(43,6,13,39)         -23.8892         estimate D2E/DX2                !
 ! D111  D(4,6,43,42)          -77.7932         estimate D2E/DX2                !
 ! D112  D(4,6,43,45)            7.9842         estimate D2E/DX2                !
 ! D113  D(7,6,43,42)           32.3771         estimate D2E/DX2                !
 ! D114  D(7,6,43,45)          118.1545         estimate D2E/DX2                !
 ! D115  D(8,6,43,42)          149.5184         estimate D2E/DX2                !
 ! D116  D(8,6,43,45)         -124.7042         estimate D2E/DX2                !
 ! D117  D(9,6,43,42)         -170.0783         estimate D2E/DX2                !
 ! D118  D(9,6,43,45)          -84.3009         estimate D2E/DX2                !
 ! D119  D(13,6,43,42)          92.3599         estimate D2E/DX2                !
 ! D120  D(13,6,43,45)         178.1373         estimate D2E/DX2                !
 ! D121  D(6,7,18,16)           45.8912         estimate D2E/DX2                !
 ! D122  D(6,7,18,19)         -108.1201         estimate D2E/DX2                !
 ! D123  D(6,7,18,20)          -46.7974         estimate D2E/DX2                !
 ! D124  D(6,7,18,40)          157.1779         estimate D2E/DX2                !
 ! D125  D(13,8,9,1)          -122.1983         estimate D2E/DX2                !
 ! D126  D(13,8,9,2)          -176.1858         estimate D2E/DX2                !
 ! D127  D(13,8,9,4)           -63.8942         estimate D2E/DX2                !
 ! D128  D(13,8,9,10)           15.6556         estimate D2E/DX2                !
 ! D129  D(13,8,9,11)           56.0781         estimate D2E/DX2                !
 ! D130  D(13,8,9,12)         -174.8878         estimate D2E/DX2                !
 ! D131  D(13,8,9,26)           98.568          estimate D2E/DX2                !
 ! D132  D(9,8,13,7)            65.2482         estimate D2E/DX2                !
 ! D133  D(9,8,13,10)          -15.9427         estimate D2E/DX2                !
 ! D134  D(9,8,13,16)          168.0854         estimate D2E/DX2                !
 ! D135  D(9,8,13,18)          124.6046         estimate D2E/DX2                !
 ! D136  D(9,8,13,37)          -79.7094         estimate D2E/DX2                !
 ! D137  D(9,8,13,39)         -154.4685         estimate D2E/DX2                !
 ! D138  D(1,9,10,13)           85.7067         estimate D2E/DX2                !
 ! D139  D(1,9,10,24)         -166.6788         estimate D2E/DX2                !
 ! D140  D(4,9,10,13)           88.8615         estimate D2E/DX2                !
 ! D141  D(4,9,10,24)         -163.524          estimate D2E/DX2                !
 ! D142  D(6,9,10,13)           37.0011         estimate D2E/DX2                !
 ! D143  D(6,9,10,24)          144.6156         estimate D2E/DX2                !
 ! D144  D(8,9,10,13)          -14.5175         estimate D2E/DX2                !
 ! D145  D(8,9,10,24)           93.0969         estimate D2E/DX2                !
 ! D146  D(11,9,10,13)         175.3047         estimate D2E/DX2                !
 ! D147  D(11,9,10,24)         -77.0808         estimate D2E/DX2                !
 ! D148  D(12,9,10,13)         175.4376         estimate D2E/DX2                !
 ! D149  D(12,9,10,24)         -76.9479         estimate D2E/DX2                !
 ! D150  D(26,9,10,13)         -96.9813         estimate D2E/DX2                !
 ! D151  D(26,9,10,24)          10.6331         estimate D2E/DX2                !
 ! D152  D(1,9,11,27)         -139.8749         estimate D2E/DX2                !
 ! D153  D(2,9,11,27)          -84.058          estimate D2E/DX2                !
 ! D154  D(4,9,11,27)          163.7611         estimate D2E/DX2                !
 ! D155  D(6,9,11,27)          149.9236         estimate D2E/DX2                !
 ! D156  D(8,9,11,27)           41.8287         estimate D2E/DX2                !
 ! D157  D(10,9,11,27)          82.4937         estimate D2E/DX2                !
 ! D158  D(26,9,11,27)          -0.2291         estimate D2E/DX2                !
 ! D159  D(4,9,12,5)            -0.1269         estimate D2E/DX2                !
 ! D160  D(4,9,12,14)         -113.2973         estimate D2E/DX2                !
 ! D161  D(4,9,12,15)          166.2517         estimate D2E/DX2                !
 ! D162  D(4,9,12,21)          -42.4586         estimate D2E/DX2                !
 ! D163  D(4,9,12,52)           82.2845         estimate D2E/DX2                !
 ! D164  D(6,9,12,5)            39.9221         estimate D2E/DX2                !
 ! D165  D(6,9,12,14)          -73.2483         estimate D2E/DX2                !
 ! D166  D(6,9,12,15)         -153.6993         estimate D2E/DX2                !
 ! D167  D(6,9,12,21)           -2.4096         estimate D2E/DX2                !
 ! D168  D(6,9,12,52)          122.3335         estimate D2E/DX2                !
 ! D169  D(8,9,12,5)           113.8018         estimate D2E/DX2                !
 ! D170  D(8,9,12,14)            0.6314         estimate D2E/DX2                !
 ! D171  D(8,9,12,15)          -79.8196         estimate D2E/DX2                !
 ! D172  D(8,9,12,21)           71.4701         estimate D2E/DX2                !
 ! D173  D(8,9,12,52)         -163.7867         estimate D2E/DX2                !
 ! D174  D(10,9,12,5)          -81.2018         estimate D2E/DX2                !
 ! D175  D(10,9,12,14)         165.6278         estimate D2E/DX2                !
 ! D176  D(10,9,12,15)          85.1768         estimate D2E/DX2                !
 ! D177  D(10,9,12,21)        -123.5335         estimate D2E/DX2                !
 ! D178  D(10,9,12,52)           1.2096         estimate D2E/DX2                !
 ! D179  D(26,9,12,5)         -164.1206         estimate D2E/DX2                !
 ! D180  D(26,9,12,14)          82.709          estimate D2E/DX2                !
 ! D181  D(26,9,12,15)           2.258          estimate D2E/DX2                !
 ! D182  D(26,9,12,21)         153.5477         estimate D2E/DX2                !
 ! D183  D(26,9,12,52)         -81.7092         estimate D2E/DX2                !
 ! D184  D(1,9,26,24)          166.8081         estimate D2E/DX2                !
 ! D185  D(1,9,26,27)           94.2611         estimate D2E/DX2                !
 ! D186  D(2,9,26,24)          176.3489         estimate D2E/DX2                !
 ! D187  D(2,9,26,27)          103.8019         estimate D2E/DX2                !
 ! D188  D(4,9,26,24)            8.7803         estimate D2E/DX2                !
 ! D189  D(4,9,26,27)          -63.7667         estimate D2E/DX2                !
 ! D190  D(6,9,26,24)          -79.4771         estimate D2E/DX2                !
 ! D191  D(6,9,26,27)         -152.0242         estimate D2E/DX2                !
 ! D192  D(8,9,26,24)          -97.0413         estimate D2E/DX2                !
 ! D193  D(8,9,26,27)         -169.5883         estimate D2E/DX2                !
 ! D194  D(10,9,26,24)         -10.401          estimate D2E/DX2                !
 ! D195  D(10,9,26,27)         -82.948          estimate D2E/DX2                !
 ! D196  D(11,9,26,24)          72.7874         estimate D2E/DX2                !
 ! D197  D(11,9,26,27)           0.2404         estimate D2E/DX2                !
 ! D198  D(12,9,26,24)         124.7202         estimate D2E/DX2                !
 ! D199  D(12,9,26,27)          52.1732         estimate D2E/DX2                !
 ! D200  D(9,10,13,6)          -41.6937         estimate D2E/DX2                !
 ! D201  D(9,10,13,7)          -98.8            estimate D2E/DX2                !
 ! D202  D(9,10,13,8)           15.1791         estimate D2E/DX2                !
 ! D203  D(9,10,13,18)        -115.6346         estimate D2E/DX2                !
 ! D204  D(9,10,13,37)         174.4351         estimate D2E/DX2                !
 ! D205  D(9,10,13,39)         154.4222         estimate D2E/DX2                !
 ! D206  D(24,10,13,6)        -130.212          estimate D2E/DX2                !
 ! D207  D(24,10,13,7)         172.6818         estimate D2E/DX2                !
 ! D208  D(24,10,13,8)         -73.3392         estimate D2E/DX2                !
 ! D209  D(24,10,13,18)        155.8472         estimate D2E/DX2                !
 ! D210  D(24,10,13,37)         85.9168         estimate D2E/DX2                !
 ! D211  D(24,10,13,39)         65.904          estimate D2E/DX2                !
 ! D212  D(9,10,24,17)        -108.3422         estimate D2E/DX2                !
 ! D213  D(9,10,24,25)        -175.0071         estimate D2E/DX2                !
 ! D214  D(9,10,24,26)         -12.3011         estimate D2E/DX2                !
 ! D215  D(9,10,24,27)          44.1392         estimate D2E/DX2                !
 ! D216  D(9,10,24,28)          98.4769         estimate D2E/DX2                !
 ! D217  D(13,10,24,17)        -21.5832         estimate D2E/DX2                !
 ! D218  D(13,10,24,25)        -88.2481         estimate D2E/DX2                !
 ! D219  D(13,10,24,26)         74.4578         estimate D2E/DX2                !
 ! D220  D(13,10,24,27)        130.8981         estimate D2E/DX2                !
 ! D221  D(13,10,24,28)       -174.7642         estimate D2E/DX2                !
 ! D222  D(27,11,12,1)         132.9791         estimate D2E/DX2                !
 ! D223  D(27,11,12,2)          78.8113         estimate D2E/DX2                !
 ! D224  D(27,11,12,5)        -171.8831         estimate D2E/DX2                !
 ! D225  D(27,11,12,15)         -1.6864         estimate D2E/DX2                !
 ! D226  D(27,11,12,21)       -164.5682         estimate D2E/DX2                !
 ! D227  D(27,11,12,52)        -87.1787         estimate D2E/DX2                !
 ! D228  D(9,11,27,15)          77.5478         estimate D2E/DX2                !
 ! D229  D(9,11,27,24)         -51.7232         estimate D2E/DX2                !
 ! D230  D(9,11,27,26)           0.2519         estimate D2E/DX2                !
 ! D231  D(9,11,27,28)        -105.0787         estimate D2E/DX2                !
 ! D232  D(9,11,27,29)          83.873          estimate D2E/DX2                !
 ! D233  D(9,11,27,30)        -105.7196         estimate D2E/DX2                !
 ! D234  D(9,11,27,55)         169.8792         estimate D2E/DX2                !
 ! D235  D(9,11,27,57)         157.2111         estimate D2E/DX2                !
 ! D236  D(12,11,27,15)          1.6897         estimate D2E/DX2                !
 ! D237  D(12,11,27,24)       -127.5813         estimate D2E/DX2                !
 ! D238  D(12,11,27,26)        -75.6062         estimate D2E/DX2                !
 ! D239  D(12,11,27,28)        179.0632         estimate D2E/DX2                !
 ! D240  D(12,11,27,29)          8.0149         estimate D2E/DX2                !
 ! D241  D(12,11,27,30)        178.4223         estimate D2E/DX2                !
 ! D242  D(12,11,27,55)         94.0211         estimate D2E/DX2                !
 ! D243  D(12,11,27,57)         81.353          estimate D2E/DX2                !
 ! D244  D(1,12,14,51)         133.756          estimate D2E/DX2                !
 ! D245  D(2,12,14,51)        -174.3851         estimate D2E/DX2                !
 ! D246  D(5,12,14,51)          77.1668         estimate D2E/DX2                !
 ! D247  D(9,12,14,51)        -176.1778         estimate D2E/DX2                !
 ! D248  D(15,12,14,51)        -91.9313         estimate D2E/DX2                !
 ! D249  D(52,12,14,51)         -6.6055         estimate D2E/DX2                !
 ! D250  D(1,12,15,27)         -89.766          estimate D2E/DX2                !
 ! D251  D(1,12,15,54)        -171.4051         estimate D2E/DX2                !
 ! D252  D(2,12,15,27)        -101.0235         estimate D2E/DX2                !
 ! D253  D(2,12,15,54)         177.3374         estimate D2E/DX2                !
 ! D254  D(9,12,15,27)         -50.4116         estimate D2E/DX2                !
 ! D255  D(9,12,15,54)        -132.0507         estimate D2E/DX2                !
 ! D256  D(11,12,15,27)          1.6219         estimate D2E/DX2                !
 ! D257  D(11,12,15,54)        -80.0172         estimate D2E/DX2                !
 ! D258  D(14,12,15,27)        177.2175         estimate D2E/DX2                !
 ! D259  D(14,12,15,54)         95.5784         estimate D2E/DX2                !
 ! D260  D(21,12,15,27)        164.2177         estimate D2E/DX2                !
 ! D261  D(21,12,15,54)         82.5786         estimate D2E/DX2                !
 ! D262  D(52,12,15,27)         87.3427         estimate D2E/DX2                !
 ! D263  D(52,12,15,54)          5.7036         estimate D2E/DX2                !
 ! D264  D(1,12,21,22)         153.1274         estimate D2E/DX2                !
 ! D265  D(1,12,21,23)         -42.3865         estimate D2E/DX2                !
 ! D266  D(1,12,21,48)          -0.7914         estimate D2E/DX2                !
 ! D267  D(1,12,21,49)          55.706          estimate D2E/DX2                !
 ! D268  D(1,12,21,51)        -168.4436         estimate D2E/DX2                !
 ! D269  D(2,12,21,22)        -161.4149         estimate D2E/DX2                !
 ! D270  D(2,12,21,23)           3.0711         estimate D2E/DX2                !
 ! D271  D(2,12,21,48)          44.6662         estimate D2E/DX2                !
 ! D272  D(2,12,21,49)         101.1637         estimate D2E/DX2                !
 ! D273  D(2,12,21,51)        -122.9859         estimate D2E/DX2                !
 ! D274  D(9,12,21,22)         149.3578         estimate D2E/DX2                !
 ! D275  D(9,12,21,23)         -46.1561         estimate D2E/DX2                !
 ! D276  D(9,12,21,48)          -4.561          estimate D2E/DX2                !
 ! D277  D(9,12,21,49)          51.9364         estimate D2E/DX2                !
 ! D278  D(9,12,21,51)        -172.2132         estimate D2E/DX2                !
 ! D279  D(11,12,21,22)         81.0265         estimate D2E/DX2                !
 ! D280  D(11,12,21,23)       -114.4875         estimate D2E/DX2                !
 ! D281  D(11,12,21,48)        -72.8924         estimate D2E/DX2                !
 ! D282  D(11,12,21,49)        -16.395          estimate D2E/DX2                !
 ! D283  D(11,12,21,51)        119.4555         estimate D2E/DX2                !
 ! D284  D(15,12,21,22)        -74.089          estimate D2E/DX2                !
 ! D285  D(15,12,21,23)         90.397          estimate D2E/DX2                !
 ! D286  D(15,12,21,48)        131.9921         estimate D2E/DX2                !
 ! D287  D(15,12,21,49)       -171.5105         estimate D2E/DX2                !
 ! D288  D(15,12,21,51)        -35.66           estimate D2E/DX2                !
 ! D289  D(52,12,21,22)          3.1625         estimate D2E/DX2                !
 ! D290  D(52,12,21,23)        167.6486         estimate D2E/DX2                !
 ! D291  D(52,12,21,48)       -150.7563         estimate D2E/DX2                !
 ! D292  D(52,12,21,49)        -94.2589         estimate D2E/DX2                !
 ! D293  D(52,12,21,51)         41.5915         estimate D2E/DX2                !
 ! D294  D(1,12,52,51)         -94.8512         estimate D2E/DX2                !
 ! D295  D(1,12,52,54)         171.5577         estimate D2E/DX2                !
 ! D296  D(2,12,52,51)          56.3293         estimate D2E/DX2                !
 ! D297  D(2,12,52,54)         -37.2618         estimate D2E/DX2                !
 ! D298  D(5,12,52,51)        -100.5419         estimate D2E/DX2                !
 ! D299  D(5,12,52,54)         165.867          estimate D2E/DX2                !
 ! D300  D(9,12,52,51)         174.4853         estimate D2E/DX2                !
 ! D301  D(9,12,52,54)          80.8942         estimate D2E/DX2                !
 ! D302  D(11,12,52,51)        175.5756         estimate D2E/DX2                !
 ! D303  D(11,12,52,54)         81.9845         estimate D2E/DX2                !
 ! D304  D(14,12,52,51)          5.99           estimate D2E/DX2                !
 ! D305  D(14,12,52,54)        -87.6011         estimate D2E/DX2                !
 ! D306  D(15,12,52,51)         88.3386         estimate D2E/DX2                !
 ! D307  D(15,12,52,54)         -5.2525         estimate D2E/DX2                !
 ! D308  D(21,12,52,51)        -48.5376         estimate D2E/DX2                !
 ! D309  D(21,12,52,54)       -142.1287         estimate D2E/DX2                !
 ! D310  D(6,13,18,19)         -44.5089         estimate D2E/DX2                !
 ! D311  D(6,13,18,20)          59.215          estimate D2E/DX2                !
 ! D312  D(6,13,18,40)        -162.6448         estimate D2E/DX2                !
 ! D313  D(8,13,18,19)         -87.7562         estimate D2E/DX2                !
 ! D314  D(8,13,18,20)          15.9677         estimate D2E/DX2                !
 ! D315  D(8,13,18,40)         154.1079         estimate D2E/DX2                !
 ! D316  D(10,13,18,19)         32.1213         estimate D2E/DX2                !
 ! D317  D(10,13,18,20)        135.8452         estimate D2E/DX2                !
 ! D318  D(10,13,18,40)        -86.0146         estimate D2E/DX2                !
 ! D319  D(37,13,18,19)        101.5712         estimate D2E/DX2                !
 ! D320  D(37,13,18,20)       -154.7049         estimate D2E/DX2                !
 ! D321  D(37,13,18,40)        -16.5646         estimate D2E/DX2                !
 ! D322  D(39,13,18,19)        150.8497         estimate D2E/DX2                !
 ! D323  D(39,13,18,20)       -105.4263         estimate D2E/DX2                !
 ! D324  D(39,13,18,40)         32.7139         estimate D2E/DX2                !
 ! D325  D(6,13,37,36)        -155.2854         estimate D2E/DX2                !
 ! D326  D(7,13,37,36)        -165.3876         estimate D2E/DX2                !
 ! D327  D(8,13,37,36)         -17.2309         estimate D2E/DX2                !
 ! D328  D(10,13,37,36)        -82.5424         estimate D2E/DX2                !
 ! D329  D(16,13,37,36)         92.6648         estimate D2E/DX2                !
 ! D330  D(18,13,37,36)        141.4908         estimate D2E/DX2                !
 ! D331  D(6,13,39,36)         178.2766         estimate D2E/DX2                !
 ! D332  D(6,13,39,38)         124.2981         estimate D2E/DX2                !
 ! D333  D(6,13,39,40)         -50.161          estimate D2E/DX2                !
 ! D334  D(7,13,39,36)        -123.1072         estimate D2E/DX2                !
 ! D335  D(7,13,39,38)        -177.0857         estimate D2E/DX2                !
 ! D336  D(7,13,39,40)           8.4552         estimate D2E/DX2                !
 ! D337  D(8,13,39,36)          94.8957         estimate D2E/DX2                !
 ! D338  D(8,13,39,38)          40.9172         estimate D2E/DX2                !
 ! D339  D(8,13,39,40)        -133.5419         estimate D2E/DX2                !
 ! D340  D(10,13,39,36)        -29.2763         estimate D2E/DX2                !
 ! D341  D(10,13,39,38)        -83.2549         estimate D2E/DX2                !
 ! D342  D(10,13,39,40)        102.286          estimate D2E/DX2                !
 ! D343  D(18,13,39,36)       -155.8769         estimate D2E/DX2                !
 ! D344  D(18,13,39,38)        150.1445         estimate D2E/DX2                !
 ! D345  D(18,13,39,40)        -24.3146         estimate D2E/DX2                !
 ! D346  D(12,14,51,22)        -76.7972         estimate D2E/DX2                !
 ! D347  D(12,14,51,52)          6.9709         estimate D2E/DX2                !
 ! D348  D(12,14,51,53)         83.9912         estimate D2E/DX2                !
 ! D349  D(12,14,51,60)        179.2483         estimate D2E/DX2                !
 ! D350  D(12,15,27,11)         -1.5366         estimate D2E/DX2                !
 ! D351  D(12,15,27,24)         79.7745         estimate D2E/DX2                !
 ! D352  D(12,15,27,26)         88.857          estimate D2E/DX2                !
 ! D353  D(12,15,27,29)       -179.744          estimate D2E/DX2                !
 ! D354  D(12,15,27,30)       -178.5102         estimate D2E/DX2                !
 ! D355  D(12,15,27,55)        -78.9301         estimate D2E/DX2                !
 ! D356  D(12,15,27,57)       -129.675          estimate D2E/DX2                !
 ! D357  D(54,15,27,11)         87.5106         estimate D2E/DX2                !
 ! D358  D(54,15,27,24)        168.8217         estimate D2E/DX2                !
 ! D359  D(54,15,27,26)        177.9042         estimate D2E/DX2                !
 ! D360  D(54,15,27,29)        -90.6969         estimate D2E/DX2                !
 ! D361  D(54,15,27,30)        -89.463          estimate D2E/DX2                !
 ! D362  D(54,15,27,55)         10.1171         estimate D2E/DX2                !
 ! D363  D(54,15,27,57)        -40.6278         estimate D2E/DX2                !
 ! D364  D(12,15,54,52)         -6.3093         estimate D2E/DX2                !
 ! D365  D(12,15,54,53)        -87.6738         estimate D2E/DX2                !
 ! D366  D(12,15,54,55)         80.4163         estimate D2E/DX2                !
 ! D367  D(12,15,54,56)       -175.526          estimate D2E/DX2                !
 ! D368  D(12,15,54,57)        133.4724         estimate D2E/DX2                !
 ! D369  D(27,15,54,52)        -97.544          estimate D2E/DX2                !
 ! D370  D(27,15,54,53)       -178.9084         estimate D2E/DX2                !
 ! D371  D(27,15,54,55)        -10.8183         estimate D2E/DX2                !
 ! D372  D(27,15,54,56)         93.2393         estimate D2E/DX2                !
 ! D373  D(27,15,54,57)         42.2378         estimate D2E/DX2                !
 ! D374  D(39,16,18,7)          90.3318         estimate D2E/DX2                !
 ! D375  D(39,16,18,19)       -170.4514         estimate D2E/DX2                !
 ! D376  D(39,16,18,20)       -141.7686         estimate D2E/DX2                !
 ! D377  D(39,16,18,40)        -28.7774         estimate D2E/DX2                !
 ! D378  D(18,16,39,36)       -113.1805         estimate D2E/DX2                !
 ! D379  D(18,16,39,37)        -54.2526         estimate D2E/DX2                !
 ! D380  D(18,16,39,38)       -139.9443         estimate D2E/DX2                !
 ! D381  D(18,16,39,40)         22.0271         estimate D2E/DX2                !
 ! D382  D(18,16,39,41)        112.1484         estimate D2E/DX2                !
 ! D383  D(33,17,24,10)       -122.2859         estimate D2E/DX2                !
 ! D384  D(33,17,24,25)        -48.8559         estimate D2E/DX2                !
 ! D385  D(33,17,24,26)        137.0474         estimate D2E/DX2                !
 ! D386  D(33,17,24,27)         89.5436         estimate D2E/DX2                !
 ! D387  D(33,17,24,28)         20.5949         estimate D2E/DX2                !
 ! D388  D(36,17,24,10)        -28.7426         estimate D2E/DX2                !
 ! D389  D(36,17,24,25)         44.6874         estimate D2E/DX2                !
[...]
 001496,-0.00000712,0.00003268,0.00000070,0.00000173,-0.00000193,0.0000
 0956,0.00000312,-0.00002465,-0.00001375,-0.00003921,0.00004438,0.00002
 060,0.00001822,-0.00002206,-0.00000087,0.00002748,-0.00004200,-0.00006
 337,-0.00001280,0.00008210,0.00007307,0.00000655,0.00001594,-0.0000318
 7,-0.00003141,-0.00008381,-0.00007630,0.00010766,-0.00004595,0.0000268
 4,0.00000801,-0.00001842,0.02089025,0.00010510,-0.00013908,-0.00001002
 ,0.00005465,0.00002949,-0.00005131,-0.00005955,0.00003033,-0.00001428,
 -0.00000354,0.00000428,-0.00001045,-0.00001198,0.00002281,-0.00002402,
 0.00007868,0.00004301,-0.00008904,-0.00000264,0.00002216,0.00004779,0.
 00001825,-0.00001150,-0.00002112,-0.00002737,0.00000118,-0.00005953,-0
 .00027803,-0.00022633,-0.00005172,-0.00016032,-0.00009721,0.00015851,-
 0.00008467,-0.00000134,-0.00003884,-0.00027096,-0.00010971,-0.00001178
 ,0.00003845,-0.00001426,0.00000203,-0.00000441,-0.00005565,0.00000336,
 0.00002432,0.00011416,-0.00006900,-0.00092326,0.00142439,0.00123973,0.
 00005398,-0.00002066,0.00011693,0.00001924,-0.00016256,-0.00004253,0.0
 0005912,0.00006038,0.00010619,-0.00017089,0.00000782,0.00003592,0.0000
 2540,-0.00002390,-0.00000249,0.00001729,0.00001075,0.00000694,-0.00031
 901,-0.00067226,0.00170610,-0.00197699,-0.00264112,0.00151734,0.000065
 88,0.00010917,0.00011226,0.00008021,0.00031461,0.00009483,-0.00014948,
 0.00062029,-0.00039354,-0.00020817,-0.00008403,0.00032332,0.00343508,-
 0.00196762,0.00222992,-0.00018653,-0.00069008,-0.00069312,0.00246475,0
 .00337577,0.00069130,0.02601030,-0.12179907,0.12353478,0.00450688,-0.0
 0774770,0.00275318,-0.00084856,0.00234197,-0.00218370,0.00008143,-0.00
 205904,0.00172133,0.00035299,0.00021222,0.00020445,0.00022063,-0.00025
 359,-0.00039434,0.00004076,-0.00027011,0.00018818,-0.00004648,0.000048
 51,-0.00013286,-0.00014477,0.00023061,-0.00014181,0.00002934,0.0000572
 0,-0.00012068,-0.00003816,0.00001082,-0.00000541,0.00000062,0.00000492
 ,0.00002400,0.00006531,0.00002489,-0.00007898,-0.00001970,-0.00001498,
 0.00001430,-0.00004506,-0.00002032,0.00008197,0.00006970,0.00003873,-0
 .00015597,-0.00000177,-0.00001430,0.00000325,-0.00005228,-0.00001561,0
 .00012233,0.00003510,0.00014169,-0.00020638,-0.00005969,-0.00004512,0.
 00006974,0.00003790,-0.00009051,0.00013673,0.00004386,0.00018689,-0.00
 007285,0.00008497,0.00006120,0.00004427,0.00015086,-0.00011454,0.00027
 730,-0.00097265,0.00052166,-0.00070717,0.00009472,0.00024885,-0.000079
 92,-0.03129324,0.12912040,-0.00011368,0.00013189,-0.00000676,-0.000051
 45,-0.00002103,0.00003961,0.00005579,-0.00002756,0.00000883,0.00001711
 ,-0.00002714,0.00002457,0.00001052,-0.00002291,0.00002666,-0.00006445,
 -0.00002688,0.00007383,-0.00001260,-0.00002962,-0.00003141,-0.00002719
 ,0.00002548,0.00001700,0.00000497,0.00000193,0.00010902,0.00046912,0.0
 0056598,0.00007377,0.00012078,0.00005932,-0.00011761,0.00006812,0.0000
 0194,0.00001241,0.00026978,0.00013715,0.00004756,-0.00003556,0.0000156
 4,-0.00000330,-0.00005032,0.00009703,-0.00006467,-0.00002203,-0.000098
 79,0.00002639,0.00071494,0.00023538,-0.00081175,-0.00004507,-0.0000120
 7,-0.00010752,-0.00002461,0.00017794,0.00004688,-0.00005376,-0.0000457
 9,-0.00010968,0.00016101,-0.00002423,-0.00003281,-0.00002957,0.0000269
 8,0.00000388,-0.00001508,-0.00000704,-0.00000725,-0.00088240,0.0002113
 7,-0.00109710,0.00320040,0.00108905,0.00029964,0.00001706,-0.00000932,
 -0.00004901,0.00009110,-0.00018119,-0.00005041,-0.00020584,-0.00024473
 ,0.00020480,0.00053245,-0.00017754,0.00020178,-0.00406051,0.00362946,-
 0.00510651,0.00018770,0.00061882,0.00091593,-0.00058530,0.00012628,-0.
 00181820,-0.02912511,0.12425765,-0.16245709,-0.00493434,0.00251156,0.0
 0901677,0.00170259,-0.00209563,0.00218534,0.00130805,0.00179935,-0.003
 02981,-0.00039883,-0.00023446,-0.00007213,-0.00034737,0.00014207,0.000
 30825,-0.00015665,0.00026656,-0.00023741,0.00005107,-0.00005331,0.0001
 3014,0.00016591,-0.00024432,0.00014057,-0.00003689,-0.00007181,0.00012
 414,0.00003896,-0.00000894,0.00000754,-0.00000203,-0.00001364,-0.00001
 627,-0.00006726,-0.00003276,0.00008082,0.00001379,0.00001852,-0.000019
 41,0.00004989,0.00002236,-0.00009128,-0.00006285,-0.00004111,0.0001616
 0,-0.00000062,0.00001658,-0.00000193,0.00005480,0.00001626,-0.00012438
 ,-0.00002649,-0.00012847,0.00019305,0.00004865,0.00004042,-0.00005136,
 -0.00003748,0.00009655,-0.00015342,0.00002827,-0.00025781,0.00009862,-
 0.00003924,-0.00005985,0.00004732,-0.00014544,0.00001756,-0.00027150,0
 .00067412,-0.00022882,0.00076301,0.00008118,-0.00012025,-0.00002232,0.
 03150892,-0.13189127,0.16076819,0.00027165,0.00003836,-0.00041189,0.00
 008623,-0.00011324,-0.00006182,-0.00013623,0.00009278,0.00008198,0.000
 11342,0.00004953,0.00000069,0.00006199,0.00056608,-0.00001374,0.000225
 47,0.00006334,-0.00007386,-0.00004917,0.00003493,0.00004258,-0.0000404
 4,0.00001725,0.00000005,-0.00044511,-0.00012701,0.00018731,0.00010381,
 0.00002005,-0.00005691,0.00036387,0.00002218,-0.00039799,-0.00137085,0
 .00052438,0.00033269,0.00006652,0.00011379,-0.00013782,-0.00529652,0.0
 0260893,-0.00370763,0.00027813,-0.00039106,-0.00015987,-0.00001427,-0.
 00001678,-0.00002951,-0.00002138,0.00002540,-0.00002582,-0.00010472,-0
 .00012154,0.00014552,0.00005355,-0.00015871,-0.00011599,0.00007806,0.0
 0009385,0.00018113,0.00240083,-0.00255545,-0.00099606,-0.01008447,-0.0
 0669788,-0.00359059,-0.00015445,0.00029803,0.00030417,-0.00018104,-0.0
 0009415,0.00000715,0.00001890,0.00003539,-0.00000423,-0.00001822,0.000
 00062,-0.00006150,0.00034950,-0.00063925,0.00033647,-0.00007206,0.0001
 2384,0.00014482,0.00006186,0.00003235,-0.00001497,0.00011989,0.0000531
 5,-0.00005359,0.00000595,-0.00005096,-0.00003365,-0.00001285,0.0000469
 0,-0.00001142,-0.00001783,-0.00007021,0.00013604,0.00000441,-0.0000453
 2,-0.00001175,-0.00002612,0.00007481,-0.00008184,0.00000295,-0.0000734
 4,0.00007225,0.00002512,0.00000401,0.00001879,-0.00001776,-0.00000654,
 -0.00001054,0.00016599,-0.00013005,0.00010426,-0.00004069,0.00005077,-
 0.00010806,-0.00010480,0.00012568,-0.00006705,0.00004940,0.00010917,-0
 .00011970,-0.00009364,0.00000606,0.00001125,0.00001195,-0.00000466,0.0
 0001049,0.00007173,0.00011263,-0.00014155,0.00000440,-0.00006652,0.000
 06848,-0.00008648,-0.00003709,0.00014958,0.00009935,-0.00009303,-0.000
 38560,-0.00028530,0.00000824,-0.00003998,-0.00015551,-0.00003412,0.000
 35836,-0.09584004,0.02230308,-0.10561696,-0.00115376,-0.00300587,-0.01
 140351,0.00268602,-0.00035359,0.00513291,-0.00233418,-0.00161211,-0.00
 097115,-0.00004106,0.00024096,0.00076513,0.00025189,-0.00012978,-0.000
 29041,0.00000576,0.00069747,-0.00015615,0.00015672,0.00001075,-0.00009
 131,-0.00001807,0.00009526,-0.00009619,0.11015885,-0.00003531,-0.00003
 614,-0.00060065,-0.00005371,-0.00010451,0.00022385,0.00006724,0.000002
 83,0.00020750,-0.00005844,0.00003687,0.00000982,-0.00011411,0.00029546
 ,0.00047828,0.00010227,-0.00007406,-0.00000251,-0.00002958,0.00003339,
 0.00004883,-0.00000160,-0.00002780,0.00003268,-0.00008196,0.00005620,-
 0.00004178,0.00003067,0.00006493,-0.00002115,0.00005940,0.00001265,0.0
 0027992,0.00019154,-0.00017777,-0.00122287,0.00020678,0.00008991,-0.00
 011811,0.00230846,0.00189489,0.00582770,0.00020630,-0.00008365,-0.0002
 2527,-0.00003829,-0.00003236,0.00002503,0.00000563,-0.00001150,0.00001
 627,-0.00010316,-0.00011125,0.00006639,0.00001725,0.00000316,-0.000108
 80,0.00002489,0.00001887,0.00001368,0.00140539,-0.00325912,-0.00131386
 ,-0.00992907,-0.00060484,-0.00616613,-0.00047444,0.00063192,0.00072142
 ,-0.00027428,-0.00010866,0.00000876,0.00003791,-0.00001554,0.00001049,
 -0.00003592,0.00002620,-0.00002413,0.00072459,-0.00026791,0.00022990,-
 0.00007802,0.00007122,-0.00002937,-0.00001431,0.00000846,-0.00000214,0
 .00016052,0.00004790,0.00003361,0.00001327,-0.00005353,0.00005508,0.00
 001538,-0.00004610,0.00000202,-0.00008856,0.00007087,-0.00004394,0.000
 02757,-0.00000750,-0.00000041,-0.00000748,-0.00000352,0.00000683,-0.00
 000816,0.00000572,-0.00000576,-0.00001606,0.00000107,-0.00000210,-0.00
 004791,0.00000574,0.00002619,0.00005162,0.00000807,-0.00002910,-0.0000
 1227,0.00001222,-0.00002318,0.00000468,-0.00001007,0.00000655,0.000020
 71,0.00003907,0.00008946,0.00003059,-0.00000544,0.00001497,-0.00001038
 ,-0.00002045,-0.00004710,0.00001805,0.00002141,0.00008903,-0.00005918,
 0.00000943,-0.00011798,0.00000548,0.00000421,-0.00003499,0.00026191,-0
 .00001646,-0.00002364,-0.00010086,0.00002925,0.00006915,0.00002087,0.0
 0001477,-0.00002056,0.02100827,-0.01345076,0.01286314,-0.00033856,-0.0
 0059607,0.00396847,-0.00297956,-0.00127230,0.00470062,0.00039545,0.001
 07500,0.00012984,-0.00011691,-0.00016291,-0.00023691,-0.00019006,0.000
 16371,-0.00020440,-0.00003694,-0.00010064,-0.00014836,-0.00008833,0.00
 005704,0.00004572,0.00001158,-0.00004308,0.00004096,-0.01202100,0.0158
 9003,0.00010679,-0.00018250,0.00005436,0.00022848,0.00000098,0.0002731
 7,-0.00007476,0.00004742,-0.00002599,-0.00001042,0.00000888,-0.0000053
 7,0.00025486,-0.00000668,0.00031065,0.00013578,0.00004021,-0.00008269,
 -0.00004731,0.00002314,0.00003327,-0.00003113,0.00000895,0.00003710,-0
 .00003490,-0.00006722,0.00018744,0.00006068,-0.00000772,-0.00002766,0.
 00020664,-0.00043608,0.00005819,-0.00155350,0.00135601,-0.00099556,0.0
 0001801,0.00008869,-0.00008035,-0.00257120,0.00388706,0.00310865,0.000
 07873,-0.00019208,0.00022521,-0.00000225,-0.00000894,-0.00003305,-0.00
 001752,0.00001639,-0.00004785,-0.00007451,-0.00009360,0.00013333,0.000
 04658,-0.00015699,-0.00011024,0.00006846,0.00008679,0.00015686,-0.0043
 8850,-0.00065690,0.00081901,-0.00339340,-0.00381375,-0.00081971,0.0005
 6798,0.00046619,0.00012411,-0.00001171,-0.00015728,0.00019435,0.000008
 56,0.00004902,-0.00002920,0.00003940,0.00007757,-0.00000696,-0.0001443
 0,-0.00008433,-0.00030035,0.00003549,-0.00000092,0.00007750,-0.0000024
 8,-0.00000095,-0.00001272,-0.00000372,-0.00002861,0.00001023,-0.000043
 48,-0.00000719,-0.00005546,-0.00001800,0.00008036,-0.00002040,0.000008
 72,-0.00007062,0.00016266,0.00000841,-0.00004878,-0.00000760,-0.000026
 11,0.00008276,-0.00008899,0.00000339,-0.00009025,0.00007847,0.00002770
 ,0.00000712,0.00001536,-0.00000444,-0.00000961,-0.00001844,0.00016206,
 -0.00014003,0.00011275,-0.00003845,0.00004734,-0.00010742,-0.00011351,
 0.00013767,-0.00007406,0.00006643,0.00009913,-0.00012172,-0.00006361,0
 .00002880,-0.00000597,-0.00000323,0.00001281,0.00002177,0.00012823,0.0
 0000941,-0.00012534,-0.00009507,0.00001380,-0.00011506,-0.00006882,-0.
 00002874,0.00012822,0.00062743,0.00005385,-0.00095360,0.00024975,-0.00
 041676,0.00009085,-0.00015356,-0.00004222,0.00056748,-0.11245194,0.014
 47641,-0.15990393,-0.00075943,-0.00111066,-0.00476257,0.00300495,0.006
 44738,-0.01192237,-0.00097549,-0.00040814,-0.00014866,-0.00001494,0.00
 014734,0.00011577,0.00012162,-0.00014408,0.00022105,0.00001742,0.00006
 929,-0.00021114,0.00020310,-0.00001128,-0.00009665,-0.00002268,0.00011
 634,-0.00011948,0.12087433,-0.01950998,0.17402595,0.00013784,-0.000095
 69,0.00012536,0.00010909,-0.00002287,0.00003018,0.00054595,0.00059891,
 0.00016736,0.00005103,0.00002167,-0.00001648,0.00002114,-0.00006725,0.
 00003698,-0.00027978,-0.00001078,-0.00010925,0.00010993,-0.00003940,-0
 .00055422,-0.00002287,0.00006486,-0.00008862,-0.00024716,-0.00002148,0
 .00005306,-0.00003992,0.00000010,0.00000460,0.00001090,-0.00006941,0.0
 0004887,-0.00022378,0.00022827,-0.00007956,-0.00035906,-0.00034997,0.0
 0064209,0.00002910,0.00001758,0.00000646,0.00000055,-0.00000806,0.0000
 0705,0.00048214,0.00029102,0.00019960,0.00002773,-0.00000392,0.0000577
 5,0.00168874,0.00015713,-0.00018371,0.00480239,-0.00080755,0.00449621,
 0.00332842,-0.00335464,0.00229438,0.00007938,-0.00021969,-0.00005860,-
 0.00011155,0.00004016,-0.00000196,0.00004344,0.00018303,-0.00004278,0.
 00027777,0.00007380,-0.00004023,-0.00005950,-0.00001290,0.00002953,0.0
 0002646,0.00002562,0.00002696,-0.00010019,0.00008667,-0.00002654,0.000
 03559,0.00002585,-0.00000621,0.00002115,0.00000086,-0.00000922,-0.0001
 2463,0.00000203,-0.00003637,0.00002789,0.00003809,0.00002138,0.0000074
 8,-0.00002983,0.00002085,0.00005724,0.00001598,-0.00016493,-0.00003583
 ,0.00006731,0.00001004,0.00006261,-0.00013328,0.00013223,-0.00009250,0
 .00010889,-0.00012766,-0.00007557,-0.00003484,-0.00005038,0.00005325,0
 .00006100,-0.00002316,-0.00031051,0.00018916,-0.00008747,-0.00021194,-
 0.00023118,0.00021844,0.00018300,-0.00023225,0.00014073,-0.18627802,-0
 .05847438,0.11265527,-0.00230250,-0.00336238,-0.00223610,-0.00318059,0
 .00358120,0.00066634,-0.00384629,-0.00280181,0.00530435,0.00008655,0.0
 0002779,-0.00007636,0.00108252,0.00101337,-0.00374209,-0.00037824,-0.0
 0005620,0.00022898,-0.00004336,0.00005732,0.00006394,0.00022361,0.0000
 4177,-0.00035092,0.00024170,0.00004702,0.00014187,-0.00003481,-0.00002
 277,0.00000072,-0.00003602,-0.00002111,-0.00000889,0.00007065,-0.00000
 464,0.00002787,0.00000255,0.00000512,0.00000517,-0.00005353,-0.0000067
 0,-0.00003733,0.00011869,-0.00000880,0.00003770,-0.00008903,-0.0000304
 4,0.00003658,0.00001911,-0.00010091,0.00010920,-0.00013714,0.00001013,
 -0.00014564,0.18460871,-0.00028686,0.00005084,-0.00000765,0.00000441,0
 .00000481,0.00000310,-0.00006995,0.00019848,0.00015506,0.00021845,0.00
 021387,-0.00005977,0.00001850,-0.00001996,0.00000537,-0.00070530,-0.00
 072890,-0.00037965,0.00022613,-0.00037280,-0.00037303,0.00003978,0.000
 07964,-0.00002118,-0.00006087,-0.00002249,-0.00014820,0.00000760,-0.00
 000797,-0.00001000,0.00000993,0.00001381,-0.00000523,-0.00001732,0.000
 00743,0.00000412,-0.00055797,-0.00008110,0.00008588,-0.00000103,0.0000
 0621,0.00000218,-0.00000083,-0.00000665,0.00000568,0.00011436,0.000131
 45,0.00039831,0.00000006,0.00000273,0.00001684,-0.00004374,0.00016919,
 -0.00035259,0.00183462,0.00153270,0.00234729,-0.00263254,-0.00089778,0
 .00242149,0.00003817,-0.00005194,0.00001450,-0.00003965,0.00002029,0.0
 0000678,0.00001564,0.00004202,0.00000739,0.00013884,0.00005224,0.00004
 073,-0.00002557,-0.00000391,0.00000252,0.00001919,0.00002911,-0.000025
 40,-0.00004364,0.00000745,0.00000557,0.00001050,-0.00000863,-0.0000015
 5,0.00001479,0.00000509,-0.00000613,-0.00005802,-0.00000027,-0.0000124
 7,0.00001231,0.00001520,0.00000903,0.00000016,-0.00000646,0.00000456,0
 .00003152,0.00000522,-0.00006187,-0.00001744,0.00002685,0.00000326,0.0
 0002347,-0.00005325,0.00005550,-0.00003343,0.00002418,-0.00003452,0.00
 005158,0.00000382,-0.00003464,0.00008443,0.00000920,-0.00001980,-0.000
 30142,-0.00005877,0.00012313,0.00008532,-0.00023827,0.00007669,0.00006
 292,-0.00008721,0.00002177,-0.05989574,-0.04356902,0.04142720,-0.00227
 963,0.00233558,0.00226132,-0.00051723,0.00690091,-0.00096807,-0.000144
 17,-0.00286186,0.00101395,-0.00022753,0.00024687,-0.00014837,0.0012996
 3,0.00017639,-0.00061328,-0.00004366,-0.00005383,0.00025318,-0.0000544
 4,0.00002055,-0.00000576,0.00010649,0.00003468,-0.00013091,0.00009569,
 0.00003118,0.00004206,-0.00001511,-0.00000179,-0.00000919,-0.00001787,
 -0.00001106,-0.00000008,0.00002500,-0.00000319,0.00000111,-0.00000017,
 0.00000193,0.00000094,-0.00001904,-0.00000219,-0.00001208,0.00004593,-
 0.00000328,0.00001752,-0.00003354,-0.00001138,0.00001251,0.00000557,-0
 .00003590,0.00004024,-0.00005067,0.00000146,-0.00005423,0.06355344,0.0
 3679849,-0.00010756,-0.00003505,0.00003172,-0.00003866,0.00001646,-0.0
 0003461,-0.00012935,0.00037092,-0.00039792,-0.00010514,-0.00002906,-0.
 00017456,-0.00000770,0.00002101,-0.00006458,0.00146684,-0.00025384,0.0
 0004564,-0.00056348,0.00038166,0.00082302,0.00001579,0.00001809,0.0000
 4482,0.00020715,0.00007659,0.00014973,-0.00006927,0.00001863,0.0000471
 1,-0.00002247,0.00002218,-0.00000666,0.00010128,-0.00008966,0.00007569
 ,0.00137802,0.00033601,-0.00034264,0.00000237,-0.00001570,-0.00000079,
 0.00000963,0.00000781,0.00000307,-0.00018037,-0.00010220,0.00000567,-0
 .00003819,0.00000572,-0.00005008,-0.00080494,-0.00186552,0.00036798,0.
 00361409,0.00117251,-0.00786176,0.00061873,0.00246493,-0.00043445,-0.0
 0007508,0.00005634,0.00004420,0.00004321,-0.00001452,-0.00000061,-0.00
 002573,-0.00001544,0.00003681,-0.00027362,-0.00001388,-0.00003758,0.00
 006373,0.00000254,-0.00001784,-0.00007351,-0.00004116,0.00000936,0.000
 13281,-0.00006243,0.00000238,-0.00002418,-0.00001288,-0.00000753,-0.00
 003023,-0.00000652,0.00001236,0.00012120,-0.00001106,0.00003233,-0.000
 01817,-0.00003513,-0.00001177,0.00000290,0.00000579,-0.00001198,-0.000
 07537,0.00000688,0.00012439,0.00004036,-0.00005501,-0.00000420,-0.0000
 3860,0.00010289,-0.00011236,0.00005397,-0.00006639,0.00014647,-0.00007
 145,0.00002245,0.00006731,-0.00024866,0.00003948,0.00001604,0.00050202
 ,0.00002421,-0.00007929,-0.00000746,0.00006448,-0.00029454,-0.00012779
 ,0.00015278,-0.00007507,0.11352033,0.04282111,-0.10052833,0.00202889,0
 .00496162,0.00680954,0.00125934,-0.00263973,0.00136700,-0.00040380,-0.
 00003347,-0.00368611,0.00021081,-0.00008761,-0.00000670,-0.00208079,-0
 .00051764,0.00126942,0.00013570,0.00014541,-0.00030278,0.00000838,-0.0
 0005338,-0.00003379,-0.00009711,-0.00001129,0.00021580,-0.00010008,0.0
 0003130,-0.00011570,0.00001975,-0.00000445,0.00000414,0.00001767,-0.00
 000770,0.00003961,-0.00005870,0.00003417,-0.00005399,0.00000133,0.0000
 0103,-0.00000803,0.00003970,0.00000327,0.00004129,-0.00011089,0.000004
 33,-0.00005709,0.00006304,0.00002684,-0.00002312,-0.00001148,0.0000694
 8,-0.00007613,0.00008419,-0.00001704,0.00009279,-0.11974339,-0.0473911
 4,0.10298689\\0.00002430,-0.00005110,-0.00002880,0.00001081,0.00002347
 ,0.00000220,0.00000106,0.00000377,0.00000061,0.00001035,0.00000776,-0.
 00001132,-0.00000223,-0.00001113,-0.00000641,-0.00005104,0.00005442,-0
 .00002511,-0.00001509,0.00001728,-0.00003687,0.00003051,0.00001903,-0.
 00002119,-0.00004687,-0.00000487,0.00004372,-0.00002106,0.00000312,-0.
 00000761,0.00000106,0.00002370,-0.00003042,-0.00001786,-0.00002209,0.0
 0005314,0.00009672,-0.00005251,0.00011478,-0.00001076,0.00000736,0.000
 01379,0.00001415,0.00000571,0.00001125,-0.00003674,-0.00000170,-0.0000
 0839,-0.00000923,-0.00000037,-0.00001239,-0.00000202,-0.00004420,-0.00
 002925,-0.00001555,0.00000309,0.00000335,0.00001567,-0.00000363,0.0000
 1223,0.00002802,-0.00002723,-0.00004059,-0.00000868,-0.00000405,-0.000
 00202,-0.00000701,0.00004927,0.00001094,0.00001846,0.00003877,0.000008
 57,-0.00000748,0.00000102,-0.00001770,0.00000732,-0.00002040,-0.000002
 35,0.00001190,0.00000102,-0.00000316,-0.00000174,-0.00000277,-0.000002
 74,0.00000467,0.00000234,-0.00001359,-0.00000157,0.00000649,0.00001088
 ,0.00000874,0.00000657,0.00000149,-0.00000524,0.00000211,-0.00000555,0
 .00000020,-0.00002114,0.00000786,0.00000269,0.00000101,-0.00000508,0.0
 0000472,0.00000204,0.00000151,-0.00000314,-0.00000379,0.00001394,-0.00
 003097,0.00000620,-0.00003925,-0.00001811,0.00001501,-0.00000392,0.000
 05307,-0.00003145,0.00001265,-0.00000334,0.00001674,0.00000826,0.00000
 719,-0.00000254,-0.00000671,-0.00003057,0.00000242,0.00000910,0.000004
 78,-0.00002250,0.00003206,0.00000661,0.00001582,-0.00001021,0.00000095
 ,-0.00002355,-0.00000182,0.00000826,0.00001293,0.00001802,-0.00000466,
 0.00001748,0.00000283,0.00001541,0.00000847,-0.00000883,-0.00000078,-0
 .00000408,0.00000652,-0.00000332,-0.00000366,-0.00000378,-0.00000553,0
 .00001221,0.00000318,-0.00002236,-0.00001028,-0.00001845,0.00000169,-0
 .00000590,-0.00000198,0.00002014,0.00000967,0.00000339,-0.00000375,-0.
 00000462,0.00000686,-0.00000399,0.00000148,0.00000171,-0.00000871,-0.0
 0002332,0.00000089,-0.00000638,0.00000095,-0.00000232,0.00000021,0.000
 00539,0.00000347,0.00000308,-0.00000299,-0.00000259,-0.00000691,0.0000
 0176,-0.00000880\\\@
 The archive entry for this job was punched.


 NATURE WILL TELL YOU A DIRECT LIE IF SHE CAN.

                                -- CHARLES DARWIN
 Job cpu time:       5 days  1 hours 50 minutes 50.8 seconds.
 Elapsed time:       0 days  2 hours 39 minutes 29.8 seconds.
 File lengths (MBytes):  RWF=  12140 Int=      0 D2E=      0 Chk=    127 Scr=      2
 Normal termination of Gaussian 16 at Thu Feb 16 14:23:33 2023.
