 Entering Gaussian System, Link 0=g16
 Initial command:
 /home/chesagar/softwares/G16_AVX2//g16/l1.exe "/home/chesagar/scratch/Gau-122822.inp" -scrdir="/home/chesagar/scratch/"
 Entering Link 1 = /home/chesagar/softwares/G16_AVX2//g16/l1.exe PID=    122823.
  
 Copyright (c) 1988-2019, Gaussian, Inc.  All Rights Reserved.
  
 This is part of the Gaussian(R) 16 program.  It is based on
 the Gaussian(R) 09 system (copyright 2009, Gaussian, Inc.),
 the Gaussian(R) 03 system (copyright 2003, Gaussian, Inc.),
 the Gaussian(R) 98 system (copyright 1998, Gaussian, Inc.),
 the Gaussian(R) 94 system (copyright 1995, Gaussian, Inc.),
 the Gaussian 92(TM) system (copyright 1992, Gaussian, Inc.),
 the Gaussian 90(TM) system (copyright 1990, Gaussian, Inc.),
 the Gaussian 88(TM) system (copyright 1988, Gaussian, Inc.),
 the Gaussian 86(TM) system (copyright 1986, Carnegie Mellon
 University), and the Gaussian 82(TM) system (copyright 1983,
 Carnegie Mellon University). Gaussian is a federally registered
 trademark of Gaussian, Inc.
  
 This software contains proprietary and confidential information,
 including trade secrets, belonging to Gaussian, Inc.
  
 This software is provided under written license and may be
 used, copied, transmitted, or stored only in accord with that
 written license.
  
 The following legend is applicable only to US Government
 contracts under FAR:
  
                    RESTRICTED RIGHTS LEGEND
  
 Use, reproduction and disclosure by the US Government is
 subject to restrictions as set forth in subparagraphs (a)
 and (c) of the Commercial Computer Software - Restricted
 Rights clause in FAR 52.227-19.
  
 Gaussian, Inc.
 340 Quinnipiac St., Bldg. 40, Wallingford CT 06492
  
  
 ---------------------------------------------------------------
 Warning -- This program may not be used in any manner that
 competes with the business of Gaussian, Inc. or will provide
 assistance to any competitor of Gaussian, Inc.  The licensee
 of this program is prohibited from giving any competitor of
 Gaussian, Inc. access to this program.  By using this program,
 the user acknowledges that Gaussian, Inc. is engaged in the
 business of creating and licensing software in the field of
 computational chemistry and represents and warrants to the
 licensee that it is not a competitor of Gaussian, Inc. and that
 it will not use this program in any manner prohibited above.
 ---------------------------------------------------------------
  

 Cite this work as:
 Gaussian 16, Revision C.01,
 M. J. Frisch, G. W. Trucks, H. B. Schlegel, G. E. Scuseria, 
 M. A. Robb, J. R. Cheeseman, G. Scalmani, V. Barone, 
 G. A. Petersson, H. Nakatsuji, X. Li, M. Caricato, A. V. Marenich, 
 J. Bloino, B. G. Janesko, R. Gomperts, B. Mennucci, H. P. Hratchian, 
 J. V. Ortiz, A. F. Izmaylov, J. L. Sonnenberg, D. Williams-Young, 
 F. Ding, F. Lipparini, F. Egidi, J. Goings, B. Peng, A. Petrone, 
 T. Henderson, D. Ranasinghe, V. G. Zakrzewski, J. Gao, N. Rega, 
 G. Zheng, W. Liang, M. Hada, M. Ehara, K. Toyota, R. Fukuda, 
 J. Hasegawa, M. Ishida, T. Nakajima, Y. Honda, O. Kitao, H. Nakai, 
 T. Vreven, K. Throssell, J. A. Montgomery, Jr., J. E. Peralta, 
 F. Ogliaro, M. J. Bearpark, J. J. Heyd, E. N. Brothers, K. N. Kudin, 
 V. N. Staroverov, T. A. Keith, R. Kobayashi, J. Normand, 
 K. Raghavachari, A. P. Rendell, J. C. Burant, S. S. Iyengar, 
 J. Tomasi, M. Cossi, J. M. Millam, M. Klene, C. Adamo, R. Cammi, 
 J. W. Ochterski, R. L. Martin, K. Morokuma, O. Farkas, 
 J. B. Foresman, and D. J. Fox, Gaussian, Inc., Wallingford CT, 2019.
 
 ******************************************
 Gaussian 16:  ES64L-G16RevC.01  3-Jul-2019
                10-Feb-2023 
 ******************************************
 %nprocshared=46
 Will use up to   46 processors via shared memory.
 %chk=i3_1-13_ts_min2.chk
 %mem=100GB
 ---------------------------------------------------------
 # opt freq b3lyp/gen nosymm pseudo=read scf=maxcycles=500
 ---------------------------------------------------------
 1/18=20,19=15,26=3,38=1/1,3;
 2/9=110,12=2,15=1,17=6,18=5,40=1/2;
 3/5=7,11=2,16=1,17=8,25=1,30=1,71=1,74=-5/1,2,3;
 4//1;
 5/5=2,7=500,38=5/2;
 6/7=2,8=2,9=2,10=2,28=1/1;
 7/30=1/1,2,3,16;
 1/18=20,19=15,26=3/3(2);
 2/9=110,15=1/2;
 99//99;
 2/9=110,15=1/2;
 3/5=7,6=1,11=2,16=1,17=8,25=1,30=1,71=1,74=-5,82=7/1,2,3;
 4/5=5,16=3,69=1/1;
 5/5=2,7=500,38=5/2;
 7/30=1/1,2,3,16;
 1/18=20,19=15,26=3/3(-5);
 2/9=110,15=1/2;
 6/7=2,8=2,9=2,10=2,19=2,28=1/1;
 99/9=1/99;
 -------------------
 Title Card Required
 -------------------
 Symbolic Z-matrix:
 Charge =  0 Multiplicity = 1
 42                   -0.01914   1.67655   12.43165 
 16                    1.76844   2.86722   13.46648 
 16                   -1.15022   2.36918   14.56994 
 16                   -0.71189   0.8151    10.23728 
 16                    1.65747  -0.10095   12.09119 
 42                   -2.48222   2.46825   10.73332 
 16                   -3.0591    2.20676   8.42521 
 16                   -0.57839   3.84391   11.41428 
 42                    0.65423   2.7479    9.604 
 16                    0.01322   2.43946   7.36873 
 16                    2.60367   1.30567   9.46181 
 42                    3.12775   1.73745   11.83741 
 42                   -1.37955   4.05043   8.6542 
 16                    4.44898   2.3295    14.21832 
 16                    4.79677   3.55761   11.12834 
 16                   -3.39717   4.95205   9.95764 
 16                    1.49109   6.69507   7.12649 
 42                   -5.1633    3.37794   9.1101 
 16                   -6.02818   1.33517   9.45739 
 16                   -6.23332   4.18375   10.96567 
 42                    2.55852   0.58497   14.2125 
 16                    4.07543  -1.20683   14.10801 
 16                    1.68757   1.44061   16.27282 
 42                    1.60834   4.20073   7.39886 
 16                    0.64306   4.73645   5.05875 
 16                    2.25409   4.65408   9.63616 
 42                    4.03727   3.26161   8.63865 
 16                    3.17496   2.71516   6.42768 
 16                    5.64754   5.14134   8.59196 
 42                    4.72758   4.56172   6.41399 
 16                    6.54891   3.1839    5.48445 
 16                    4.40254   6.86883   6.32407 
 42                    2.61182   6.1944    4.87458 
 16                    3.88879   4.64459   3.94198 
 16                   -1.24204   7.91742   5.11242 
 42                   -0.80561   6.28709   6.36292 
 16                   -2.34655   4.479     6.18937 
 16                   -1.28486   6.57492   8.66247 
 42                   -3.4292    5.94019   7.68731 
 16                   -5.57784   4.48845   7.24824 
 16                   -4.33556   7.74828   7.08796 
 42                   -5.36891   1.99389   11.8206 
 16                   -3.65226   3.38648   12.79277 
 16                   -3.69269   0.35827   11.3619 
 42                   -3.11261   1.19884   13.54017 
 16                   -1.24677  -0.35891   13.27115 
 16                   -4.29146   0.44905   15.12817 
 42                   -0.19252   0.23682   15.4858 
 16                    1.19937  -1.46492   14.96202 
 16                   -1.26932  -0.42125   17.18607 
 42                    5.70024   0.52277   13.75054 
 16                    4.97427   0.05106   11.34462 
 16                    7.51458   1.33347   12.39067 
 42                    6.25337   1.98616   10.47495 
 16                    5.52735   1.31475   8.29443 
 16                    8.24985   3.10975   9.85531 
 42                    6.84867   3.25332   8.02731 
 16                    8.38326   3.86775   6.36022 
 16                    2.27076   7.70139   3.43453 
 16                    7.0061    0.00208   15.33893 
 16                   -7.05318   1.39246   12.9537 
 

 GradGradGradGradGradGradGradGradGradGradGradGradGradGradGradGradGradGrad
 Berny optimization.
 Initialization pass.
                           ----------------------------
                           !    Initial Parameters    !
                           ! (Angstroms and Degrees)  !
 --------------------------                            --------------------------
 ! Name  Definition              Value          Derivative Info.                !
 --------------------------------------------------------------------------------
 ! R1    R(1,2)                  2.3841         estimate D2E/DX2                !
 ! R2    R(1,3)                  2.5162         estimate D2E/DX2                !
 ! R3    R(1,4)                  2.4571         estimate D2E/DX2                !
 ! R4    R(1,5)                  2.4671         estimate D2E/DX2                !
 ! R5    R(1,6)                  3.0948         estimate D2E/DX2                !
 ! R6    R(1,8)                  2.4587         estimate D2E/DX2                !
 ! R7    R(1,9)                  3.0979         estimate D2E/DX2                !
 ! R8    R(1,46)                 2.5209         estimate D2E/DX2                !
 ! R9    R(2,12)                 2.4037         estimate D2E/DX2                !
 ! R10   R(2,21)                 2.5277         estimate D2E/DX2                !
 ! R11   R(3,45)                 2.5062         estimate D2E/DX2                !
 ! R12   R(3,48)                 2.5106         estimate D2E/DX2                !
 ! R13   R(4,6)                  2.4725         estimate D2E/DX2                !
 ! R14   R(4,9)                  2.4501         estimate D2E/DX2                !
 ! R15   R(5,12)                 2.3677         estimate D2E/DX2                !
 ! R16   R(5,21)                 2.4047         estimate D2E/DX2                !
 ! R17   R(6,7)                  2.3934         estimate D2E/DX2                !
 ! R18   R(6,8)                  2.4456         estimate D2E/DX2                !
 ! R19   R(6,13)                 2.8358         estimate D2E/DX2                !
 ! R20   R(6,16)                 2.7583         estimate D2E/DX2                !
 ! R21   R(6,43)                 2.5404         estimate D2E/DX2                !
 ! R22   R(6,44)                 2.5124         estimate D2E/DX2                !
 ! R23   R(7,13)                 2.5045         estimate D2E/DX2                !
 ! R24   R(7,18)                 2.5037         estimate D2E/DX2                !
 ! R25   R(8,9)                  2.449          estimate D2E/DX2                !
 ! R26   R(9,10)                 2.3457         estimate D2E/DX2                !
 ! R27   R(9,11)                 2.4291         estimate D2E/DX2                !
 ! R28   R(9,13)                 2.5952         estimate D2E/DX2                !
 ! R29   R(9,24)                 2.8078         estimate D2E/DX2                !
 ! R30   R(9,26)                 2.4888         estimate D2E/DX2                !
 ! R31   R(10,13)                2.4875         estimate D2E/DX2                !
 ! R32   R(10,24)                2.3764         estimate D2E/DX2                !
 ! R33   R(11,12)                2.4707         estimate D2E/DX2                !
 ! R34   R(11,27)                2.561          estimate D2E/DX2                !
 ! R35   R(12,15)                2.5693         estimate D2E/DX2                !
 ! R36   R(12,21)                2.7006         estimate D2E/DX2                !
 ! R37   R(12,52)                2.5488         estimate D2E/DX2                !
 ! R38   R(13,16)                2.5657         estimate D2E/DX2                !
 ! R39   R(13,37)                2.6822         estimate D2E/DX2                !
 ! R40   R(13,38)                2.5263         estimate D2E/DX2                !
 ! R41   R(13,39)                2.9508         estimate D2E/DX2                !
 ! R42   R(14,21)                2.5724         estimate D2E/DX2                !
 ! R43   R(14,51)                2.2469         estimate D2E/DX2                !
 ! R44   R(15,27)                2.6197         estimate D2E/DX2                !
 ! R45   R(15,54)                2.2401         estimate D2E/DX2                !
 ! R46   R(16,18)                2.513          estimate D2E/DX2                !
 ! R47   R(16,39)                2.4763         estimate D2E/DX2                !
 ! R48   R(17,24)                2.5119         estimate D2E/DX2                !
 ! R49   R(17,33)                2.5647         estimate D2E/DX2                !
 ! R50   R(17,36)                2.4544         estimate D2E/DX2                !
 ! R51   R(18,19)                2.2453         estimate D2E/DX2                !
 ! R52   R(18,20)                2.2885         estimate D2E/DX2                !
 ! R53   R(18,40)                2.2072         estimate D2E/DX2                !
 ! R54   R(18,42)                3.0504         estimate D2E/DX2                !
 ! R55   R(19,42)                2.5403         estimate D2E/DX2                !
 ! R56   R(20,42)                2.5047         estimate D2E/DX2                !
 ! R57   R(21,22)                2.35           estimate D2E/DX2                !
 ! R58   R(21,23)                2.3949         estimate D2E/DX2                !
 ! R59   R(21,48)                3.0513         estimate D2E/DX2                !
 ! R60   R(21,49)                2.5712         estimate D2E/DX2                !
 ! R61   R(22,51)                2.3999         estimate D2E/DX2                !
 ! R62   R(23,48)                2.3671         estimate D2E/DX2                !
 ! R63   R(24,25)                2.5874         estimate D2E/DX2                !
 ! R64   R(24,26)                2.3723         estimate D2E/DX2                !
 ! R65   R(24,27)                2.8842         estimate D2E/DX2                !
 ! R66   R(24,28)                2.3674         estimate D2E/DX2                !
 ! R67   R(25,33)                2.4567         estimate D2E/DX2                !
 ! R68   R(25,36)                2.4908         estimate D2E/DX2                !
 ! R69   R(26,27)                2.4726         estimate D2E/DX2                !
 ! R70   R(27,28)                2.4353         estimate D2E/DX2                !
 ! R71   R(27,29)                2.4756         estimate D2E/DX2                !
 ! R72   R(27,30)                2.6676         estimate D2E/DX2                !
 ! R73   R(27,55)                2.4757         estimate D2E/DX2                !
 ! R74   R(27,57)                2.8771         estimate D2E/DX2                !
 ! R75   R(28,30)                2.4126         estimate D2E/DX2                !
 ! R76   R(29,30)                2.4343         estimate D2E/DX2                !
 ! R77   R(29,57)                2.3078         estimate D2E/DX2                !
 ! R78   R(30,31)                2.4657         estimate D2E/DX2                !
 ! R79   R(30,32)                2.3316         estimate D2E/DX2                !
 ! R80   R(30,33)                3.0841         estimate D2E/DX2                !
 ! R81   R(30,34)                2.6118         estimate D2E/DX2                !
 ! R82   R(30,57)                2.9688         estimate D2E/DX2                !
 ! R83   R(31,57)                2.5614         estimate D2E/DX2                !
 ! R84   R(31,58)                2.1446         estimate D2E/DX2                !
 ! R85   R(32,33)                2.4005         estimate D2E/DX2                !
 ! R86   R(33,34)                2.2141         estimate D2E/DX2                !
 ! R87   R(33,59)                2.1121         estimate D2E/DX2                !
 ! R88   R(35,36)                2.1005         estimate D2E/DX2                !
 ! R89   R(36,37)                2.382          estimate D2E/DX2                !
 ! R90   R(36,38)                2.3665         estimate D2E/DX2                !
 ! R91   R(36,39)                2.9593         estimate D2E/DX2                !
 ! R92   R(37,39)                2.3561         estimate D2E/DX2                !
 ! R93   R(38,39)                2.4397         estimate D2E/DX2                !
 ! R94   R(39,40)                2.63           estimate D2E/DX2                !
 ! R95   R(39,41)                2.1095         estimate D2E/DX2                !
 ! R96   R(42,43)                2.4148         estimate D2E/DX2                !
 ! R97   R(42,44)                2.3865         estimate D2E/DX2                !
 ! R98   R(42,45)                2.9462         estimate D2E/DX2                !
 ! R99   R(42,61)                2.1172         estimate D2E/DX2                !
 ! R100  R(43,45)                2.3739         estimate D2E/DX2                !
 ! R101  R(44,45)                2.4058         estimate D2E/DX2                !
 ! R102  R(45,46)                2.4455         estimate D2E/DX2                !
 ! R103  R(45,47)                2.1151         estimate D2E/DX2                !
 ! R104  R(46,48)                2.5241         estimate D2E/DX2                !
 ! R105  R(48,49)                2.26           estimate D2E/DX2                !
 ! R106  R(48,50)                2.1174         estimate D2E/DX2                !
 ! R107  R(51,52)                2.5569         estimate D2E/DX2                !
 ! R108  R(51,53)                2.408          estimate D2E/DX2                !
 ! R109  R(51,60)                2.1212         estimate D2E/DX2                !
 ! R110  R(52,54)                2.4773         estimate D2E/DX2                !
 ! R111  R(53,54)                2.3847         estimate D2E/DX2                !
 ! R112  R(54,55)                2.3943         estimate D2E/DX2                !
 ! R113  R(54,56)                2.3732         estimate D2E/DX2                !
 ! R114  R(54,57)                2.8197         estimate D2E/DX2                !
 ! R115  R(55,57)                2.3612         estimate D2E/DX2                !
 ! R116  R(56,57)                2.3077         estimate D2E/DX2                !
 ! R117  R(57,58)                2.3477         estimate D2E/DX2                !
 ! A1    A(2,1,3)               80.2536         estimate D2E/DX2                !
 ! A2    A(2,1,4)              140.7265         estimate D2E/DX2                !
 ! A3    A(2,1,5)               84.8463         estimate D2E/DX2                !
 ! A4    A(2,1,6)              135.0053         estimate D2E/DX2                !
 ! A5    A(2,1,8)               84.8314         estimate D2E/DX2                !
 ! A6    A(2,1,9)               93.4685         estimate D2E/DX2                !
 ! A7    A(2,1,46)             128.5966         estimate D2E/DX2                !
 ! A8    A(3,1,4)              136.7785         estimate D2E/DX2                !
 ! A9    A(3,1,5)              128.3956         estimate D2E/DX2                !
 ! A10   A(3,1,6)               92.1874         estimate D2E/DX2                !
 ! A11   A(3,1,8)               90.3862         estimate D2E/DX2                !
 ! A12   A(3,1,9)              141.095          estimate D2E/DX2                !
 ! A13   A(3,1,46)              73.7611         estimate D2E/DX2                !
 ! A14   A(4,1,5)               79.383          estimate D2E/DX2                !
 ! A15   A(4,1,8)               82.8414         estimate D2E/DX2                !
 ! A16   A(4,1,46)              82.936          estimate D2E/DX2                !
 ! A17   A(5,1,6)              130.5004         estimate D2E/DX2                !
 ! A18   A(5,1,8)              137.1041         estimate D2E/DX2                !
 ! A19   A(5,1,9)               88.5954         estimate D2E/DX2                !
 ! A20   A(5,1,46)              78.1795         estimate D2E/DX2                !
 ! A21   A(6,1,9)               65.3942         estimate D2E/DX2                !
 ! A22   A(6,1,46)              90.0989         estimate D2E/DX2                !
 ! A23   A(8,1,46)             137.628          estimate D2E/DX2                !
 ! A24   A(9,1,46)             133.5554         estimate D2E/DX2                !
 ! A25   A(1,2,12)              83.9793         estimate D2E/DX2                !
 ! A26   A(1,2,21)              84.9255         estimate D2E/DX2                !
 ! A27   A(1,3,45)              82.7767         estimate D2E/DX2                !
 ! A28   A(1,3,48)              84.5336         estimate D2E/DX2                !
 ! A29   A(45,3,48)             92.978          estimate D2E/DX2                !
 ! A30   A(6,4,9)               85.6205         estimate D2E/DX2                !
 ! A31   A(1,5,12)              82.9563         estimate D2E/DX2                !
 ! A32   A(1,5,21)              85.8362         estimate D2E/DX2                !
 ! A33   A(1,6,7)              133.8743         estimate D2E/DX2                !
 ! A34   A(1,6,13)             103.6266         estimate D2E/DX2                !
 ! A35   A(1,6,16)             130.4423         estimate D2E/DX2                !
 ! A36   A(1,6,43)              90.8106         estimate D2E/DX2                !
 ! A37   A(1,6,44)              91.7943         estimate D2E/DX2                !
 ! A38   A(4,6,7)               84.6095         estimate D2E/DX2                !
 ! A39   A(4,6,8)               82.7937         estimate D2E/DX2                !
 ! A40   A(4,6,13)              86.9927         estimate D2E/DX2                !
 ! A41   A(4,6,16)             141.5532         estimate D2E/DX2                !
 ! A42   A(4,6,43)             137.2316         estimate D2E/DX2                !
 ! A43   A(4,6,44)              80.4239         estimate D2E/DX2                !
 ! A44   A(7,6,8)              121.1723         estimate D2E/DX2                !
 ! A45   A(7,6,16)              75.3591         estimate D2E/DX2                !
 ! A46   A(7,6,43)             135.2569         estimate D2E/DX2                !
 ! A47   A(7,6,44)              91.9137         estimate D2E/DX2                !
 ! A48   A(8,6,13)              65.6444         estimate D2E/DX2                !
 ! A49   A(8,6,16)              80.2122         estimate D2E/DX2                !
 ! A50   A(8,6,43)              85.9572         estimate D2E/DX2                !
 ! A51   A(8,6,44)             141.0603         estimate D2E/DX2                !
 ! A52   A(13,6,43)            124.8754         estimate D2E/DX2                !
 ! A53   A(13,6,44)            147.0682         estimate D2E/DX2                !
 ! A54   A(16,6,43)             75.5058         estimate D2E/DX2                !
 ! A55   A(16,6,44)            131.8196         estimate D2E/DX2                !
 ! A56   A(43,6,44)             83.0402         estimate D2E/DX2                !
 ! A57   A(6,7,18)              83.5496         estimate D2E/DX2                !
 ! A58   A(13,7,18)            101.2007         estimate D2E/DX2                !
 ! A59   A(6,8,9)               86.2304         estimate D2E/DX2                !
 ! A60   A(1,9,10)             139.8996         estimate D2E/DX2                !
 ! A61   A(1,9,11)              91.2916         estimate D2E/DX2                !
 ! A62   A(1,9,13)             109.7119         estimate D2E/DX2                !
 ! A63   A(1,9,26)             113.1292         estimate D2E/DX2                !
 ! A64   A(4,9,8)               83.1855         estimate D2E/DX2                !
 ! A65   A(4,9,10)              89.4389         estimate D2E/DX2                !
 ! A66   A(4,9,11)              89.6697         estimate D2E/DX2                !
 ! A67   A(4,9,13)              93.071          estimate D2E/DX2                !
 ! A68   A(4,9,24)             143.1917         estimate D2E/DX2                !
 ! A69   A(4,9,26)             163.592          estimate D2E/DX2                !
 ! A70   A(8,9,10)             128.7325         estimate D2E/DX2                !
 ! A71   A(8,9,11)             135.4715         estimate D2E/DX2                !
 ! A72   A(8,9,13)              69.6032         estimate D2E/DX2                !
 ! A73   A(8,9,24)             121.3318         estimate D2E/DX2                !
 ! A74   A(8,9,26)              88.3509         estimate D2E/DX2                !
 ! A75   A(10,9,11)             94.9024         estimate D2E/DX2                !
 ! A76   A(10,9,26)            106.7793         estimate D2E/DX2                !
 ! A77   A(11,9,13)            154.8906         estimate D2E/DX2                !
 ! A78   A(11,9,24)             89.3431         estimate D2E/DX2                !
 ! A79   A(11,9,26)             86.5376         estimate D2E/DX2                !
 ! A80   A(13,9,24)             73.6901         estimate D2E/DX2                !
 ! A81   A(13,9,26)             97.1279         estimate D2E/DX2                !
 ! A82   A(13,10,24)            83.6433         estimate D2E/DX2                !
 ! A83   A(9,11,12)             90.584          estimate D2E/DX2                !
 ! A84   A(9,11,27)             90.8369         estimate D2E/DX2                !
 ! A85   A(12,11,27)            93.2583         estimate D2E/DX2                !
 ! A86   A(2,12,5)              86.625          estimate D2E/DX2                !
 ! A87   A(2,12,11)            127.8655         estimate D2E/DX2                !
 ! A88   A(2,12,15)            102.7925         estimate D2E/DX2                !
 ! A89   A(2,12,52)            148.3958         estimate D2E/DX2                !
 ! A90   A(5,12,11)             80.5404         estimate D2E/DX2                !
 ! A91   A(5,12,52)             87.5278         estimate D2E/DX2                !
 ! A92   A(11,12,15)            89.7848         estimate D2E/DX2                !
 ! A93   A(11,12,21)           136.5781         estimate D2E/DX2                !
 ! A94   A(11,12,52)            81.4976         estimate D2E/DX2                !
 ! A95   A(15,12,21)           132.9962         estimate D2E/DX2                !
 ! A96   A(15,12,52)            86.833          estimate D2E/DX2                !
 ! A97   A(21,12,52)            92.3145         estimate D2E/DX2                !
 ! A98   A(6,13,9)              75.8993         estimate D2E/DX2                !
 ! A99   A(6,13,10)            103.6074         estimate D2E/DX2                !
 ! A100  A(6,13,37)            128.514          estimate D2E/DX2                !
 ! A101  A(6,13,38)            124.7296         estimate D2E/DX2                !
 ! A102  A(6,13,39)            109.1143         estimate D2E/DX2                !
 ! A103  A(7,13,9)             100.9257         estimate D2E/DX2                !
 ! A104  A(7,13,10)             81.4589         estimate D2E/DX2                !
 ! A105  A(7,13,16)             77.1604         estimate D2E/DX2                !
 ! A106  A(7,13,37)             77.9844         estimate D2E/DX2                !
 ! A107  A(7,13,38)            139.5576         estimate D2E/DX2                !
 ! A108  A(7,13,39)             88.6056         estimate D2E/DX2                !
 ! A109  A(9,13,16)            127.353          estimate D2E/DX2                !
 ! A110  A(9,13,37)            134.3513         estimate D2E/DX2                !
 ! A111  A(9,13,38)            118.098          estimate D2E/DX2                !
 ! A112  A(10,13,16)           158.5039         estimate D2E/DX2                !
 ! A113  A(10,13,37)            80.2379         estimate D2E/DX2                !
 ! A114  A(10,13,38)           128.8941         estimate D2E/DX2                !
 ! A115  A(10,13,39)           129.3719         estimate D2E/DX2                !
 ! A116  A(16,13,37)            97.3075         estimate D2E/DX2                !
 ! A117  A(16,13,38)            71.134          estimate D2E/DX2                !
 ! A118  A(37,13,38)            81.7699         estimate D2E/DX2                !
 ! A119  A(21,14,51)            82.1529         estimate D2E/DX2                !
 ! A120  A(12,15,27)            89.6508         estimate D2E/DX2                !
 ! A121  A(12,15,54)            90.3397         estimate D2E/DX2                !
 ! A122  A(27,15,54)            80.3314         estimate D2E/DX2                !
 ! A123  A(6,16,18)             76.3447         estimate D2E/DX2                !
 ! A124  A(6,16,39)            128.4228         estimate D2E/DX2                !
 ! A125  A(13,16,18)            99.2771         estimate D2E/DX2                !
 ! A126  A(18,16,39)            86.0808         estimate D2E/DX2                !
 ! A127  A(24,17,33)            83.1633         estimate D2E/DX2                !
 ! A128  A(24,17,36)            84.9718         estimate D2E/DX2                !
 ! A129  A(33,17,36)            95.9288         estimate D2E/DX2                !
 ! A130  A(7,18,16)             78.1479         estimate D2E/DX2                !
 ! A131  A(7,18,19)             86.5866         estimate D2E/DX2                !
 ! A132  A(7,18,20)            141.2117         estimate D2E/DX2                !
 ! A133  A(7,18,40)             99.3493         estimate D2E/DX2                !
 ! A134  A(7,18,42)             95.0184         estimate D2E/DX2                !
 ! A135  A(16,18,19)           142.037          estimate D2E/DX2                !
 ! A136  A(16,18,20)            80.479          estimate D2E/DX2                !
 ! A137  A(16,18,40)            95.8161         estimate D2E/DX2                !
 ! A138  A(16,18,42)            91.8278         estimate D2E/DX2                !
 ! A139  A(19,18,20)            90.8497         estimate D2E/DX2                !
 ! A140  A(19,18,40)           121.056          estimate D2E/DX2                !
 ! A141  A(20,18,40)           114.7706         estimate D2E/DX2                !
 ! A142  A(40,18,42)           164.8394         estimate D2E/DX2                !
 ! A143  A(2,21,5)              83.1116         estimate D2E/DX2                !
 ! A144  A(2,21,14)             67.5464         estimate D2E/DX2                !
 ! A145  A(2,21,22)            151.2892         estimate D2E/DX2                !
 ! A146  A(2,21,23)             79.4937         estimate D2E/DX2                !
 ! A147  A(2,21,48)             86.8112         estimate D2E/DX2                !
 ! A148  A(2,21,49)            129.8391         estimate D2E/DX2                !
 ! A149  A(5,21,14)            118.0875         estimate D2E/DX2                !
 ! A150  A(5,21,22)             89.1495         estimate D2E/DX2                !
 ! A151  A(5,21,23)            136.4324         estimate D2E/DX2                !
 ! A152  A(5,21,48)             89.8705         estimate D2E/DX2                !
 ! A153  A(5,21,49)             80.309          estimate D2E/DX2                !
 ! A154  A(12,21,14)            63.748          estimate D2E/DX2                !
 ! A155  A(12,21,22)            98.6397         estimate D2E/DX2                !
 ! A156  A(12,21,23)           132.9048         estimate D2E/DX2                !
 ! A157  A(12,21,48)           127.2805         estimate D2E/DX2                !
 ! A158  A(12,21,49)           135.0731         estimate D2E/DX2                !
 ! A159  A(14,21,22)            92.4535         estimate D2E/DX2                !
 ! A160  A(14,21,23)            91.3193         estimate D2E/DX2                !
 ! A161  A(14,21,48)           137.6471         estimate D2E/DX2                !
 ! A162  A(14,21,49)           158.1993         estimate D2E/DX2                !
 ! A163  A(22,21,23)           123.0527         estimate D2E/DX2                !
 ! A164  A(22,21,48)           120.8989         estimate D2E/DX2                !
 ! A165  A(22,21,49)            75.303          estimate D2E/DX2                !
 ! A166  A(23,21,49)            80.8989         estimate D2E/DX2                !
 ! A167  A(21,22,51)            83.9228         estimate D2E/DX2                !
 ! A168  A(9,24,17)            125.6695         estimate D2E/DX2                !
 ! A169  A(9,24,25)            133.6819         estimate D2E/DX2                !
 ! A170  A(9,24,27)             77.2966         estimate D2E/DX2                !
 ! A171  A(9,24,28)            102.8473         estimate D2E/DX2                !
 ! A172  A(10,24,17)           134.689          estimate D2E/DX2                !
 ! A173  A(10,24,25)            83.7755         estimate D2E/DX2                !
 ! A174  A(10,24,26)           109.6514         estimate D2E/DX2                !
 ! A175  A(10,24,27)           109.232          estimate D2E/DX2                !
 ! A176  A(10,24,28)            88.5044         estimate D2E/DX2                !
 ! A177  A(17,24,25)            71.272          estimate D2E/DX2                !
 ! A178  A(17,24,26)            85.7104         estimate D2E/DX2                !
 ! A179  A(17,24,27)           114.1577         estimate D2E/DX2                !
 ! A180  A(17,24,28)           127.5564         estimate D2E/DX2                !
 ! A181  A(25,24,26)           156.1927         estimate D2E/DX2                !
 ! A182  A(25,24,27)           140.3853         estimate D2E/DX2                !
 ! A183  A(25,24,28)            90.3311         estimate D2E/DX2                !
 ! A184  A(26,24,28)           109.0667         estimate D2E/DX2                !
 ! A185  A(24,25,33)            83.7833         estimate D2E/DX2                !
 ! A186  A(24,25,36)            82.6648         estimate D2E/DX2                !
 ! A187  A(33,25,36)            97.8099         estimate D2E/DX2                !
 ! A188  A(9,26,27)             91.5498         estimate D2E/DX2                !
 ! A189  A(11,27,15)            86.739          estimate D2E/DX2                !
 ! A190  A(11,27,24)            85.1484         estimate D2E/DX2                !
 ! A191  A(11,27,26)            84.073          estimate D2E/DX2                !
 ! A192  A(11,27,28)            85.5393         estimate D2E/DX2                !
 ! A193  A(11,27,29)           161.8247         estimate D2E/DX2                !
 ! A194  A(11,27,30)           141.7352         estimate D2E/DX2                !
 ! A195  A(11,27,55)            77.3506         estimate D2E/DX2                !
 ! A196  A(11,27,57)           127.8144         estimate D2E/DX2                !
 ! A197  A(15,27,24)           128.0155         estimate D2E/DX2                !
 ! A198  A(15,27,26)            76.2344         estimate D2E/DX2                !
 ! A199  A(15,27,29)            75.1407         estimate D2E/DX2                !
 ! A200  A(15,27,30)           131.4888         estimate D2E/DX2                !
 ! A201  A(15,27,55)            92.665          estimate D2E/DX2                !
 ! A202  A(15,27,57)            85.3521         estimate D2E/DX2                !
 ! A203  A(24,27,29)           107.0039         estimate D2E/DX2                !
 ! A204  A(24,27,30)            72.5877         estimate D2E/DX2                !
 ! A205  A(24,27,55)           134.681          estimate D2E/DX2                !
 ! A206  A(24,27,57)           137.0973         estimate D2E/DX2                !
 ! A207  A(26,27,28)           103.7255         estimate D2E/DX2                !
 ! A208  A(26,27,29)            92.8137         estimate D2E/DX2                !
 ! A209  A(26,27,30)           104.3944         estimate D2E/DX2                !
 ! A210  A(26,27,55)           158.9107         estimate D2E/DX2                !
 ! A211  A(26,27,57)           142.3772         estimate D2E/DX2                !
 ! A212  A(28,27,29)           112.5556         estimate D2E/DX2                !
 ! A213  A(28,27,55)            84.8613         estimate D2E/DX2                !
 ! A214  A(28,27,57)            98.7688         estimate D2E/DX2                !
 ! A215  A(29,27,55)           101.7117         estimate D2E/DX2                !
 ! A216  A(30,27,55)            96.4051         estimate D2E/DX2                !
 ! A217  A(24,28,30)            87.0139         estimate D2E/DX2                !
 ! A218  A(27,30,31)           103.4858         estimate D2E/DX2                !
 ! A219  A(27,30,32)           118.577          estimate D2E/DX2                !
 ! A220  A(27,30,33)           119.7849         estimate D2E/DX2                !
 ! A221  A(27,30,34)           136.1947         estimate D2E/DX2                !
 ! A222  A(28,30,29)           114.8581         estimate D2E/DX2                !
 ! A223  A(28,30,31)            92.8555         estimate D2E/DX2                !
 ! A224  A(28,30,32)           131.9004         estimate D2E/DX2                !
 ! A225  A(28,30,33)            88.0816         estimate D2E/DX2                !
 ! A226  A(28,30,34)            79.8033         estimate D2E/DX2                !
 ! A227  A(28,30,57)            96.8569         estimate D2E/DX2                !
 ! A228  A(29,30,31)           101.0223         estimate D2E/DX2                !
 ! A229  A(29,30,32)            81.465          estimate D2E/DX2                !
 ! A230  A(29,30,33)           125.4355         estimate D2E/DX2                !
 ! A231  A(29,30,34)           163.8718         estimate D2E/DX2                !
 ! A232  A(31,30,32)           129.8928         estimate D2E/DX2                !
 ! A233  A(31,30,33)           127.907          estimate D2E/DX2                !
 ! A234  A(31,30,34)            84.1538         estimate D2E/DX2                !
 ! A235  A(32,30,34)            83.5309         estimate D2E/DX2                !
 ! A236  A(32,30,57)           123.8238         estimate D2E/DX2                !
 ! A237  A(34,30,57)           139.2697         estimate D2E/DX2                !
 ! A238  A(30,31,58)           107.4381         estimate D2E/DX2                !
 ! A239  A(17,33,25)            72.533          estimate D2E/DX2                !
 ! A240  A(17,33,30)            87.9859         estimate D2E/DX2                !
 ! A241  A(17,33,32)            74.9864         estimate D2E/DX2                !
 ! A242  A(17,33,34)           139.3321         estimate D2E/DX2                !
 ! A243  A(17,33,59)           112.8796         estimate D2E/DX2                !
 ! A244  A(25,33,30)           101.4302         estimate D2E/DX2                !
 ! A245  A(25,33,32)           135.9934         estimate D2E/DX2                !
 ! A246  A(25,33,34)            94.4946         estimate D2E/DX2                !
 ! A247  A(25,33,59)           110.19           estimate D2E/DX2                !
 ! A248  A(30,33,59)           145.9754         estimate D2E/DX2                !
 ! A249  A(32,33,34)            91.1895         estimate D2E/DX2                !
 ! A250  A(32,33,59)           109.371          estimate D2E/DX2                !
 ! A251  A(34,33,59)           107.7807         estimate D2E/DX2                !
 ! A252  A(17,36,25)            73.8673         estimate D2E/DX2                !
 ! A253  A(17,36,35)           104.5137         estimate D2E/DX2                !
 ! A254  A(17,36,37)           138.9536         estimate D2E/DX2                !
 ! A255  A(17,36,38)            82.3563         estimate D2E/DX2                !
 ! A256  A(17,36,39)           135.2212         estimate D2E/DX2                !
 ! A257  A(25,36,35)           106.9972         estimate D2E/DX2                !
 ! A258  A(25,36,37)            82.2727         estimate D2E/DX2                !
 ! A259  A(25,36,38)           134.6103         estimate D2E/DX2                !
 ! A260  A(25,36,39)           132.6079         estimate D2E/DX2                !
 ! A261  A(35,36,37)           114.2908         estimate D2E/DX2                !
 ! A262  A(35,36,38)           116.2318         estimate D2E/DX2                !
 ! A263  A(35,36,39)            99.9747         estimate D2E/DX2                !
 ! A264  A(37,36,38)            91.8403         estimate D2E/DX2                !
 ! A265  A(13,37,36)            79.6942         estimate D2E/DX2                !
 ! A266  A(13,38,36)            83.2735         estimate D2E/DX2                !
 ! A267  A(13,39,36)            66.7906         estimate D2E/DX2                !
 ! A268  A(13,39,40)           105.5854         estimate D2E/DX2                !
 ! A269  A(13,39,41)           160.1312         estimate D2E/DX2                !
 ! A270  A(16,39,36)           116.4634         estimate D2E/DX2                !
 ! A271  A(16,39,37)           109.2376         estimate D2E/DX2                !
 ! A272  A(16,39,38)            74.0966         estimate D2E/DX2                !
 ! A273  A(16,39,40)            86.7532         estimate D2E/DX2                !
 ! A274  A(16,39,41)           127.4512         estimate D2E/DX2                !
 ! A275  A(36,39,40)           135.5841         estimate D2E/DX2                !
 ! A276  A(36,39,41)            98.8175         estimate D2E/DX2                !
 ! A277  A(37,39,38)            90.6643         estimate D2E/DX2                !
 ! A278  A(37,39,40)            85.81           estimate D2E/DX2                !
 ! A279  A(37,39,41)           123.2552         estimate D2E/DX2                !
 ! A280  A(38,39,40)           158.1888         estimate D2E/DX2                !
 ! A281  A(38,39,41)           105.5582         estimate D2E/DX2                !
 ! A282  A(40,39,41)            94.282          estimate D2E/DX2                !
 ! A283  A(18,40,39)            89.0521         estimate D2E/DX2                !
 ! A284  A(18,42,43)            92.76           estimate D2E/DX2                !
 ! A285  A(18,42,44)            95.3269         estimate D2E/DX2                !
 ! A286  A(18,42,45)           126.1186         estimate D2E/DX2                !
 ! A287  A(18,42,61)           131.1538         estimate D2E/DX2                !
 ! A288  A(19,42,20)            79.6078         estimate D2E/DX2                !
 ! A289  A(19,42,43)           135.1166         estimate D2E/DX2                !
 ! A290  A(19,42,44)            79.9656         estimate D2E/DX2                !
 ! A291  A(19,42,45)           132.2019         estimate D2E/DX2                !
 ! A292  A(19,42,61)           102.5775         estimate D2E/DX2                !
 ! A293  A(20,42,43)            83.0246         estimate D2E/DX2                !
 ! A294  A(20,42,44)           140.8963         estimate D2E/DX2                !
 ! A295  A(20,42,45)           134.3838         estimate D2E/DX2                !
 ! A296  A(20,42,61)            99.0032         estimate D2E/DX2                !
 ! A297  A(43,42,44)            88.4708         estimate D2E/DX2                !
 ! A298  A(43,42,61)           120.923          estimate D2E/DX2                !
 ! A299  A(44,42,61)           117.8357         estimate D2E/DX2                !
 ! A300  A(45,42,61)           102.7217         estimate D2E/DX2                !
 ! A301  A(6,43,42)             78.0299         estimate D2E/DX2                !
 ! A302  A(6,43,45)             79.4816         estimate D2E/DX2                !
 ! A303  A(6,44,42)             79.1            estimate D2E/DX2                !
 ! A304  A(6,44,45)             79.4517         estimate D2E/DX2                !
 ! A305  A(3,45,42)            135.5172         estimate D2E/DX2                !
 ! A306  A(3,45,43)             82.9362         estimate D2E/DX2                !
 ! A307  A(3,45,44)            136.3837         estimate D2E/DX2                !
 ! A308  A(3,45,46)             75.2406         estimate D2E/DX2                !
 ! A309  A(3,45,47)            107.0654         estimate D2E/DX2                !
 ! A310  A(42,45,46)           133.7895         estimate D2E/DX2                !
 ! A311  A(42,45,47)            96.1443         estimate D2E/DX2                !
 ! A312  A(43,45,44)            88.9746         estimate D2E/DX2                !
 ! A313  A(43,45,46)           136.5362         estimate D2E/DX2                !
 ! A314  A(43,45,47)           115.8714         estimate D2E/DX2                !
 ! A315  A(44,45,46)            82.0563         estimate D2E/DX2                !
 ! A316  A(44,45,47)           114.9322         estimate D2E/DX2                !
 ! A317  A(46,45,47)           106.3817         estimate D2E/DX2                !
 ! A318  A(1,46,45)             83.9073         estimate D2E/DX2                !
 ! A319  A(1,46,48)             84.1585         estimate D2E/DX2                !
 ! A320  A(45,46,48)            94.1182         estimate D2E/DX2                !
 ! A321  A(3,48,21)             95.4388         estimate D2E/DX2                !
 ! A322  A(3,48,23)             89.5605         estimate D2E/DX2                !
 ! A323  A(3,48,46)             73.8026         estimate D2E/DX2                !
 ! A324  A(3,48,49)            142.1795         estimate D2E/DX2                !
 ! A325  A(3,48,50)            111.2791         estimate D2E/DX2                !
 ! A326  A(21,48,46)            92.1413         estimate D2E/DX2                !
 ! A327  A(21,48,50)           145.9997         estimate D2E/DX2                !
 ! A328  A(23,48,46)           138.029          estimate D2E/DX2                !
 ! A329  A(23,48,49)            88.3278         estimate D2E/DX2                !
 ! A330  A(23,48,50)           107.1567         estimate D2E/DX2                !
 ! A331  A(46,48,49)            82.887          estimate D2E/DX2                !
 ! A332  A(46,48,50)           114.7585         estimate D2E/DX2                !
 ! A333  A(49,48,50)           105.384          estimate D2E/DX2                !
 ! A334  A(14,51,22)            99.8736         estimate D2E/DX2                !
 ! A335  A(14,51,52)           100.7265         estimate D2E/DX2                !
 ! A336  A(14,51,53)           105.4529         estimate D2E/DX2                !
 ! A337  A(14,51,60)           112.601          estimate D2E/DX2                !
 ! A338  A(22,51,52)            79.3375         estimate D2E/DX2                !
 ! A339  A(22,51,53)           146.8143         estimate D2E/DX2                !
 ! A340  A(22,51,60)            97.3743         estimate D2E/DX2                !
 ! A341  A(52,51,53)            75.2061         estimate D2E/DX2                !
 ! A342  A(52,51,60)           146.5224         estimate D2E/DX2                !
 ! A343  A(53,51,60)            92.3882         estimate D2E/DX2                !
 ! A344  A(12,52,51)            84.3592         estimate D2E/DX2                !
 ! A345  A(12,52,54)            85.705          estimate D2E/DX2                !
 ! A346  A(51,52,54)            92.2707         estimate D2E/DX2                !
 ! A347  A(51,53,54)            98.4721         estimate D2E/DX2                !
 ! A348  A(15,54,52)            96.3057         estimate D2E/DX2                !
 ! A349  A(15,54,53)           107.5528         estimate D2E/DX2                !
 ! A350  A(15,54,55)           105.3779         estimate D2E/DX2                !
 ! A351  A(15,54,56)           106.9205         estimate D2E/DX2                !
 ! A352  A(15,54,57)            94.3136         estimate D2E/DX2                !
 ! A353  A(52,54,53)            77.1299         estimate D2E/DX2                !
 ! A354  A(52,54,55)            86.7954         estimate D2E/DX2                !
 ! A355  A(52,54,56)           153.6156         estimate D2E/DX2                !
 ! A356  A(52,54,57)           139.886          estimate D2E/DX2                !
 ! A357  A(53,54,55)           144.6119         estimate D2E/DX2                !
 ! A358  A(53,54,56)            83.939          estimate D2E/DX2                !
 ! A359  A(53,54,57)           135.1273         estimate D2E/DX2                !
 ! A360  A(55,54,56)            98.6311         estimate D2E/DX2                !
 ! A361  A(27,55,54)            80.5237         estimate D2E/DX2                !
 ! A362  A(27,57,31)            95.5473         estimate D2E/DX2                !
 ! A363  A(27,57,54)            67.0802         estimate D2E/DX2                !
 ! A364  A(27,57,56)           115.1616         estimate D2E/DX2                !
 ! A365  A(27,57,58)           142.0789         estimate D2E/DX2                !
 ! A366  A(29,57,31)           101.7802         estimate D2E/DX2                !
 ! A367  A(29,57,54)            92.6013         estimate D2E/DX2                !
 ! A368  A(29,57,55)           110.6549         estimate D2E/DX2                !
 ! A369  A(29,57,56)            99.968          estimate D2E/DX2                !
 ! A370  A(29,57,58)           107.4474         estimate D2E/DX2                !
 ! A371  A(30,57,54)           121.2606         estimate D2E/DX2                !
 ! A372  A(30,57,55)            91.3467         estimate D2E/DX2                !
 ! A373  A(30,57,56)           153.086          estimate D2E/DX2                !
 ! A374  A(30,57,58)            88.0392         estimate D2E/DX2                !
 ! A375  A(31,57,54)           145.5744         estimate D2E/DX2                !
 ! A376  A(31,57,55)            91.4078         estimate D2E/DX2                !
 ! A377  A(31,57,56)           148.8441         estimate D2E/DX2                !
 ! A378  A(54,57,58)           150.6915         estimate D2E/DX2                !
 ! A379  A(55,57,56)           101.4832         estimate D2E/DX2                !
 ! A380  A(55,57,58)           131.3748         estimate D2E/DX2                !
 ! A381  A(56,57,58)           100.4798         estimate D2E/DX2                !
 ! A382  L(1,9,24,11,-1)       180.6347         estimate D2E/DX2                !
 ! A383  L(5,12,15,2,-1)       189.4175         estimate D2E/DX2                !
 ! A384  L(9,13,39,7,-1)       189.5313         estimate D2E/DX2                !
 ! A385  L(15,27,28,11,-1)     172.2784         estimate D2E/DX2                !
 ! A386  L(33,30,57,28,-1)     184.9385         estimate D2E/DX2                !
 ! A387  L(1,9,24,11,-2)       194.1366         estimate D2E/DX2                !
 ! A388  L(5,12,15,2,-2)       184.8536         estimate D2E/DX2                !
 ! A389  L(9,13,39,7,-2)       178.191          estimate D2E/DX2                !
 ! A390  L(15,27,28,11,-2)     180.8068         estimate D2E/DX2                !
 ! A391  L(33,30,57,28,-2)     183.2575         estimate D2E/DX2                !
 ! D1    D(3,1,2,12)           163.9131         estimate D2E/DX2                !
 ! D2    D(3,1,2,21)            97.2126         estimate D2E/DX2                !
 ! D3    D(4,1,2,12)           -32.7588         estimate D2E/DX2                !
 ! D4    D(4,1,2,21)           -99.4594         estimate D2E/DX2                !
 ! D5    D(5,1,2,12)            33.5046         estimate D2E/DX2                !
 ! D6    D(5,1,2,21)           -33.196          estimate D2E/DX2                !
 ! D7    D(6,1,2,12)          -112.8074         estimate D2E/DX2                !
 ! D8    D(6,1,2,21)          -179.5079         estimate D2E/DX2                !
 ! D9    D(8,1,2,12)          -104.8031         estimate D2E/DX2                !
 ! D10   D(8,1,2,21)          -171.5036         estimate D2E/DX2                !
 ! D11   D(9,1,2,12)           -54.7692         estimate D2E/DX2                !
 ! D12   D(9,1,2,21)          -121.4698         estimate D2E/DX2                !
 ! D13   D(46,1,2,12)          103.9227         estimate D2E/DX2                !
 ! D14   D(46,1,2,21)           37.2221         estimate D2E/DX2                !
 ! D15   D(2,1,3,45)           178.4091         estimate D2E/DX2                !
 ! D16   D(2,1,3,48)           -87.8792         estimate D2E/DX2                !
 ! D17   D(4,1,3,45)            13.7875         estimate D2E/DX2                !
 ! D18   D(4,1,3,48)           107.4992         estimate D2E/DX2                !
 ! D19   D(5,1,3,45)          -106.2112         estimate D2E/DX2                !
 ! D20   D(5,1,3,48)           -12.4994         estimate D2E/DX2                !
 ! D21   D(6,1,3,45)            43.0527         estimate D2E/DX2                !
 ! D22   D(6,1,3,48)           136.7645         estimate D2E/DX2                !
 ! D23   D(8,1,3,45)            93.7204         estimate D2E/DX2                !
 ! D24   D(8,1,3,48)          -172.5679         estimate D2E/DX2                !
 ! D25   D(9,1,3,45)            95.0181         estimate D2E/DX2                !
 ! D26   D(9,1,3,48)          -171.2701         estimate D2E/DX2                !
 ! D27   D(46,1,3,45)          -46.4129         estimate D2E/DX2                !
 ! D28   D(46,1,3,48)           47.2989         estimate D2E/DX2                !
 ! D29   D(2,1,5,12)           -34.1637         estimate D2E/DX2                !
 ! D30   D(2,1,5,21)            35.0849         estimate D2E/DX2                !
 ! D31   D(3,1,5,12)          -107.4044         estimate D2E/DX2                !
 ! D32   D(3,1,5,21)           -38.1559         estimate D2E/DX2                !
 ! D33   D(4,1,5,12)           109.7101         estimate D2E/DX2                !
 ! D34   D(4,1,5,21)           178.9586         estimate D2E/DX2                !
 ! D35   D(6,1,5,12)           114.7889         estimate D2E/DX2                !
 ! D36   D(6,1,5,21)          -175.9626         estimate D2E/DX2                !
 ! D37   D(8,1,5,12)            42.5416         estimate D2E/DX2                !
 ! D38   D(8,1,5,21)           111.7901         estimate D2E/DX2                !
 ! D39   D(9,1,5,12)            59.4469         estimate D2E/DX2                !
 ! D40   D(9,1,5,21)           128.6954         estimate D2E/DX2                !
 ! D41   D(46,1,5,12)         -165.3729         estimate D2E/DX2                !
 ! D42   D(46,1,5,21)          -96.1244         estimate D2E/DX2                !
 ! D43   D(2,1,6,7)            108.7382         estimate D2E/DX2                !
 ! D44   D(2,1,6,13)            52.4732         estimate D2E/DX2                !
 ! D45   D(2,1,6,16)            -2.2863         estimate D2E/DX2                !
 ! D46   D(2,1,6,43)           -73.8147         estimate D2E/DX2                !
 ! D47   D(2,1,6,44)          -156.8764         estimate D2E/DX2                !
 ! D48   D(3,1,6,7)           -172.8809         estimate D2E/DX2                !
 ! D49   D(3,1,6,13)           130.8542         estimate D2E/DX2                !
 ! D50   D(3,1,6,16)            76.0946         estimate D2E/DX2                !
 ! D51   D(3,1,6,43)             4.5662         estimate D2E/DX2                !
 ! D52   D(3,1,6,44)           -78.4954         estimate D2E/DX2                !
 ! D53   D(5,1,6,7)            -24.6684         estimate D2E/DX2                !
 ! D54   D(5,1,6,13)           -80.9334         estimate D2E/DX2                !
 ! D55   D(5,1,6,16)          -135.6929         estimate D2E/DX2                !
 ! D56   D(5,1,6,43)           152.7787         estimate D2E/DX2                !
 ! D57   D(5,1,6,44)            69.717          estimate D2E/DX2                !
 ! D58   D(9,1,6,7)             40.08           estimate D2E/DX2                !
 ! D59   D(9,1,6,13)           -16.185          estimate D2E/DX2                !
 ! D60   D(9,1,6,16)           -70.9445         estimate D2E/DX2                !
 ! D61   D(9,1,6,43)          -142.4729         estimate D2E/DX2                !
 ! D62   D(9,1,6,44)           134.4654         estimate D2E/DX2                !
 ! D63   D(46,1,6,7)           -99.128          estimate D2E/DX2                !
 ! D64   D(46,1,6,13)         -155.3929         estimate D2E/DX2                !
 ! D65   D(46,1,6,16)          149.8475         estimate D2E/DX2                !
 ! D66   D(46,1,6,43)           78.3191         estimate D2E/DX2                !
 ! D67   D(46,1,6,44)           -4.7425         estimate D2E/DX2                !
 ! D68   D(2,1,9,10)           172.8115         estimate D2E/DX2                !
 ! D69   D(2,1,9,11)            73.6347         estimate D2E/DX2                !
 ! D70   D(2,1,9,13)          -120.3911         estimate D2E/DX2                !
 ! D71   D(2,1,9,26)           -13.1516         estimate D2E/DX2                !
 ! D72   D(3,1,9,10)          -108.4301         estimate D2E/DX2                !
 ! D73   D(3,1,9,11)           152.3931         estimate D2E/DX2                !
 ! D74   D(3,1,9,13)           -41.6327         estimate D2E/DX2                !
 ! D75   D(3,1,9,26)            65.6067         estimate D2E/DX2                !
 ! D76   D(5,1,9,10)            88.0617         estimate D2E/DX2                !
 ! D77   D(5,1,9,11)           -11.1151         estimate D2E/DX2                !
 ! D78   D(5,1,9,13)           154.8591         estimate D2E/DX2                !
 ! D79   D(5,1,9,26)           -97.9014         estimate D2E/DX2                !
 ! D80   D(6,1,9,10)           -48.4704         estimate D2E/DX2                !
 ! D81   D(6,1,9,11)          -147.6472         estimate D2E/DX2                !
 ! D82   D(6,1,9,13)            18.3269         estimate D2E/DX2                !
 ! D83   D(6,1,9,26)           125.5664         estimate D2E/DX2                !
 ! D84   D(46,1,9,10)           15.8836         estimate D2E/DX2                !
 ! D85   D(46,1,9,11)          -83.2932         estimate D2E/DX2                !
 ! D86   D(46,1,9,13)           82.6809         estimate D2E/DX2                !
 ! D87   D(46,1,9,26)         -170.0796         estimate D2E/DX2                !
 ! D88   D(2,1,46,45)          110.5198         estimate D2E/DX2                !
 ! D89   D(2,1,46,48)           15.7289         estimate D2E/DX2                !
 ! D90   D(3,1,46,45)           47.7836         estimate D2E/DX2                !
 ! D91   D(3,1,46,48)          -47.0073         estimate D2E/DX2                !
 ! D92   D(4,1,46,45)          -95.4316         estimate D2E/DX2                !
 ! D93   D(4,1,46,48)          169.7775         estimate D2E/DX2                !
 ! D94   D(5,1,46,45)         -176.0075         estimate D2E/DX2                !
 ! D95   D(5,1,46,48)           89.2016         estimate D2E/DX2                !
 ! D96   D(6,1,46,45)          -44.4659         estimate D2E/DX2                !
 ! D97   D(6,1,46,48)         -139.2568         estimate D2E/DX2                !
 ! D98   D(8,1,46,45)          -24.2254         estimate D2E/DX2                !
 ! D99   D(8,1,46,48)         -119.0163         estimate D2E/DX2                !
 ! D100  D(9,1,46,45)          -99.5133         estimate D2E/DX2                !
 ! D101  D(9,1,46,48)          165.6958         estimate D2E/DX2                !
 ! D102  D(1,2,12,5)           -35.019          estimate D2E/DX2                !
 ! D103  D(1,2,12,11)           40.2431         estimate D2E/DX2                !
 ! D104  D(1,2,12,15)          140.1275         estimate D2E/DX2                !
 ! D105  D(1,2,12,52)         -114.7484         estimate D2E/DX2                !
 ! D106  D(1,2,21,5)            34.2991         estimate D2E/DX2                !
 ! D107  D(1,2,21,14)          158.5676         estimate D2E/DX2                !
 ! D108  D(1,2,21,22)          109.7218         estimate D2E/DX2                !
 ! D109  D(1,2,21,23)         -105.5793         estimate D2E/DX2                !
 ! D110  D(1,2,21,48)          -55.9558         estimate D2E/DX2                !
 ! D111  D(1,2,21,49)          -36.9402         estimate D2E/DX2                !
 ! D112  D(1,3,45,42)          -91.0097         estimate D2E/DX2                !
 ! D113  D(1,3,45,43)          -94.2428         estimate D2E/DX2                !
 ! D114  D(1,3,45,44)          -13.2287         estimate D2E/DX2                !
 ! D115  D(1,3,45,46)           47.8458         estimate D2E/DX2                !
 ! D116  D(1,3,45,47)          150.8026         estimate D2E/DX2                !
 ! D117  D(48,3,45,42)        -175.1123         estimate D2E/DX2                !
 ! D118  D(48,3,45,43)        -178.3453         estimate D2E/DX2                !
 ! D119  D(48,3,45,44)         -97.3313         estimate D2E/DX2                !
 ! D120  D(48,3,45,46)         -36.2568         estimate D2E/DX2                !
 ! D121  D(48,3,45,47)          66.7            estimate D2E/DX2                !
 ! D122  D(1,3,48,21)           43.4473         estimate D2E/DX2                !
 ! D123  D(1,3,48,23)           93.7306         estimate D2E/DX2                !
 ! D124  D(1,3,48,46)          -47.2075         estimate D2E/DX2                !
 ! D125  D(1,3,48,49)            7.0254         estimate D2E/DX2                !
 ! D126  D(1,3,48,50)         -157.9937         estimate D2E/DX2                !
 ! D127  D(45,3,48,21)         125.8933         estimate D2E/DX2                !
 ! D128  D(45,3,48,23)         176.1766         estimate D2E/DX2                !
 ! D129  D(45,3,48,46)          35.2385         estimate D2E/DX2                !
 ! D130  D(45,3,48,49)          89.4714         estimate D2E/DX2                !
 ! D131  D(45,3,48,50)         -75.5477         estimate D2E/DX2                !
 ! D132  D(9,4,6,7)             87.9299         estimate D2E/DX2                !
 ! D133  D(9,4,6,8)            -34.4807         estimate D2E/DX2                !
 ! D134  D(9,4,6,13)            31.3388         estimate D2E/DX2                !
 ! D135  D(9,4,6,16)            29.7441         estimate D2E/DX2                !
 ! D136  D(9,4,6,43)          -110.5146         estimate D2E/DX2                !
 ! D137  D(9,4,6,44)          -179.2079         estimate D2E/DX2                !
 ! D138  D(6,4,9,8)             34.392          estimate D2E/DX2                !
 ! D139  D(6,4,9,10)           -94.7569         estimate D2E/DX2                !
 ! D140  D(6,4,9,11)           170.3372         estimate D2E/DX2                !
 ! D141  D(6,4,9,13)           -34.6358         estimate D2E/DX2                !
 ! D142  D(6,4,9,24)          -101.2008         estimate D2E/DX2                !
 ! D143  D(6,4,9,26)            93.8337         estimate D2E/DX2                !
 ! D144  D(1,5,12,2)            33.7579         estimate D2E/DX2                !
 ! D145  D(1,5,12,11)          -95.5271         estimate D2E/DX2                !
 ! D146  D(1,5,12,52)         -177.3152         estimate D2E/DX2                !
 ! D147  D(1,5,21,2)           -32.9471         estimate D2E/DX2                !
 ! D148  D(1,5,21,14)          -92.9114         estimate D2E/DX2                !
 ! D149  D(1,5,21,22)          174.7615         estimate D2E/DX2                !
 ! D150  D(1,5,21,23)           33.8805         estimate D2E/DX2                !
 ! D151  D(1,5,21,48)           53.8565         estimate D2E/DX2                !
 ! D152  D(1,5,21,49)           99.5275         estimate D2E/DX2                !
 ! D153  D(1,6,7,18)           179.9023         estimate D2E/DX2                !
 ! D154  D(4,6,7,18)           165.7597         estimate D2E/DX2                !
 ! D155  D(8,6,7,18)          -116.0314         estimate D2E/DX2                !
 ! D156  D(16,6,7,18)          -47.3404         estimate D2E/DX2                !
 ! D157  D(43,6,7,18)            3.5298         estimate D2E/DX2                !
 ! D158  D(44,6,7,18)           85.5675         estimate D2E/DX2                !
 ! D159  D(4,6,8,9)             34.4684         estimate D2E/DX2                !
 ! D160  D(7,6,8,9)            -44.7445         estimate D2E/DX2                !
 ! D161  D(13,6,8,9)           -55.4853         estimate D2E/DX2                !
 ! D162  D(16,6,8,9)          -110.9072         estimate D2E/DX2                !
 ! D163  D(43,6,8,9)           173.1222         estimate D2E/DX2                !
 ! D164  D(44,6,8,9)            99.4269         estimate D2E/DX2                !
 ! D165  D(1,6,13,9)            18.1748         estimate D2E/DX2                !
 ! D166  D(1,6,13,10)           66.0705         estimate D2E/DX2                !
 ! D167  D(1,6,13,37)          154.3332         estimate D2E/DX2                !
 ! D168  D(1,6,13,38)          -96.4548         estimate D2E/DX2                !
 ! D169  D(1,6,13,39)         -153.1568         estimate D2E/DX2                !
 ! D170  D(4,6,13,9)           -30.3181         estimate D2E/DX2                !
 ! D171  D(4,6,13,10)           17.5776         estimate D2E/DX2                !
 ! D172  D(4,6,13,37)          105.8404         estimate D2E/DX2                !
 ! D173  D(4,6,13,38)         -144.9476         estimate D2E/DX2                !
 ! D174  D(4,6,13,39)          158.3503         estimate D2E/DX2                !
 ! D175  D(8,6,13,9)            53.13           estimate D2E/DX2                !
 ! D176  D(8,6,13,10)          101.0257         estimate D2E/DX2                !
 ! D177  D(8,6,13,37)         -170.7116         estimate D2E/DX2                !
 ! D178  D(8,6,13,38)          -61.4996         estimate D2E/DX2                !
 ! D179  D(8,6,13,39)         -118.2016         estimate D2E/DX2                !
 ! D180  D(43,6,13,9)          118.9351         estimate D2E/DX2                !
 ! D181  D(43,6,13,10)         166.8308         estimate D2E/DX2                !
 ! D182  D(43,6,13,37)        -104.9065         estimate D2E/DX2                !
 ! D183  D(43,6,13,38)           4.3055         estimate D2E/DX2                !
 ! D184  D(43,6,13,39)         -52.3965         estimate D2E/DX2                !
 ! D185  D(44,6,13,9)          -97.5167         estimate D2E/DX2                !
 ! D186  D(44,6,13,10)         -49.621          estimate D2E/DX2                !
 ! D187  D(44,6,13,37)          38.6418         estimate D2E/DX2                !
 ! D188  D(44,6,13,38)         147.8538         estimate D2E/DX2                !
 ! D189  D(44,6,13,39)          91.1517         estimate D2E/DX2                !
 ! D190  D(1,6,16,18)         -175.5429         estimate D2E/DX2                !
 ! D191  D(1,6,16,39)          110.8663         estimate D2E/DX2                !
 ! D192  D(4,6,16,18)          109.4942         estimate D2E/DX2                !
 ! D193  D(4,6,16,39)           35.9034         estimate D2E/DX2                !
 ! D194  D(7,6,16,18)           48.5205         estimate D2E/DX2                !
 ! D195  D(7,6,16,39)          -25.0703         estimate D2E/DX2                !
 ! D196  D(8,6,16,18)          174.5325         estimate D2E/DX2                !
 ! D197  D(8,6,16,39)          100.9417         estimate D2E/DX2                !
 ! D198  D(43,6,16,18)         -97.1465         estimate D2E/DX2                !
 ! D199  D(43,6,16,39)        -170.7373         estimate D2E/DX2                !
 ! D200  D(44,6,16,18)         -30.6768         estimate D2E/DX2                !
 ! D201  D(44,6,16,39)        -104.2676         estimate D2E/DX2                !
 ! D202  D(1,6,43,42)         -131.0295         estimate D2E/DX2                !
 ! D203  D(1,6,43,45)          -53.3493         estimate D2E/DX2                !
 ! D204  D(4,6,43,42)         -107.0624         estimate D2E/DX2                !
 ! D205  D(4,6,43,45)          -29.3822         estimate D2E/DX2                !
 ! D206  D(7,6,43,42)           46.3562         estimate D2E/DX2                !
 ! D207  D(7,6,43,45)          124.0363         estimate D2E/DX2                !
 ! D208  D(8,6,43,42)          178.1029         estimate D2E/DX2                !
 ! D209  D(8,6,43,45)         -104.2169         estimate D2E/DX2                !
 ! D210  D(13,6,43,42)         121.6895         estimate D2E/DX2                !
 ! D211  D(13,6,43,45)        -160.6303         estimate D2E/DX2                !
 ! D212  D(16,6,43,42)          97.1795         estimate D2E/DX2                !
 ! D213  D(16,6,43,45)         174.8597         estimate D2E/DX2                !
 ! D214  D(44,6,43,42)         -39.3207         estimate D2E/DX2                !
 ! D215  D(44,6,43,45)          38.3595         estimate D2E/DX2                !
 ! D216  D(1,6,44,42)          130.2972         estimate D2E/DX2                !
 ! D217  D(1,6,44,45)           52.8323         estimate D2E/DX2                !
 ! D218  D(4,6,44,42)         -179.8929         estimate D2E/DX2                !
 ! D219  D(4,6,44,45)          102.6422         estimate D2E/DX2                !
 ! D220  D(7,6,44,42)          -95.6874         estimate D2E/DX2                !
 ! D221  D(7,6,44,45)         -173.1523         estimate D2E/DX2                !
 ! D222  D(8,6,44,42)          114.3871         estimate D2E/DX2                !
 ! D223  D(8,6,44,45)           36.9222         estimate D2E/DX2                !
 ! D224  D(13,6,44,42)        -110.8908         estimate D2E/DX2                !
 ! D225  D(13,6,44,45)         171.6443         estimate D2E/DX2                !
 ! D226  D(16,6,44,42)         -23.714          estimate D2E/DX2                !
 ! D227  D(16,6,44,45)        -101.1789         estimate D2E/DX2                !
 ! D228  D(43,6,44,42)          39.6993         estimate D2E/DX2                !
 ! D229  D(43,6,44,45)         -37.7656         estimate D2E/DX2                !
 ! D230  D(18,7,13,9)          141.7587         estimate D2E/DX2                !
 ! D231  D(18,7,13,10)        -166.6213         estimate D2E/DX2                !
 ! D232  D(18,7,13,16)          15.6177         estimate D2E/DX2                !
 ! D233  D(18,7,13,37)         -84.8621         estimate D2E/DX2                !
 ! D234  D(18,7,13,38)         -23.2433         estimate D2E/DX2                !
 ! D235  D(18,7,13,39)         -36.4323         estimate D2E/DX2                !
 ! D236  D(6,7,18,16)           52.9354         estimate D2E/DX2                !
 ! D237  D(6,7,18,19)          -92.1024         estimate D2E/DX2                !
 ! D238  D(6,7,18,20)           -4.9971         estimate D2E/DX2                !
 ! D239  D(6,7,18,40)          146.9716         estimate D2E/DX2                !
 ! D240  D(6,7,18,42)          -37.8833         estimate D2E/DX2                !
 ! D241  D(13,7,18,16)         -15.8918         estimate D2E/DX2                !
 ! D242  D(13,7,18,19)        -160.9296         estimate D2E/DX2                !
 ! D243  D(13,7,18,20)         -73.8243         estimate D2E/DX2                !
 ! D244  D(13,7,18,40)          78.1444         estimate D2E/DX2                !
 ! D245  D(13,7,18,42)        -106.7105         estimate D2E/DX2                !
 ! D246  D(6,8,9,4)            -34.7944         estimate D2E/DX2                !
 ! D247  D(6,8,9,10)            48.9773         estimate D2E/DX2                !
 ! D248  D(6,8,9,11)          -117.3386         estimate D2E/DX2                !
 ! D249  D(6,8,9,13)            61.0598         estimate D2E/DX2                !
 ! D250  D(6,8,9,24)           115.8107         estimate D2E/DX2                !
 ! D251  D(6,8,9,26)           159.2896         estimate D2E/DX2                !
 ! D252  D(1,9,11,12)          -39.5071         estimate D2E/DX2                !
 ! D253  D(1,9,11,27)         -132.7744         estimate D2E/DX2                !
 ! D254  D(4,9,11,12)          -90.4394         estimate D2E/DX2                !
 ! D255  D(4,9,11,27)          176.2933         estimate D2E/DX2                !
 ! D256  D(8,9,11,12)          -10.5218         estimate D2E/DX2                !
 ! D257  D(8,9,11,27)         -103.7892         estimate D2E/DX2                !
 ! D258  D(10,9,11,12)        -179.8479         estimate D2E/DX2                !
 ! D259  D(10,9,11,27)          86.8847         estimate D2E/DX2                !
 ! D260  D(13,9,11,12)         173.0178         estimate D2E/DX2                !
 ! D261  D(13,9,11,27)          79.7504         estimate D2E/DX2                !
 ! D262  D(24,9,11,12)         126.3563         estimate D2E/DX2                !
 ! D263  D(24,9,11,27)          33.0889         estimate D2E/DX2                !
 ! D264  D(26,9,11,12)          73.5881         estimate D2E/DX2                !
 ! D265  D(26,9,11,27)         -19.6793         estimate D2E/DX2                !
 ! D266  D(1,9,13,6)           -18.7651         estimate D2E/DX2                !
 ! D267  D(1,9,13,7)           -65.6699         estimate D2E/DX2                !
 ! D268  D(1,9,13,16)           16.4337         estimate D2E/DX2                !
 ! D269  D(1,9,13,37)         -149.4818         estimate D2E/DX2                !
 ! D270  D(1,9,13,38)          103.3599         estimate D2E/DX2                !
 ! D271  D(4,9,13,6)            30.6262         estimate D2E/DX2                !
 ! D272  D(4,9,13,7)           -16.2787         estimate D2E/DX2                !
 ! D273  D(4,9,13,16)           65.825          estimate D2E/DX2                !
 ! D274  D(4,9,13,37)         -100.0905         estimate D2E/DX2                !
 ! D275  D(4,9,13,38)          152.7512         estimate D2E/DX2                !
 ! D276  D(8,9,13,6)           -50.9368         estimate D2E/DX2                !
 ! D277  D(8,9,13,7)           -97.8416         estimate D2E/DX2                !
 ! D278  D(8,9,13,16)          -15.738          estimate D2E/DX2                !
 ! D279  D(8,9,13,37)          178.3466         estimate D2E/DX2                !
 ! D280  D(8,9,13,38)           71.1882         estimate D2E/DX2                !
 ! D281  D(11,9,13,6)          126.4157         estimate D2E/DX2                !
 ! D282  D(11,9,13,7)           79.5109         estimate D2E/DX2                !
 ! D283  D(11,9,13,16)         161.6145         estimate D2E/DX2                !
 ! D284  D(11,9,13,37)          -4.3009         estimate D2E/DX2                !
 ! D285  D(11,9,13,38)        -111.4593         estimate D2E/DX2                !
 ! D286  D(24,9,13,6)          175.6827         estimate D2E/DX2                !
 ! D287  D(24,9,13,7)          128.7779         estimate D2E/DX2                !
 ! D288  D(24,9,13,16)        -149.1185         estimate D2E/DX2                !
 ! D289  D(24,9,13,37)          44.9661         estimate D2E/DX2                !
 ! D290  D(24,9,13,38)         -62.1923         estimate D2E/DX2                !
 ! D291  D(26,9,13,6)         -136.4954         estimate D2E/DX2                !
 ! D292  D(26,9,13,7)          176.5998         estimate D2E/DX2                !
 ! D293  D(26,9,13,16)        -101.2966         estimate D2E/DX2                !
 ! D294  D(26,9,13,37)          92.788          estimate D2E/DX2                !
 ! D295  D(26,9,13,38)         -14.3704         estimate D2E/DX2                !
 ! D296  D(4,9,24,17)          130.8681         estimate D2E/DX2                !
 ! D297  D(4,9,24,25)           32.8794         estimate D2E/DX2                !
 ! D298  D(4,9,24,27)         -118.3631         estimate D2E/DX2                !
 ! D299  D(4,9,24,28)          -70.1823         estimate D2E/DX2                !
 ! D300  D(8,9,24,17)            5.3007         estimate D2E/DX2                !
 ! D301  D(8,9,24,25)          -92.688          estimate D2E/DX2                !
 ! D302  D(8,9,24,27)          116.0695         estimate D2E/DX2                !
 ! D303  D(8,9,24,28)          164.2503         estimate D2E/DX2                !
 ! D304  D(11,9,24,17)        -140.5612         estimate D2E/DX2                !
 ! D305  D(11,9,24,25)         121.4501         estimate D2E/DX2                !
 ! D306  D(11,9,24,27)         -29.7925         estimate D2E/DX2                !
 ! D307  D(11,9,24,28)          18.3883         estimate D2E/DX2                !
 ! D308  D(13,9,24,17)          58.197          estimate D2E/DX2                !
 ! D309  D(13,9,24,25)         -39.7918         estimate D2E/DX2                !
 ! D310  D(13,9,24,27)         168.9657         estimate D2E/DX2                !
 ! D311  D(13,9,24,28)        -142.8535         estimate D2E/DX2                !
 ! D312  D(1,9,26,27)          110.3449         estimate D2E/DX2                !
 ! D313  D(4,9,26,27)           97.3618         estimate D2E/DX2                !
 ! D314  D(8,9,26,27)          156.1639         estimate D2E/DX2                !
 ! D315  D(10,9,26,27)         -73.6629         estimate D2E/DX2                !
 ! D316  D(11,9,26,27)          20.4187         estimate D2E/DX2                !
 ! D317  D(13,9,26,27)        -134.6283         estimate D2E/DX2                !
 ! D318  D(24,10,13,6)        -135.6938         estimate D2E/DX2                !
 ! D319  D(24,10,13,7)         176.0057         estimate D2E/DX2                !
 ! D320  D(24,10,13,16)       -178.0276         estimate D2E/DX2                !
 ! D321  D(24,10,13,37)         96.8282         estimate D2E/DX2                !
 ! D322  D(24,10,13,38)         25.8194         estimate D2E/DX2                !
 ! D323  D(24,10,13,39)         94.9266         estimate D2E/DX2                !
 ! D324  D(13,10,24,17)        -40.7404         estimate D2E/DX2                !
 ! D325  D(13,10,24,25)        -96.5329         estimate D2E/DX2                !
 ! D326  D(13,10,24,26)         63.236          estimate D2E/DX2                !
 ! D327  D(13,10,24,27)        121.9614         estimate D2E/DX2                !
 ! D328  D(13,10,24,28)        172.9708         estimate D2E/DX2                !
 ! D329  D(9,11,12,2)            9.4003         estimate D2E/DX2                !
 ! D330  D(9,11,12,5)           87.5622         estimate D2E/DX2                !
 ! D331  D(9,11,12,15)         -96.714          estimate D2E/DX2                !
 ! D332  D(9,11,12,21)          92.1122         estimate D2E/DX2                !
 ! D333  D(9,11,12,52)         176.456          estimate D2E/DX2                !
 ! D334  D(27,11,12,2)         100.2719         estimate D2E/DX2                !
 ! D335  D(27,11,12,5)         178.4338         estimate D2E/DX2                !
 ! D336  D(27,11,12,15)         -5.8425         estimate D2E/DX2                !
 ! D337  D(27,11,12,21)       -177.0163         estimate D2E/DX2                !
 ! D338  D(27,11,12,52)        -92.6725         estimate D2E/DX2                !
 ! D339  D(9,11,27,15)          96.3716         estimate D2E/DX2                !
 ! D340  D(9,11,27,24)         -32.2319         estimate D2E/DX2                !
 ! D341  D(9,11,27,26)          19.8867         estimate D2E/DX2                !
 ! D342  D(9,11,27,28)         -84.4352         estimate D2E/DX2                !
 ! D343  D(9,11,27,29)         100.7959         estimate D2E/DX2                !
 ! D344  D(9,11,27,30)         -85.8936         estimate D2E/DX2                !
 ! D345  D(9,11,27,55)        -170.1589         estimate D2E/DX2                !
 ! D346  D(9,11,27,57)         177.921          estimate D2E/DX2                !
 ! D347  D(12,11,27,15)          5.7389         estimate D2E/DX2                !
 ! D348  D(12,11,27,24)       -122.8646         estimate D2E/DX2                !
 ! D349  D(12,11,27,26)        -70.7459         estimate D2E/DX2                !
 ! D350  D(12,11,27,28)       -175.0678         estimate D2E/DX2                !
 ! D351  D(12,11,27,29)         10.1633         estimate D2E/DX2                !
 ! D352  D(12,11,27,30)       -176.5263         estimate D2E/DX2                !
 ! D353  D(12,11,27,55)         99.2085         estimate D2E/DX2                !
 ! D354  D(12,11,27,57)         87.2883         estimate D2E/DX2                !
 ! D355  D(2,12,15,27)        -123.244          estimate D2E/DX2                !
 ! D356  D(2,12,15,54)         156.427          estimate D2E/DX2                !
 ! D357  D(11,12,15,27)          5.7018         estimate D2E/DX2                !
 ! D358  D(11,12,15,54)        -74.6272         estimate D2E/DX2                !
 ! D359  D(21,12,15,27)        177.4108         estimate D2E/DX2                !
 ! D360  D(21,12,15,54)         97.0819         estimate D2E/DX2                !
 ! D361  D(52,12,15,27)         87.1982         estimate D2E/DX2                !
 ! D362  D(52,12,15,54)          6.8693         estimate D2E/DX2                !
 ! D363  D(11,12,21,14)        165.8774         estimate D2E/DX2                !
 ! D364  D(11,12,21,22)         77.4049         estimate D2E/DX2                !
 ! D365  D(11,12,21,23)       -129.1677         estimate D2E/DX2                !
 ! D366  D(11,12,21,48)        -62.8115         estimate D2E/DX2                !
[...]
 39,-0.00002234,-0.00001509,0.00000968,-0.00000270,0.00000070,0.0000031
 4,0.00001396,0.00000694,-0.00002049,-0.00001034,-0.00001829,0.00003770
 ,0.00002551,-0.00000440,-0.00002349,0.00000175,0.00002030,-0.00004000,
 -0.00008713,0.00000081,0.00006870,0.00005777,-0.00000462,0.00003579,0.
 00000535,-0.00002951,-0.00010950,-0.00031183,0.00006265,-0.00010164,-0
 .00002783,0.00008689,-0.00003736,0.02069388,0.00001265,-0.00005530,-0.
 00003373,0.00001372,-0.00003164,0.00003408,-0.00002987,-0.00002307,0.0
 0001407,-0.00005316,-0.00009063,0.00001507,-0.00000137,0.00000952,-0.0
 0001120,0.00007909,-0.00003393,-0.00002495,-0.00002837,0.00003543,0.00
 003715,-0.00000563,0.00002193,0.00000148,-0.00002618,0.00017009,-0.000
 00260,-0.00001059,0.00006180,-0.00025975,-0.00012822,0.00003368,0.0001
 0729,0.00009403,0.00005383,-0.00025704,-0.00047206,0.00000223,0.000084
 88,-0.00001377,-0.00000508,0.00002782,-0.00001471,-0.00008909,0.000011
 53,-0.00009017,0.00010002,-0.00006638,-0.00125602,0.00152984,0.0016867
 9,0.00017800,0.00000419,0.00001328,-0.00003125,-0.00005172,0.00002902,
 -0.00004396,0.00000173,0.00006753,-0.00008666,-0.00002339,-0.00004367,
 -0.00001175,0.00000711,0.00000823,-0.00010624,0.00002669,0.00008091,-0
 .00001900,-0.00053105,0.00120500,-0.00278617,-0.00324908,0.00120093,-0
 .00006384,-0.00008281,0.00005121,0.00013829,0.00015609,0.00031345,-0.0
 0011103,0.00067557,-0.00039770,-0.00039142,0.00008342,-0.00000622,0.00
 382669,-0.00197560,0.00224689,-0.00007982,-0.00060747,-0.00068529,0.00
 322467,0.00342316,0.00114164,0.02904185,-0.14476784,0.12632100,0.00424
 013,-0.00761438,0.00104991,-0.00114390,0.00268513,-0.00176305,0.000445
 74,-0.00213051,0.00132002,0.00035311,0.00014528,0.00018814,0.00008944,
 -0.00034954,-0.00032797,0.00005205,-0.00030844,0.00020233,-0.00004136,
 0.00001816,-0.00010857,-0.00011170,0.00028293,-0.00008593,0.00009064,0
 .00005720,-0.00007429,0.00000545,-0.00002240,-0.00000513,0.00002361,0.
 00000779,0.00002499,0.00006039,0.00004958,-0.00011959,-0.00000835,0.00
 002613,0.00003055,-0.00006152,-0.00004095,0.00008827,0.00015870,0.0000
 7081,-0.00005069,0.00000361,0.00000110,-0.00001902,-0.00008112,-0.0000
 4126,0.00012149,0.00002697,0.00007898,-0.00022646,-0.00012453,-0.00004
 077,0.00011656,0.00000177,-0.00005854,0.00013951,0.00012815,0.00011666
 ,-0.00014145,0.00001829,-0.00000908,0.00002689,0.00014412,-0.00005321,
 0.00035475,-0.00113344,0.00043845,-0.00079303,0.00006139,0.00022171,-0
 .00012060,-0.03391984,0.15179502,0.00000278,0.00007233,-0.00000062,-0.
 00000556,0.00002997,-0.00003207,0.00002726,0.00002068,-0.00001283,0.00
 003675,0.00007310,-0.00005812,0.00000316,-0.00001250,0.00001012,-0.000
 06641,0.00003731,0.00003584,0.00001702,-0.00003140,-0.00002434,-0.0000
 0572,-0.00003039,0.00001634,0.00018478,-0.00005160,0.00018580,0.000059
 02,0.00005378,0.00006481,0.00009384,-0.00003566,-0.00012226,-0.0000861
 5,-0.00005318,0.00024086,0.00045460,0.00001575,-0.00012566,0.00001133,
 0.00000596,-0.00002617,-0.00000535,0.00012118,-0.00007857,0.00006669,-
 0.00010240,0.00003437,0.00088234,-0.00013976,-0.00091202,-0.00013537,0
 .00003011,-0.00002259,0.00002303,0.00004059,-0.00002251,0.00003426,0.0
 0000228,-0.00005381,0.00007831,0.00002113,0.00003847,0.00001048,-0.000
 00737,-0.00000485,0.00009500,-0.00002352,-0.00007140,-0.00071733,0.000
 90284,-0.00048541,0.00285810,0.00063464,0.00026500,0.00003138,0.000083
 74,0.00004010,0.00007220,-0.00027834,-0.00005762,-0.00011564,-0.000477
 69,0.00027312,0.00057316,-0.00022673,0.00047121,-0.00430482,0.00320988
 ,-0.00467204,0.00004986,0.00059088,0.00087713,-0.00076046,0.00075903,-
 0.00211137,-0.02713497,0.12643584,-0.14181598,-0.00445648,0.00174122,0
 .00960246,0.00143012,-0.00208463,0.00133639,0.00073477,0.00187263,-0.0
 0238125,-0.00016764,-0.00007692,-0.00008728,-0.00026283,0.00022025,0.0
 0020802,-0.00017090,0.00031396,-0.00013859,0.00002926,-0.00003768,0.00
 009611,0.00010809,-0.00025824,0.00007300,-0.00007268,-0.00005187,0.000
 05842,-0.00000475,0.00001664,0.00000381,-0.00002185,-0.00000415,-0.000
 02279,-0.00005376,-0.00004266,0.00010874,0.00000766,-0.00002544,-0.000
 02867,0.00005429,0.00003660,-0.00007860,-0.00014026,-0.00006289,0.0000
 4378,-0.00000342,-0.00000343,0.00001658,0.00007177,0.00003678,-0.00010
 780,-0.00002897,-0.00007036,0.00019933,0.00010346,0.00004416,-0.000106
 67,0.00000099,0.00006191,-0.00012953,-0.00010174,-0.00020632,0.0001208
 4,-0.00001245,-0.00000638,0.00004599,-0.00013456,0.00000167,-0.0003197
 0,0.00077067,-0.00009825,0.00089333,0.00009260,-0.00012390,-0.00000598
 ,0.02988085,-0.13295502,0.13894769,-0.00000979,0.00017972,-0.00008038,
 0.00003872,-0.00016221,0.00007853,-0.00012576,-0.00004413,0.00001038,0
 .00004821,0.00005603,0.00000488,0.00015986,0.00031898,0.00000594,0.000
 01148,0.00002017,0.00001858,-0.00002478,0.00000219,-0.00001536,-0.0000
 9322,-0.00000287,-0.00008071,0.00015479,-0.00019909,-0.00010092,0.0000
 2762,-0.00001536,0.00001415,-0.00006909,0.00010282,-0.00004880,0.00014
 214,0.00039333,0.00124271,-0.00010823,0.00015466,-0.00013793,-0.004985
 54,0.00429394,-0.00172031,0.00038763,-0.00020088,-0.00050070,-0.000049
 77,0.00007291,-0.00004981,-0.00001691,0.00002055,-0.00003514,0.0000955
 5,-0.00004192,0.00005356,-0.00001339,-0.00002393,0.00001257,-0.0000230
 0,0.00001546,0.00001796,0.00033678,-0.00298404,-0.00165077,-0.01322558
 ,-0.00490016,-0.00314592,-0.00000999,0.00010960,0.00066277,-0.00018576
 ,-0.00000649,-0.00008633,0.00000666,0.00004099,-0.00000007,-0.00007919
 ,-0.00007243,0.00010153,0.00074845,-0.00053855,0.00036980,-0.00012678,
 0.00012316,0.00006654,0.00008297,0.00002463,-0.00003018,0.00013953,0.0
 0000878,0.00000389,0.00001533,-0.00004638,-0.00001555,-0.00002243,0.00
 003928,-0.00000846,-0.00003183,-0.00005395,0.00013427,0.00001359,-0.00
 005353,-0.00001147,-0.00002834,0.00009598,-0.00007002,0.00002554,-0.00
 011815,0.00007245,0.00002567,0.00000961,0.00000957,-0.00000799,0.00000
 977,0.00000689,0.00011536,-0.00020754,0.00010103,-0.00000999,0.0000644
 7,-0.00008576,-0.00006639,0.00014334,-0.00003134,0.00008948,0.00004042
 ,-0.00006797,0.00001130,-0.00003994,0.00000638,0.00004704,0.00001820,0
 .00002269,0.00010555,0.00008202,-0.00014236,0.00007382,-0.00000563,0.0
 0003455,-0.00008051,-0.00005067,0.00012187,0.00050617,0.00017993,-0.00
 018544,0.00016987,-0.00012215,-0.00009291,-0.00023813,-0.00007179,0.00
 028204,-0.09782600,0.03976188,-0.11227013,-0.00141414,-0.00419040,-0.0
 0901716,0.00283507,-0.00112086,0.00635947,-0.00262954,-0.00135813,-0.0
 0096611,-0.00003746,0.00031748,0.00059027,0.00026476,-0.00008181,-0.00
 020542,-0.00009527,0.00055412,-0.00002692,0.00013031,0.00000520,-0.000
 12487,-0.00001676,0.00010201,-0.00009134,0.11497454,0.00017345,-0.0000
 1483,-0.00004185,-0.00009173,0.00018992,-0.00015309,-0.00004474,0.0000
 5648,-0.00009761,-0.00004636,-0.00002488,0.00002181,-0.00046640,0.0002
 2550,0.00057744,-0.00001426,0.00001748,0.00001862,-0.00001305,-0.00000
 184,-0.00001069,-0.00006370,0.00007495,-0.00011503,0.00004906,0.000140
 03,-0.00002621,-0.00005492,-0.00000064,0.00000514,-0.00009779,0.000100
 76,-0.00001913,0.00076336,-0.00095004,0.00045830,0.00014305,0.00000232
 ,-0.00002729,0.00318504,0.00165179,0.00618274,0.00000057,0.00011202,-0
 .00042314,0.00000820,-0.00000518,0.00000119,0.00000085,-0.00001041,0.0
 0001894,-0.00005958,-0.00003138,0.00004666,0.00001311,0.00002621,-0.00
 001117,0.00001733,0.00000455,-0.00003886,-0.00060696,-0.00299455,-0.00
 131873,-0.00827029,0.00211531,-0.00425553,-0.00014637,-0.00047913,0.00
 041756,-0.00017175,0.00001129,-0.00004292,0.00000698,-0.00001496,0.000
 00337,0.00000589,-0.00005365,0.00002167,0.00071005,-0.00022181,0.00010
 810,-0.00011798,0.00010209,-0.00002523,0.00000166,0.00000170,-0.000024
 63,0.00017411,0.00001201,0.00007365,0.00002382,-0.00003264,0.00006684,
 0.00002489,-0.00005026,-0.00000058,-0.00009407,0.00005620,-0.00006483,
 0.00001941,0.00000869,0.00000516,0.00000791,-0.00002538,0.00002024,-0.
 00003396,0.00001942,-0.00001682,-0.00002441,0.00000176,0.00000760,-0.0
 0002095,0.00000427,0.00001963,-0.00002152,0.00004598,-0.00005188,0.000
 01454,0.00002868,-0.00000674,0.00001669,-0.00004376,0.00001474,-0.0000
 1618,-0.00003189,0.00003804,0.00000304,0.00001669,0.00001001,0.0000108
 8,0.00000424,-0.00000544,-0.00003091,-0.00006408,0.00002265,0.00004899
 ,-0.00009534,0.00005206,0.00002771,0.00002759,-0.00002866,-0.00009797,
 0.00085017,0.00001893,0.00081906,-0.00021928,-0.00001813,0.00003009,0.
 00004780,-0.00008030,0.03821371,-0.02517544,0.02917577,0.00042392,0.00
 111134,0.00632394,-0.00425093,-0.00116506,0.00442446,0.00109978,0.0017
 2536,-0.00038801,-0.00016645,-0.00021158,-0.00033426,-0.00019473,0.000
 17980,-0.00008541,-0.00015712,-0.00021232,-0.00002224,-0.00010716,0.00
 002506,0.00004866,0.00001154,-0.00005617,0.00004956,-0.03060097,0.0231
 7428,-0.00001690,-0.00004785,-0.00025877,0.00025939,-0.00036799,0.0001
 9038,0.00002241,-0.00004695,0.00009794,-0.00001742,0.00002173,0.000033
 01,-0.00004022,0.00029060,0.00042583,0.00004219,0.00003591,-0.00000627
 ,-0.00004116,0.00001447,-0.00000948,-0.00007863,0.00002169,-0.00005605
 ,0.00030755,-0.00010956,-0.00010573,0.00001595,-0.00003365,-0.00000112
 ,-0.00001383,-0.00010548,-0.00000686,-0.00037728,0.00063305,0.00028931
 ,-0.00016356,0.00008381,-0.00005919,-0.00346372,0.00651486,0.00406283,
 0.00011875,-0.00025251,0.00023099,-0.00005923,0.00006416,-0.00005066,-
 0.00002048,0.00001761,-0.00003735,0.00012517,-0.00000540,0.00000104,-0
 .00002489,-0.00004365,0.00002063,-0.00003050,0.00001568,0.00004373,-0.
 00211213,0.00020443,-0.00023175,-0.00326039,-0.00292764,-0.00021088,0.
 00008597,0.00027925,0.00007334,-0.00004436,-0.00008750,0.00000639,-0.0
 0001727,0.00005116,-0.00002180,0.00010584,0.00000169,0.00015842,-0.000
 36281,-0.00004422,-0.00041183,0.00001311,0.00001341,0.00006908,-0.0000
 0632,-0.00002338,-0.00001011,0.00000609,-0.00002351,-0.00000583,-0.000
 03990,-0.00001573,-0.00003910,-0.00003916,0.00008607,-0.00001223,0.000
 02200,-0.00008510,0.00016510,0.00000611,-0.00005149,-0.00001481,-0.000
 03092,0.00011290,-0.00008337,0.00006226,-0.00013024,0.00007540,0.00003
 616,0.00001083,0.00000646,0.00001236,-0.00000195,-0.00001790,0.0001041
 2,-0.00020047,0.00011090,-0.00001980,0.00003557,-0.00007121,-0.0000707
 0,0.00015173,-0.00003442,0.00011713,0.00004225,-0.00006315,0.00001431,
 -0.00001983,-0.00000777,0.00003501,0.00001357,0.00003707,0.00009983,0.
 00002462,-0.00018386,-0.00004983,0.00004407,0.00010284,-0.00009866,-0.
 00006506,0.00013407,0.00027198,0.00022463,-0.00039080,0.00000231,-0.00
 017083,-0.00009996,-0.00020271,-0.00016659,0.00033178,-0.11321066,0.03
 125712,-0.15448523,-0.00110493,-0.00084830,-0.00377248,0.00272173,0.00
 611592,-0.01325960,-0.00022065,-0.00010434,0.00054647,-0.00000801,0.00
 010876,-0.00008912,0.00008941,-0.00012888,0.00016830,-0.00008604,0.000
 01706,-0.00015655,0.00020544,0.00001913,-0.00011918,-0.00002290,0.0001
 3252,-0.00011706,0.12060352,-0.04049901,0.16702460,-0.00014567,0.00001
 428,0.00006071,0.00009976,-0.00007359,0.00005770,0.00026472,0.00021300
 ,-0.00004829,0.00004211,0.00046663,-0.00005615,-0.00001225,-0.00005218
 ,0.00008371,-0.00595834,-0.00059320,0.00240676,0.00077552,-0.00026849,
 0.00001837,-0.00000938,-0.00046914,-0.00032114,0.00086554,0.00022681,-
 0.00037883,0.00007490,0.00012653,-0.00010391,-0.00014562,-0.00003967,0
 .00001930,-0.00001402,0.00011017,0.00007136,-0.00021848,-0.00093388,0.
 00067284,-0.00000466,-0.00001472,-0.00001483,-0.00002469,-0.00000125,0
 .00000495,0.00057561,-0.00038989,0.00035656,-0.00000039,0.00000116,0.0
 0004852,-0.00120168,-0.00011409,0.00246501,0.00171422,0.00039519,0.002
 42420,0.00239542,-0.00234057,0.00032663,-0.00026348,-0.00003776,0.0000
 3831,-0.00003794,0.00006646,0.00003401,0.00014818,-0.00009623,-0.00005
 467,-0.00003799,-0.00005873,-0.00002604,-0.00002810,-0.00002162,0.0000
 1521,0.00002492,0.00001060,-0.00002750,-0.00012125,0.00009522,-0.00004
 715,0.00004776,0.00000791,-0.00000043,0.00002675,-0.00000690,-0.000003
 12,-0.00015313,0.00002708,-0.00001315,0.00002531,0.00003571,0.00000581
 ,0.00000189,-0.00003628,0.00000950,0.00007733,0.00007291,-0.00016061,-
 0.00003216,0.00006013,0.00001136,0.00004689,-0.00015555,0.00009359,0.0
 0002279,0.00016223,0.00002684,-0.00011533,-0.00002490,0.00002534,-0.00
 002089,0.00007628,-0.00000726,-0.00034735,0.00061878,-0.00018971,-0.00
 033830,-0.00050901,0.00031806,0.00019233,-0.00036886,0.00005159,-0.172
 37627,-0.05960603,0.10884666,-0.00085194,-0.00270126,-0.00314645,-0.00
 099772,0.00345034,0.00039131,-0.00206674,-0.00187546,0.00424106,0.0003
 7275,-0.00017281,-0.00022334,-0.00030710,0.00221714,-0.00473002,-0.000
 53048,-0.00005239,0.00010365,0.00004057,0.00003210,0.00004880,0.000210
 59,0.00007056,-0.00020729,0.00027251,-0.00003516,0.00011960,-0.0000540
 7,0.00002960,0.00001628,-0.00004274,0.00000724,-0.00003046,0.00010209,
 -0.00004700,0.00004024,-0.00000109,0.00000058,0.00000124,-0.00005481,-
 0.00001437,-0.00003260,0.00011221,0.00001884,0.00003146,-0.00009297,-0
 .00003430,0.00005042,0.00002257,-0.00012756,0.00011156,-0.00013226,0.0
 0003454,-0.00015012,0.17818405,0.00005688,0.00007911,-0.00000080,0.000
 04432,-0.00003985,0.00002757,-0.00008243,-0.00002548,-0.00004912,0.000
 03974,0.00008165,-0.00004222,0.00001885,-0.00000462,0.00001705,-0.0024
 8847,0.00020581,0.00107021,0.00017992,-0.00012999,-0.00009234,-0.00000
 942,-0.00032743,-0.00007933,0.00025323,-0.00003579,-0.00009332,0.00000
 205,0.00007411,-0.00000864,-0.00004563,-0.00000159,0.00002294,0.000045
 91,0.00000226,0.00000578,-0.00008294,-0.00043798,0.00015342,0.00000628
 ,-0.00000578,-0.00000535,-0.00001968,0.00000072,0.00000207,-0.00018991
 ,-0.00018929,0.00012600,0.00000104,-0.00000478,0.00001993,0.00013659,0
 .00023790,-0.00088806,0.00160081,0.00138315,0.00007606,-0.00258960,-0.
 00365191,0.00372245,-0.00011124,-0.00000560,-0.00001852,-0.00000246,0.
 00002562,0.00000795,-0.00000767,-0.00005405,-0.00001663,0.00000200,0.0
 0000316,-0.00001013,-0.00001094,-0.00001251,0.00000178,0.00000175,0.00
 000685,-0.00001412,-0.00002625,0.00003503,-0.00001771,0.00001353,-0.00
 000372,0.00000153,0.00000901,-0.00000277,-0.00000160,-0.00005818,0.000
 01090,-0.00000303,0.00000992,0.00001327,0.00000282,0.00000142,-0.00001
 263,0.00000306,0.00002598,0.00002774,-0.00005951,-0.00001089,0.0000222
 4,0.00000358,0.00001769,-0.00005346,0.00003418,0.00000697,0.00004507,-
 0.00001074,-0.00002447,-0.00000125,0.00001688,-0.00004376,0.00006210,-
 0.00002594,-0.00000583,0.00017971,0.00003822,-0.00032871,-0.00047913,-
 0.00005343,0.00005133,-0.00014131,0.00002498,-0.05979798,-0.03627479,0
 .03895351,0.00019301,0.00207948,0.00129246,-0.00087537,0.00522716,0.00
 014472,0.00004139,-0.00210087,0.00017475,0.00020646,0.00004885,0.00010
 940,0.00113711,0.00025231,-0.00073199,-0.00004680,0.00001163,0.0001952
 8,0.00000014,0.00002197,-0.00000363,0.00009222,0.00003158,-0.00011453,
 0.00011102,-0.00001321,0.00003924,-0.00003256,0.00001080,0.00001597,-0
 .00001871,-0.00000334,-0.00000504,0.00003334,-0.00001071,0.00000788,0.
 00000095,-0.00000163,0.00000248,-0.00001876,-0.00000457,-0.00000996,0.
 00003620,0.00000607,0.00001095,-0.00003395,-0.00001257,0.00001838,0.00
 000838,-0.00004832,0.00004229,-0.00004770,0.00001478,-0.00005316,0.062
 62484,0.03388994,-0.00015458,0.00005979,0.00006155,-0.00006058,0.00004
 123,-0.00004536,0.00004040,-0.00001725,0.00011064,0.00010258,-0.000288
 08,-0.00009671,-0.00001918,0.00002268,-0.00004075,0.00358178,0.0002025
 9,-0.00135868,-0.00001411,0.00026826,-0.00000308,0.00004420,0.00028797
 ,0.00000415,-0.00009359,0.00001559,0.00011825,-0.00004403,-0.00008762,
 0.00002590,0.00004941,0.00002640,0.00000519,-0.00005517,-0.00008880,0.
 00001109,0.00012854,0.00045569,-0.00023656,-0.00000442,0.00000909,0.00
 000392,0.00001251,0.00001291,-0.00000712,0.00006963,0.00033260,-0.0004
 4665,-0.00000793,0.00000780,-0.00002507,0.00030318,-0.00071722,0.00205
 152,0.00149901,-0.00026377,-0.00266383,-0.00032070,0.00325251,-0.00149
 598,0.00014619,0.00007080,0.00005232,0.00002386,-0.00004522,-0.0000217
 7,0.00006638,0.00006583,-0.00001495,0.00001335,0.00000629,0.00002378,0
 .00001476,0.00001998,-0.00000678,-0.00000778,-0.00001495,0.00002476,0.
 00003010,-0.00002920,0.00001060,-0.00003043,0.00000172,0.00000187,-0.0
 0001250,-0.00000017,-0.00000077,0.00007655,-0.00002011,0.00000324,-0.0
 0001709,-0.00002227,-0.00000687,-0.00000649,0.00002747,-0.00000345,-0.
 00003899,-0.00005396,0.00010436,0.00001656,-0.00003804,-0.00000828,-0.
 00002682,0.00009524,-0.00006069,-0.00004377,-0.00009334,0.00000804,0.0
 0004472,0.00000250,-0.00000882,0.00002074,-0.00002946,0.00000232,0.000
 40452,-0.00027821,-0.00004109,0.00032032,0.00038493,-0.00015236,-0.000
 13153,0.00021453,-0.00003686,0.10664037,0.03818659,-0.08654933,0.00237
 913,0.00286329,0.00400315,0.00143821,-0.00049038,0.00083594,0.00007892
 ,0.00015270,-0.00222968,-0.00000867,-0.00010347,0.00006888,-0.00262172
 ,-0.00053297,0.00088861,0.00013842,0.00015272,-0.00027336,-0.00001034,
 -0.00006121,-0.00002116,-0.00020708,-0.00008157,0.00018822,-0.00020687
 ,0.00000029,-0.00005978,0.00006366,-0.00000710,-0.00002661,0.00003277,
 0.00000645,0.00000277,-0.00007169,0.00002290,-0.00000296,-0.00000276,-
 0.00000352,-0.00000286,0.00003521,0.00000947,0.00001395,-0.00005570,-0
 .00001903,0.00000312,0.00006020,0.00002091,-0.00003113,-0.00001400,0.0
 0008414,-0.00007351,0.00008779,-0.00002003,0.00009558,-0.11367545,-0.0
 4397693,0.08732914\\0.00000130,-0.00004859,0.00002113,0.00000739,-0.00
 004639,0.00001308,-0.00000906,0.00000812,0.00000013,-0.00000085,0.0000
 0709,-0.00000142,0.00002275,-0.00000636,-0.00001276,-0.00000523,0.0000
 0822,0.00001053,-0.00000151,-0.00000648,0.00000486,-0.00000955,0.00000
 479,-0.00000408,0.00001511,0.00000702,0.00002374,0.00000002,-0.0000069
 0,0.00000336,-0.00000081,0.00001567,-0.00001356,0.00000083,-0.00000477
 ,-0.00003440,0.00000256,-0.00000239,-0.00000783,0.00000581,-0.00000839
 ,-0.00001207,0.00001184,0.00000806,0.00000489,-0.00000276,0.00002917,-
 0.00000502,0.00000959,0.00000014,0.00000528,0.00001527,0.00002488,0.00
 001523,-0.00000499,-0.00000482,-0.00001340,0.00000413,-0.00000349,-0.0
 0000460,-0.00006443,0.00009799,-0.00000838,0.00000867,-0.00000047,0.00
 000674,0.00000809,-0.00002617,0.00001655,-0.00000508,-0.00000029,-0.00
 000812,0.00000175,-0.00000879,0.00000635,-0.00000533,0.00000808,-0.000
 01050,0.00002498,-0.00002642,0.00000889,-0.00000420,-0.00000455,-0.000
 00048,0.00000470,0.00000916,-0.00000914,-0.00001415,-0.00000274,0.0000
 1990,-0.00001140,0.00000184,-0.00000675,0.00000816,0.00000123,-0.00000
 495,-0.00001225,0.00000662,-0.00000858,-0.00000118,0.00000407,0.000000
 40,-0.00000891,0.00000072,0.00000301,0.00001096,-0.00000326,-0.0000007
 6,0.00000350,-0.00000503,0.00000039,0.00000211,-0.00000081,-0.00000517
 ,0.00000688,-0.00000514,-0.00000271,-0.00001542,-0.00001577,-0.0000112
 8,-0.00001007,-0.00000100,0.00001389,0.00000016,-0.00000200,0.00001660
 ,-0.00000457,-0.00000275,-0.00000608,0.00000912,0.00001186,-0.00001617
 ,-0.00000672,-0.00001681,-0.00000542,-0.00000220,-0.00000848,0.0000012
 1,0.00001069,-0.00000190,0.00000671,-0.00001030,0.00004065,-0.00000367
 ,0.00000890,-0.00000844,0.00000480,0.00000605,-0.00000688,0.00000228,0
 .00002390,-0.00002775,0.00000407,-0.00001419,-0.00000361,-0.00000979,-
 0.00000930,0.00000444,0.00000726,-0.00000217,0.00001407,-0.00000764,0.
 00000225,-0.00000389,0.00000257,-0.00000890,0.00000222,0.00001017,0.00
 001441,-0.00000874,-0.00000080,-0.00000223,0.00000700,0.00000050,0.000
 00235,0.00000019,-0.00000049,-0.00000514,0.00000887,0.00000441,-0.0000
 0133,-0.00000188,-0.00000289\\\@
 The archive entry for this job was punched.


 ALL THINGS ARE POSSIBLE EXCEPT SKIING THROUGH A REVOLVING DOOR.
 Job cpu time:       5 days  3 hours 26 minutes 57.5 seconds.
 Elapsed time:       0 days  2 hours 41 minutes 35.4 seconds.
 File lengths (MBytes):  RWF=  12144 Int=      0 D2E=      0 Chk=    131 Scr=      2
 Normal termination of Gaussian 16 at Fri Feb 10 15:13:41 2023.
