 Entering Gaussian System, Link 0=/apps/GAU16/avx2/g16/g16
 Initial command:
 /apps/GAU16/avx2/g16/l1.exe "/localscratch/chesha/scratch/Gau-107068.inp" -scrdir="/localscratch/chesha/scratch/"
 Entering Link 1 = /apps/GAU16/avx2/g16/l1.exe PID=    107069.
  
 Copyright (c) 1988-2019, Gaussian, Inc.  All Rights Reserved.
  
 This is part of the Gaussian(R) 16 program.  It is based on
 the Gaussian(R) 09 system (copyright 2009, Gaussian, Inc.),
 the Gaussian(R) 03 system (copyright 2003, Gaussian, Inc.),
 the Gaussian(R) 98 system (copyright 1998, Gaussian, Inc.),
 the Gaussian(R) 94 system (copyright 1995, Gaussian, Inc.),
 the Gaussian 92(TM) system (copyright 1992, Gaussian, Inc.),
 the Gaussian 90(TM) system (copyright 1990, Gaussian, Inc.),
 the Gaussian 88(TM) system (copyright 1988, Gaussian, Inc.),
 the Gaussian 86(TM) system (copyright 1986, Carnegie Mellon
 University), and the Gaussian 82(TM) system (copyright 1983,
 Carnegie Mellon University). Gaussian is a federally registered
 trademark of Gaussian, Inc.
  
 This software contains proprietary and confidential information,
 including trade secrets, belonging to Gaussian, Inc.
  
 This software is provided under written license and may be
 used, copied, transmitted, or stored only in accord with that
 written license.
  
 The following legend is applicable only to US Government
 contracts under FAR:
  
                    RESTRICTED RIGHTS LEGEND
  
 Use, reproduction and disclosure by the US Government is
 subject to restrictions as set forth in subparagraphs (a)
 and (c) of the Commercial Computer Software - Restricted
 Rights clause in FAR 52.227-19.
  
 Gaussian, Inc.
 340 Quinnipiac St., Bldg. 40, Wallingford CT 06492
  
  
 ---------------------------------------------------------------
 Warning -- This program may not be used in any manner that
 competes with the business of Gaussian, Inc. or will provide
 assistance to any competitor of Gaussian, Inc.  The licensee
 of this program is prohibited from giving any competitor of
 Gaussian, Inc. access to this program.  By using this program,
 the user acknowledges that Gaussian, Inc. is engaged in the
 business of creating and licensing software in the field of
 computational chemistry and represents and warrants to the
 licensee that it is not a competitor of Gaussian, Inc. and that
 it will not use this program in any manner prohibited above.
 ---------------------------------------------------------------
  

 Cite this work as:
 Gaussian 16, Revision C.01,
 M. J. Frisch, G. W. Trucks, H. B. Schlegel, G. E. Scuseria, 
 M. A. Robb, J. R. Cheeseman, G. Scalmani, V. Barone, 
 G. A. Petersson, H. Nakatsuji, X. Li, M. Caricato, A. V. Marenich, 
 J. Bloino, B. G. Janesko, R. Gomperts, B. Mennucci, H. P. Hratchian, 
 J. V. Ortiz, A. F. Izmaylov, J. L. Sonnenberg, D. Williams-Young, 
 F. Ding, F. Lipparini, F. Egidi, J. Goings, B. Peng, A. Petrone, 
 T. Henderson, D. Ranasinghe, V. G. Zakrzewski, J. Gao, N. Rega, 
 G. Zheng, W. Liang, M. Hada, M. Ehara, K. Toyota, R. Fukuda, 
 J. Hasegawa, M. Ishida, T. Nakajima, Y. Honda, O. Kitao, H. Nakai, 
 T. Vreven, K. Throssell, J. A. Montgomery, Jr., J. E. Peralta, 
 F. Ogliaro, M. J. Bearpark, J. J. Heyd, E. N. Brothers, K. N. Kudin, 
 V. N. Staroverov, T. A. Keith, R. Kobayashi, J. Normand, 
 K. Raghavachari, A. P. Rendell, J. C. Burant, S. S. Iyengar, 
 J. Tomasi, M. Cossi, J. M. Millam, M. Klene, C. Adamo, R. Cammi, 
 J. W. Ochterski, R. L. Martin, K. Morokuma, O. Farkas, 
 J. B. Foresman, and D. J. Fox, Gaussian, Inc., Wallingford CT, 2019.
 
 ******************************************
 Gaussian 16:  ES64L-G16RevC.01  3-Jul-2019
                13-Feb-2023 
 ******************************************
 %nprocshared=48
 Will use up to   48 processors via shared memory.
 %mem=100GB
 ----------------------------------------------------------------------
 # opt=(calcfc,ts,noeigen) freq b3lyp/gen nosymm pseudo=read scf=maxcyc
 les=500
 ----------------------------------------------------------------------
 1/5=1,10=4,11=1,18=20,26=3,38=1/1,3;
 2/9=110,12=2,15=1,17=6,18=5,40=1/2;
 3/5=7,11=2,16=1,17=8,25=1,30=1,71=2,74=-5,140=1/1,2,3;
 4//1;
 5/5=2,7=500,38=5/2;
 8/6=4,10=90,11=11/1;
 11/6=1,8=1,9=11,15=111,16=1,31=1/1,2,10;
 10/6=1,13=1,31=1/2;
 6/7=2,8=2,9=2,10=2,28=1/1;
 7/10=1,25=1,30=1/1,2,3,16;
 1/5=1,10=4,11=1,18=20,26=3/3(2);
 2/9=110,15=1/2;
 99//99;
 2/9=110,15=1/2;
 3/5=7,6=1,11=2,16=1,17=8,25=1,30=1,71=1,74=-5,82=7/1,2,3;
 4/5=5,16=3,69=1/1;
 5/5=2,7=500,38=5/2;
 7/30=1/1,2,3,16;
 1/5=1,11=1,18=20,26=3/3(-5);
 2/9=110,15=1/2;
 6/7=2,8=2,9=2,10=2,19=2,28=1/1;
 99/9=1/99;
 -------------------
 Title Card Required
 -------------------
 Symbolic Z-matrix:
 Charge =  0 Multiplicity = 1
 42                    0.03904   1.53298   12.54828 
 16                    1.77265   2.79963   13.53588 
 16                   -1.08887   2.11511   14.71959 
 16                   -0.69822   0.93688   10.29289 
 16                    1.71491  -0.18516   12.06909 
 42                   -2.44985   2.5816    10.84144 
 16                   -3.05653   2.31101   8.49119 
 16                   -0.55273   3.80133   11.73459 
 42                    0.47358   2.97618   9.70077 
 16                   -0.02652   2.50325   7.41539 
 16                    2.46173   1.50039   9.51615 
 42                    3.07622   1.74865   11.8703 
 42                   -1.48166   4.21659   8.45008 
 16                    4.40575   2.21508   14.33247 
 16                    4.69816   3.63362   11.22338 
 16                   -3.00182   4.91489   10.1624 
 16                    1.40736   6.73318   6.95612 
 42                   -5.04757   3.49123   9.36857 
 16                   -6.08601   1.54736   9.62248 
 16                   -5.98549   4.37963   11.23416 
 42                    2.57933   0.40963   14.23204 
 16                    4.17011  -1.32504   14.02963 
 16                    1.65999   1.14588   16.30858 
 42                    1.54694   4.2653    7.38201 
 16                    0.70156   4.62355   4.96657 
 16                    2.13353   4.82994   9.61362 
 42                    3.96205   3.37239   8.70293 
 16                    3.14521   2.75713   6.49603 
 16                    5.56948   5.24782   8.63789 
 42                    4.69598   4.60772   6.45192 
 16                    6.55982   3.24125   5.5751 
 16                    4.36216   6.90263   6.2683 
 42                    2.64243   6.13756   4.78405 
 16                    3.94429   4.55058   3.95199 
 16                   -1.14289   7.75788   4.62483 
 42                   -0.80513   6.25037   6.06604 
 16                   -2.37573   4.43638   5.96932 
 16                   -1.4983    6.75071   8.28742 
 42                   -3.53586   6.06988   7.21879 
 16                   -5.4765    4.67172   7.48805 
 16                   -4.26745   7.6107    6.00094 
 42                   -5.31687   2.08525   12.02463 
 16                   -3.57121   3.36458   13.02965 
 16                   -3.71407   0.43089   11.40636 
 42                   -3.07341   1.10704   13.61591 
 16                   -1.26431  -0.51151   13.25439 
 16                   -4.25401   0.30534   15.16895 
 42                   -0.15476  -0.12861   15.47269 
 16                    1.26967  -1.7363    14.85075 
 16                   -1.25642  -0.90736   17.09862 
 42                    5.69694   0.47029   13.76788 
 16                    4.93182   0.10744   11.33727 
 16                    7.4758    1.37559   12.40682 
 42                    6.18283   2.09389   10.53991 
 16                    5.45064   1.42325   8.37099 
 16                    8.17184   3.2408    9.95926 
 42                    6.78517   3.35726   8.11444 
 16                    8.35689   3.96763   6.47963 
 16                    2.3635    7.57062   3.25634 
 16                    7.04607  -0.02799   15.32531 
 16                   -7.01917   1.53257   13.14739 
 

 GradGradGradGradGradGradGradGradGradGradGradGradGradGradGradGradGradGrad
 Berny optimization.
 Initialization pass.
                           ----------------------------
                           !    Initial Parameters    !
                           ! (Angstroms and Degrees)  !
 --------------------------                            --------------------------
 ! Name  Definition              Value          Derivative Info.                !
 --------------------------------------------------------------------------------
 ! R1    R(1,2)                  2.3633         calculate D2E/DX2 analytically  !
 ! R2    R(1,3)                  2.5151         calculate D2E/DX2 analytically  !
 ! R3    R(1,4)                  2.4466         calculate D2E/DX2 analytically  !
 ! R4    R(1,5)                  2.4475         calculate D2E/DX2 analytically  !
 ! R5    R(1,8)                  2.4815         calculate D2E/DX2 analytically  !
 ! R6    R(1,12)                 3.1194         calculate D2E/DX2 analytically  !
 ! R7    R(1,46)                 2.5253         calculate D2E/DX2 analytically  !
 ! R8    R(2,12)                 2.3618         calculate D2E/DX2 analytically  !
 ! R9    R(2,21)                 2.6168         calculate D2E/DX2 analytically  !
 ! R10   R(3,45)                 2.4845         calculate D2E/DX2 analytically  !
 ! R11   R(3,48)                 2.5444         calculate D2E/DX2 analytically  !
 ! R12   R(4,6)                  2.4646         calculate D2E/DX2 analytically  !
 ! R13   R(4,9)                  2.4254         calculate D2E/DX2 analytically  !
 ! R14   R(5,12)                 2.3732         calculate D2E/DX2 analytically  !
 ! R15   R(5,21)                 2.404          calculate D2E/DX2 analytically  !
 ! R16   R(6,7)                  2.4423         calculate D2E/DX2 analytically  !
 ! R17   R(6,8)                  2.4258         calculate D2E/DX2 analytically  !
 ! R18   R(6,13)                 3.0544         calculate D2E/DX2 analytically  !
 ! R19   R(6,16)                 2.492          calculate D2E/DX2 analytically  !
 ! R20   R(6,43)                 2.5805         calculate D2E/DX2 analytically  !
 ! R21   R(6,44)                 2.5579         calculate D2E/DX2 analytically  !
 ! R22   R(7,13)                 2.4725         calculate D2E/DX2 analytically  !
 ! R23   R(7,18)                 2.4753         calculate D2E/DX2 analytically  !
 ! R24   R(8,9)                  2.4229         calculate D2E/DX2 analytically  !
 ! R25   R(9,10)                 2.3868         calculate D2E/DX2 analytically  !
 ! R26   R(9,11)                 2.4829         calculate D2E/DX2 analytically  !
 ! R27   R(9,13)                 2.6317         calculate D2E/DX2 analytically  !
 ! R28   R(9,24)                 2.8619         calculate D2E/DX2 analytically  !
 ! R29   R(9,26)                 2.4899         calculate D2E/DX2 analytically  !
 ! R30   R(10,13)                2.4746         calculate D2E/DX2 analytically  !
 ! R31   R(10,24)                2.3626         calculate D2E/DX2 analytically  !
 ! R32   R(11,12)                2.4457         calculate D2E/DX2 analytically  !
 ! R33   R(11,27)                2.5331         calculate D2E/DX2 analytically  !
 ! R34   R(12,15)                2.5695         calculate D2E/DX2 analytically  !
 ! R35   R(12,21)                2.76           calculate D2E/DX2 analytically  !
 ! R36   R(12,52)                2.534          calculate D2E/DX2 analytically  !
 ! R37   R(13,16)                2.3939         calculate D2E/DX2 analytically  !
 ! R38   R(13,37)                2.6461         calculate D2E/DX2 analytically  !
 ! R39   R(13,38)                2.5394         calculate D2E/DX2 analytically  !
 ! R40   R(13,39)                3.0283         calculate D2E/DX2 analytically  !
 ! R41   R(14,21)                2.5701         calculate D2E/DX2 analytically  !
 ! R42   R(14,51)                2.2428         calculate D2E/DX2 analytically  !
 ! R43   R(15,27)                2.6387         calculate D2E/DX2 analytically  !
 ! R44   R(15,54)                2.2455         calculate D2E/DX2 analytically  !
 ! R45   R(16,18)                2.6157         calculate D2E/DX2 analytically  !
 ! R46   R(17,24)                2.5083         calculate D2E/DX2 analytically  !
 ! R47   R(17,33)                2.5687         calculate D2E/DX2 analytically  !
 ! R48   R(17,36)                2.4332         calculate D2E/DX2 analytically  !
 ! R49   R(18,19)                2.2184         calculate D2E/DX2 analytically  !
 ! R50   R(18,20)                2.2692         calculate D2E/DX2 analytically  !
 ! R51   R(18,40)                2.2614         calculate D2E/DX2 analytically  !
 ! R52   R(18,42)                3.0173         calculate D2E/DX2 analytically  !
 ! R53   R(19,42)                2.579          calculate D2E/DX2 analytically  !
 ! R54   R(20,42)                2.5172         calculate D2E/DX2 analytically  !
 ! R55   R(21,22)                2.3623         calculate D2E/DX2 analytically  !
 ! R56   R(21,23)                2.3873         calculate D2E/DX2 analytically  !
 ! R57   R(21,48)                3.0503         calculate D2E/DX2 analytically  !
 ! R58   R(21,49)                2.589          calculate D2E/DX2 analytically  !
 ! R59   R(22,51)                2.3713         calculate D2E/DX2 analytically  !
 ! R60   R(23,48)                2.3699         calculate D2E/DX2 analytically  !
 ! R61   R(24,25)                2.5841         calculate D2E/DX2 analytically  !
 ! R62   R(24,26)                2.3755         calculate D2E/DX2 analytically  !
 ! R63   R(24,27)                2.8939         calculate D2E/DX2 analytically  !
 ! R64   R(24,28)                2.3694         calculate D2E/DX2 analytically  !
 ! R65   R(25,33)                2.4683         calculate D2E/DX2 analytically  !
 ! R66   R(25,36)                2.475          calculate D2E/DX2 analytically  !
 ! R67   R(26,27)                2.5094         calculate D2E/DX2 analytically  !
 ! R68   R(27,28)                2.4323         calculate D2E/DX2 analytically  !
 ! R69   R(27,29)                2.4709         calculate D2E/DX2 analytically  !
 ! R70   R(27,30)                2.6705         calculate D2E/DX2 analytically  !
 ! R71   R(27,55)                2.4749         calculate D2E/DX2 analytically  !
 ! R72   R(27,57)                2.8838         calculate D2E/DX2 analytically  !
 ! R73   R(28,30)                2.4149         calculate D2E/DX2 analytically  !
 ! R74   R(29,30)                2.4395         calculate D2E/DX2 analytically  !
 ! R75   R(29,57)                2.3078         calculate D2E/DX2 analytically  !
 ! R76   R(30,31)                2.4718         calculate D2E/DX2 analytically  !
 ! R77   R(30,32)                2.3263         calculate D2E/DX2 analytically  !
 ! R78   R(30,33)                3.056          calculate D2E/DX2 analytically  !
 ! R79   R(30,34)                2.6111         calculate D2E/DX2 analytically  !
 ! R80   R(30,57)                2.9483         calculate D2E/DX2 analytically  !
 ! R81   R(31,57)                2.552          calculate D2E/DX2 analytically  !
 ! R82   R(31,58)                2.139          calculate D2E/DX2 analytically  !
 ! R83   R(32,33)                2.397          calculate D2E/DX2 analytically  !
 ! R84   R(33,34)                2.2149         calculate D2E/DX2 analytically  !
 ! R85   R(33,59)                2.1131         calculate D2E/DX2 analytically  !
 ! R86   R(35,36)                2.1128         calculate D2E/DX2 analytically  !
 ! R87   R(36,37)                2.4014         calculate D2E/DX2 analytically  !
 ! R88   R(36,38)                2.3802         calculate D2E/DX2 analytically  !
 ! R89   R(36,39)                2.9696         calculate D2E/DX2 analytically  !
 ! R90   R(37,39)                2.3612         calculate D2E/DX2 analytically  !
 ! R91   R(38,39)                2.3994         calculate D2E/DX2 analytically  !
 ! R92   R(39,40)                2.407          calculate D2E/DX2 analytically  !
 ! R93   R(39,41)                2.0958         calculate D2E/DX2 analytically  !
 ! R94   R(42,43)                2.3862         calculate D2E/DX2 analytically  !
 ! R95   R(42,44)                2.385          calculate D2E/DX2 analytically  !
 ! R96   R(42,45)                2.9193         calculate D2E/DX2 analytically  !
 ! R97   R(42,61)                2.1128         calculate D2E/DX2 analytically  !
 ! R98   R(43,45)                2.385          calculate D2E/DX2 analytically  !
 ! R99   R(44,45)                2.3979         calculate D2E/DX2 analytically  !
 ! R100  R(45,46)                2.4542         calculate D2E/DX2 analytically  !
 ! R101  R(45,47)                2.1091         calculate D2E/DX2 analytically  !
 ! R102  R(46,48)                2.5097         calculate D2E/DX2 analytically  !
 ! R103  R(48,49)                2.2362         calculate D2E/DX2 analytically  !
 ! R104  R(48,50)                2.1128         calculate D2E/DX2 analytically  !
 ! R105  R(51,52)                2.5739         calculate D2E/DX2 analytically  !
 ! R106  R(51,53)                2.4159         calculate D2E/DX2 analytically  !
 ! R107  R(51,60)                2.1199         calculate D2E/DX2 analytically  !
 ! R108  R(52,54)                2.4793         calculate D2E/DX2 analytically  !
 ! R109  R(53,54)                2.3818         calculate D2E/DX2 analytically  !
 ! R110  R(54,55)                2.3854         calculate D2E/DX2 analytically  !
 ! R111  R(54,56)                2.3683         calculate D2E/DX2 analytically  !
 ! R112  R(54,57)                2.8003         calculate D2E/DX2 analytically  !
 ! R113  R(55,57)                2.3637         calculate D2E/DX2 analytically  !
 ! R114  R(56,57)                2.3108         calculate D2E/DX2 analytically  !
 ! R115  R(57,58)                2.3485         calculate D2E/DX2 analytically  !
 ! A1    A(2,1,3)               81.0338         calculate D2E/DX2 analytically  !
 ! A2    A(2,1,4)              137.466          calculate D2E/DX2 analytically  !
 ! A3    A(2,1,5)               87.4653         calculate D2E/DX2 analytically  !
 ! A4    A(2,1,8)               79.7484         calculate D2E/DX2 analytically  !
 ! A5    A(2,1,46)             134.0805         calculate D2E/DX2 analytically  !
 ! A6    A(3,1,4)              135.8164         calculate D2E/DX2 analytically  !
 ! A7    A(3,1,5)              129.6863         calculate D2E/DX2 analytically  !
 ! A8    A(3,1,8)               87.9693         calculate D2E/DX2 analytically  !
 ! A9    A(3,1,12)             127.4647         calculate D2E/DX2 analytically  !
 ! A10   A(3,1,46)              73.4137         calculate D2E/DX2 analytically  !
 ! A11   A(4,1,5)               81.6516         calculate D2E/DX2 analytically  !
 ! A12   A(4,1,8)               81.2905         calculate D2E/DX2 analytically  !
 ! A13   A(4,1,12)              96.3087         calculate D2E/DX2 analytically  !
 ! A14   A(4,1,46)              84.5474         calculate D2E/DX2 analytically  !
 ! A15   A(5,1,8)              137.7997         calculate D2E/DX2 analytically  !
 ! A16   A(5,1,46)              80.7817         calculate D2E/DX2 analytically  !
 ! A17   A(8,1,12)              95.6079         calculate D2E/DX2 analytically  !
 ! A18   A(8,1,46)             135.127          calculate D2E/DX2 analytically  !
 ! A19   A(12,1,46)            128.2616         calculate D2E/DX2 analytically  !
 ! A20   A(1,2,21)              81.2449         calculate D2E/DX2 analytically  !
 ! A21   A(1,3,45)              83.1539         calculate D2E/DX2 analytically  !
 ! A22   A(1,3,48)              83.4992         calculate D2E/DX2 analytically  !
 ! A23   A(45,3,48)             93.8378         calculate D2E/DX2 analytically  !
 ! A24   A(1,4,6)               81.1639         calculate D2E/DX2 analytically  !
 ! A25   A(1,4,9)               82.7963         calculate D2E/DX2 analytically  !
 ! A26   A(6,4,9)               80.5959         calculate D2E/DX2 analytically  !
 ! A27   A(1,5,21)              84.0517         calculate D2E/DX2 analytically  !
 ! A28   A(4,6,7)               83.5938         calculate D2E/DX2 analytically  !
 ! A29   A(4,6,8)               82.0491         calculate D2E/DX2 analytically  !
 ! A30   A(4,6,13)              87.5745         calculate D2E/DX2 analytically  !
 ! A31   A(4,6,16)             136.1879         calculate D2E/DX2 analytically  !
 ! A32   A(4,6,43)             134.4331         calculate D2E/DX2 analytically  !
 ! A33   A(4,6,44)              80.7532         calculate D2E/DX2 analytically  !
 ! A34   A(7,6,8)              127.1769         calculate D2E/DX2 analytically  !
 ! A35   A(7,6,16)              77.6726         calculate D2E/DX2 analytically  !
 ! A36   A(7,6,43)             137.8761         calculate D2E/DX2 analytically  !
 ! A37   A(7,6,44)              89.8052         calculate D2E/DX2 analytically  !
 ! A38   A(8,6,13)              76.774          calculate D2E/DX2 analytically  !
 ! A39   A(8,6,16)              78.6241         calculate D2E/DX2 analytically  !
 ! A40   A(8,6,43)              82.8229         calculate D2E/DX2 analytically  !
 ! A41   A(8,6,44)             136.7171         calculate D2E/DX2 analytically  !
 ! A42   A(13,6,43)            129.7355         calculate D2E/DX2 analytically  !
 ! A43   A(13,6,44)            141.2291         calculate D2E/DX2 analytically  !
 ! A44   A(16,6,43)             81.4144         calculate D2E/DX2 analytically  !
 ! A45   A(16,6,44)            137.5588         calculate D2E/DX2 analytically  !
 ! A46   A(43,6,44)             81.5509         calculate D2E/DX2 analytically  !
 ! A47   A(6,7,18)              78.8068         calculate D2E/DX2 analytically  !
 ! A48   A(13,7,18)             98.6712         calculate D2E/DX2 analytically  !
 ! A49   A(1,8,6)               81.2341         calculate D2E/DX2 analytically  !
 ! A50   A(1,8,9)               82.1212         calculate D2E/DX2 analytically  !
 ! A51   A(6,8,9)               81.4292         calculate D2E/DX2 analytically  !
 ! A52   A(4,9,8)               82.9214         calculate D2E/DX2 analytically  !
 ! A53   A(4,9,10)              88.0476         calculate D2E/DX2 analytically  !
 ! A54   A(4,9,11)              84.5636         calculate D2E/DX2 analytically  !
 ! A55   A(4,9,13)              98.8228         calculate D2E/DX2 analytically  !
 ! A56   A(4,9,24)             139.2655         calculate D2E/DX2 analytically  !
 ! A57   A(4,9,26)             163.0679         calculate D2E/DX2 analytically  !
 ! A58   A(8,9,10)             141.4872         calculate D2E/DX2 analytically  !
 ! A59   A(8,9,11)             127.158          calculate D2E/DX2 analytically  !
 ! A60   A(8,9,13)              85.6238         calculate D2E/DX2 analytically  !
 ! A61   A(8,9,24)             133.2793         calculate D2E/DX2 analytically  !
 ! A62   A(8,9,26)              93.3375         calculate D2E/DX2 analytically  !
 ! A63   A(10,9,11)             88.7858         calculate D2E/DX2 analytically  !
 ! A64   A(10,9,26)            104.6965         calculate D2E/DX2 analytically  !
 ! A65   A(11,9,13)            147.112          calculate D2E/DX2 analytically  !
 ! A66   A(11,9,24)             84.6737         calculate D2E/DX2 analytically  !
 ! A67   A(11,9,26)             84.6112         calculate D2E/DX2 analytically  !
 ! A68   A(13,9,24)             71.4152         calculate D2E/DX2 analytically  !
 ! A69   A(13,9,26)             97.3403         calculate D2E/DX2 analytically  !
 ! A70   A(13,10,24)            83.1742         calculate D2E/DX2 analytically  !
 ! A71   A(9,11,12)             93.9727         calculate D2E/DX2 analytically  !
 ! A72   A(9,11,27)             93.3756         calculate D2E/DX2 analytically  !
 ! A73   A(12,11,27)            94.8869         calculate D2E/DX2 analytically  !
 ! A74   A(1,12,11)             87.5676         calculate D2E/DX2 analytically  !
 ! A75   A(1,12,15)            136.0572         calculate D2E/DX2 analytically  !
 ! A76   A(1,12,21)             66.7459         calculate D2E/DX2 analytically  !
 ! A77   A(1,12,52)            135.5558         calculate D2E/DX2 analytically  !
 ! A78   A(2,12,5)              89.2511         calculate D2E/DX2 analytically  !
 ! A79   A(2,12,11)            125.8261         calculate D2E/DX2 analytically  !
 ! A80   A(2,12,15)            101.5082         calculate D2E/DX2 analytically  !
 ! A81   A(2,12,52)            147.2191         calculate D2E/DX2 analytically  !
 ! A82   A(5,12,11)             81.5929         calculate D2E/DX2 analytically  !
 ! A83   A(5,12,52)             84.8311         calculate D2E/DX2 analytically  !
 ! A84   A(11,12,15)            89.4683         calculate D2E/DX2 analytically  !
 ! A85   A(11,12,21)           136.8192         calculate D2E/DX2 analytically  !
 ! A86   A(11,12,52)            85.1679         calculate D2E/DX2 analytically  !
 ! A87   A(15,12,21)           133.2342         calculate D2E/DX2 analytically  !
 ! A88   A(15,12,52)            87.7038         calculate D2E/DX2 analytically  !
 ! A89   A(21,12,52)            89.863          calculate D2E/DX2 analytically  !
 ! A90   A(6,13,9)              67.1154         calculate D2E/DX2 analytically  !
 ! A91   A(6,13,10)             98.2295         calculate D2E/DX2 analytically  !
 ! A92   A(6,13,37)            132.1727         calculate D2E/DX2 analytically  !
 ! A93   A(6,13,38)            125.6095         calculate D2E/DX2 analytically  !
 ! A94   A(6,13,39)            115.5253         calculate D2E/DX2 analytically  !
 ! A95   A(7,13,9)              95.858          calculate D2E/DX2 analytically  !
 ! A96   A(7,13,10)             81.2501         calculate D2E/DX2 analytically  !
 ! A97   A(7,13,16)             78.9564         calculate D2E/DX2 analytically  !
 ! A98   A(7,13,37)             82.2059         calculate D2E/DX2 analytically  !
 ! A99   A(7,13,38)            139.9969         calculate D2E/DX2 analytically  !
 ! A100  A(7,13,39)             92.6572         calculate D2E/DX2 analytically  !
 ! A101  A(9,13,16)            105.6256         calculate D2E/DX2 analytically  !
 ! A102  A(9,13,37)            137.3685         calculate D2E/DX2 analytically  !
 ! A103  A(9,13,38)            120.3759         calculate D2E/DX2 analytically  !
 ! A104  A(10,13,16)           150.9825         calculate D2E/DX2 analytically  !
 ! A105  A(10,13,37)            82.1946         calculate D2E/DX2 analytically  !
 ! A106  A(10,13,38)           131.9136         calculate D2E/DX2 analytically  !
 ! A107  A(10,13,39)           130.7383         calculate D2E/DX2 analytically  !
 ! A108  A(16,13,37)           115.5827         calculate D2E/DX2 analytically  !
 ! A109  A(16,13,38)            75.5556         calculate D2E/DX2 analytically  !
 ! A110  A(16,13,39)            71.4311         calculate D2E/DX2 analytically  !
 ! A111  A(37,13,38)            81.6539         calculate D2E/DX2 analytically  !
 ! A112  A(21,14,51)            81.5348         calculate D2E/DX2 analytically  !
 ! A113  A(12,15,27)            89.5283         calculate D2E/DX2 analytically  !
 ! A114  A(12,15,54)            89.4821         calculate D2E/DX2 analytically  !
 ! A115  A(27,15,54)            79.9695         calculate D2E/DX2 analytically  !
 ! A116  A(6,16,18)             75.3045         calculate D2E/DX2 analytically  !
 ! A117  A(13,16,18)            96.9385         calculate D2E/DX2 analytically  !
 ! A118  A(24,17,33)            83.6084         calculate D2E/DX2 analytically  !
 ! A119  A(24,17,36)            85.2664         calculate D2E/DX2 analytically  !
 ! A120  A(33,17,36)            94.6961         calculate D2E/DX2 analytically  !
 ! A121  A(7,18,16)             74.8105         calculate D2E/DX2 analytically  !
 ! A122  A(7,18,19)             89.96           calculate D2E/DX2 analytically  !
 ! A123  A(7,18,20)            144.1493         calculate D2E/DX2 analytically  !
 ! A124  A(7,18,40)             96.1258         calculate D2E/DX2 analytically  !
 ! A125  A(7,18,42)             99.3021         calculate D2E/DX2 analytically  !
 ! A126  A(16,18,19)           143.927          calculate D2E/DX2 analytically  !
 ! A127  A(16,18,20)            81.9912         calculate D2E/DX2 analytically  !
 ! A128  A(16,18,40)            96.6956         calculate D2E/DX2 analytically  !
 ! A129  A(16,18,42)            93.2258         calculate D2E/DX2 analytically  !
 ! A130  A(19,18,20)            93.1801         calculate D2E/DX2 analytically  !
 ! A131  A(19,18,40)           117.6326         calculate D2E/DX2 analytically  !
 ! A132  A(20,18,40)           113.6339         calculate D2E/DX2 analytically  !
 ! A133  A(40,18,42)           163.4039         calculate D2E/DX2 analytically  !
 ! A134  A(2,21,5)              82.8636         calculate D2E/DX2 analytically  !
 ! A135  A(2,21,14)             65.6612         calculate D2E/DX2 analytically  !
 ! A136  A(2,21,22)            148.811          calculate D2E/DX2 analytically  !
 ! A137  A(2,21,23)             80.2713         calculate D2E/DX2 analytically  !
 ! A138  A(2,21,48)             89.6021         calculate D2E/DX2 analytically  !
 ! A139  A(2,21,49)            131.6568         calculate D2E/DX2 analytically  !
 ! A140  A(5,21,14)            117.6769         calculate D2E/DX2 analytically  !
 ! A141  A(5,21,22)             89.0468         calculate D2E/DX2 analytically  !
 ! A142  A(5,21,23)            136.09           calculate D2E/DX2 analytically  !
 ! A143  A(5,21,48)             89.9994         calculate D2E/DX2 analytically  !
 ! A144  A(5,21,49)             80.0987         calculate D2E/DX2 analytically  !
 ! A145  A(12,21,14)            64.1953         calculate D2E/DX2 analytically  !
 ! A146  A(12,21,22)            99.3055         calculate D2E/DX2 analytically  !
 ! A147  A(12,21,23)           131.6067         calculate D2E/DX2 analytically  !
 ! A148  A(12,21,48)           126.5141         calculate D2E/DX2 analytically  !
 ! A149  A(12,21,49)           134.2411         calculate D2E/DX2 analytically  !
 ! A150  A(14,21,22)            92.3292         calculate D2E/DX2 analytically  !
 ! A151  A(14,21,23)            91.3196         calculate D2E/DX2 analytically  !
 ! A152  A(14,21,48)           138.1622         calculate D2E/DX2 analytically  !
 ! A153  A(14,21,49)           158.8103         calculate D2E/DX2 analytically  !
 ! A154  A(22,21,23)           124.0771         calculate D2E/DX2 analytically  !
 ! A155  A(22,21,48)           120.5883         calculate D2E/DX2 analytically  !
 ! A156  A(22,21,49)            75.669          calculate D2E/DX2 analytically  !
 ! A157  A(23,21,49)            81.5443         calculate D2E/DX2 analytically  !
 ! A158  A(21,22,51)            83.517          calculate D2E/DX2 analytically  !
 ! A159  A(9,24,17)            124.0483         calculate D2E/DX2 analytically  !
 ! A160  A(9,24,25)            134.1943         calculate D2E/DX2 analytically  !
 ! A161  A(9,24,27)             78.7084         calculate D2E/DX2 analytically  !
 ! A162  A(9,24,28)            105.6186         calculate D2E/DX2 analytically  !
 ! A163  A(10,24,17)           134.3593         calculate D2E/DX2 analytically  !
 ! A164  A(10,24,25)            84.1874         calculate D2E/DX2 analytically  !
 ! A165  A(10,24,26)           109.1755         calculate D2E/DX2 analytically  !
 ! A166  A(10,24,27)           108.6167         calculate D2E/DX2 analytically  !
 ! A167  A(10,24,28)            88.8425         calculate D2E/DX2 analytically  !
 ! A168  A(17,24,25)            71.74           calculate D2E/DX2 analytically  !
 ! A169  A(17,24,26)            86.5249         calculate D2E/DX2 analytically  !
 ! A170  A(17,24,27)           115.3103         calculate D2E/DX2 analytically  !
 ! A171  A(17,24,28)           126.8932         calculate D2E/DX2 analytically  !
 ! A172  A(25,24,26)           157.8134         calculate D2E/DX2 analytically  !
 ! A173  A(25,24,27)           137.9411         calculate D2E/DX2 analytically  !
 ! A174  A(25,24,28)            87.6731         calculate D2E/DX2 analytically  !
 ! A175  A(26,24,28)           109.6336         calculate D2E/DX2 analytically  !
 ! A176  A(24,25,33)            84.0833         calculate D2E/DX2 analytically  !
 ! A177  A(24,25,36)            82.8215         calculate D2E/DX2 analytically  !
 ! A178  A(33,25,36)            96.2207         calculate D2E/DX2 analytically  !
 ! A179  A(9,26,27)             93.787          calculate D2E/DX2 analytically  !
 ! A180  A(11,27,15)            86.0861         calculate D2E/DX2 analytically  !
 ! A181  A(11,27,24)            83.1233         calculate D2E/DX2 analytically  !
 ! A182  A(11,27,26)            83.1749         calculate D2E/DX2 analytically  !
 ! A183  A(11,27,28)            84.5741         calculate D2E/DX2 analytically  !
 ! A184  A(11,27,29)           162.6837         calculate D2E/DX2 analytically  !
 ! A185  A(11,27,30)           140.8256         calculate D2E/DX2 analytically  !
 ! A186  A(11,27,55)            79.472          calculate D2E/DX2 analytically  !
 ! A187  A(11,27,57)           129.8997         calculate D2E/DX2 analytically  !
 ! A188  A(15,27,24)           129.6617         calculate D2E/DX2 analytically  !
 ! A189  A(15,27,26)            78.4121         calculate D2E/DX2 analytically  !
 ! A190  A(15,27,29)            76.6159         calculate D2E/DX2 analytically  !
 ! A191  A(15,27,30)           133.0526         calculate D2E/DX2 analytically  !
 ! A192  A(15,27,55)            92.1943         calculate D2E/DX2 analytically  !
 ! A193  A(15,27,57)            85.5463         calculate D2E/DX2 analytically  !
 ! A194  A(24,27,29)           107.2599         calculate D2E/DX2 analytically  !
 ! A195  A(24,27,30)            72.6558         calculate D2E/DX2 analytically  !
 ! A196  A(24,27,55)           133.1356         calculate D2E/DX2 analytically  !
 ! A197  A(24,27,57)           136.5056         calculate D2E/DX2 analytically  !
 ! A198  A(26,27,28)           103.385          calculate D2E/DX2 analytically  !
 ! A199  A(26,27,29)            92.4489         calculate D2E/DX2 analytically  !
 ! A200  A(26,27,30)           103.7375         calculate D2E/DX2 analytically  !
 ! A201  A(26,27,55)           160.7992         calculate D2E/DX2 analytically  !
 ! A202  A(26,27,57)           142.2245         calculate D2E/DX2 analytically  !
 ! A203  A(28,27,29)           112.7419         calculate D2E/DX2 analytically  !
 ! A204  A(28,27,55)            83.1703         calculate D2E/DX2 analytically  !
 ! A205  A(28,27,57)            98.1795         calculate D2E/DX2 analytically  !
 ! A206  A(29,27,55)           101.7092         calculate D2E/DX2 analytically  !
 ! A207  A(30,27,55)            94.9308         calculate D2E/DX2 analytically  !
 ! A208  A(24,28,30)            87.2614         calculate D2E/DX2 analytically  !
 ! A209  A(27,30,31)           104.5077         calculate D2E/DX2 analytically  !
 ! A210  A(27,30,32)           118.9095         calculate D2E/DX2 analytically  !
 ! A211  A(27,30,33)           120.4591         calculate D2E/DX2 analytically  !
 ! A212  A(27,30,34)           135.8709         calculate D2E/DX2 analytically  !
 ! A213  A(28,30,29)           114.4976         calculate D2E/DX2 analytically  !
 ! A214  A(28,30,31)            93.8451         calculate D2E/DX2 analytically  !
 ! A215  A(28,30,32)           131.7038         calculate D2E/DX2 analytically  !
 ! A216  A(28,30,33)            87.8264         calculate D2E/DX2 analytically  !
 ! A217  A(28,30,34)            79.3882         calculate D2E/DX2 analytically  !
 ! A218  A(28,30,57)            96.8765         calculate D2E/DX2 analytically  !
 ! A219  A(29,30,31)           101.1233         calculate D2E/DX2 analytically  !
 ! A220  A(29,30,32)            82.141          calculate D2E/DX2 analytically  !
 ! A221  A(29,30,33)           126.7484         calculate D2E/DX2 analytically  !
 ! A222  A(31,30,32)           128.7229         calculate D2E/DX2 analytically  !
 ! A223  A(31,30,33)           126.1445         calculate D2E/DX2 analytically  !
 ! A224  A(31,30,34)            82.2617         calculate D2E/DX2 analytically  !
 ! A225  A(32,30,34)            84.5318         calculate D2E/DX2 analytically  !
 ! A226  A(32,30,57)           124.3745         calculate D2E/DX2 analytically  !
 ! A227  A(34,30,57)           137.2732         calculate D2E/DX2 analytically  !
 ! A228  A(30,31,58)           107.2032         calculate D2E/DX2 analytically  !
 ! A229  A(17,33,25)            72.6398         calculate D2E/DX2 analytically  !
 ! A230  A(17,33,30)            88.7206         calculate D2E/DX2 analytically  !
 ! A231  A(17,33,32)            75.3656         calculate D2E/DX2 analytically  !
 ! A232  A(17,33,34)           140.034          calculate D2E/DX2 analytically  !
 ! A233  A(17,33,59)           112.9927         calculate D2E/DX2 analytically  !
 ! A234  A(25,33,30)           100.4258         calculate D2E/DX2 analytically  !
 ! A235  A(25,33,32)           135.5711         calculate D2E/DX2 analytically  !
 ! A236  A(25,33,34)            92.8925         calculate D2E/DX2 analytically  !
 ! A237  A(25,33,59)           111.4471         calculate D2E/DX2 analytically  !
 ! A238  A(30,33,59)           145.3615         calculate D2E/DX2 analytically  !
 ! A239  A(32,33,34)            92.2702         calculate D2E/DX2 analytically  !
 ! A240  A(32,33,59)           109.0205         calculate D2E/DX2 analytically  !
 ! A241  A(34,33,59)           106.9723         calculate D2E/DX2 analytically  !
 ! A242  A(17,36,25)            74.8931         calculate D2E/DX2 analytically  !
 ! A243  A(17,36,35)           104.6738         calculate D2E/DX2 analytically  !
 ! A244  A(17,36,37)           139.4054         calculate D2E/DX2 analytically  !
 ! A245  A(17,36,38)            83.2059         calculate D2E/DX2 analytically  !
 ! A246  A(17,36,39)           134.9281         calculate D2E/DX2 analytically  !
 ! A247  A(25,36,35)           105.2656         calculate D2E/DX2 analytically  !
 ! A248  A(25,36,37)            83.3238         calculate D2E/DX2 analytically  !
 ! A249  A(25,36,38)           136.8909         calculate D2E/DX2 analytically  !
 ! A250  A(25,36,39)           133.813          calculate D2E/DX2 analytically  !
 ! A251  A(35,36,37)           114.0139         calculate D2E/DX2 analytically  !
 ! A252  A(35,36,38)           116.1091         calculate D2E/DX2 analytically  !
 ! A253  A(35,36,39)            99.2744         calculate D2E/DX2 analytically  !
 ! A254  A(37,36,38)            90.3387         calculate D2E/DX2 analytically  !
 ! A255  A(13,37,36)            78.6966         calculate D2E/DX2 analytically  !
 ! A256  A(13,38,36)            81.2628         calculate D2E/DX2 analytically  !
 ! A257  A(13,39,36)            64.6119         calculate D2E/DX2 analytically  !
 ! A258  A(13,39,40)            98.3916         calculate D2E/DX2 analytically  !
 ! A259  A(13,39,41)           157.3659         calculate D2E/DX2 analytically  !
 ! A260  A(36,39,40)           145.0997         calculate D2E/DX2 analytically  !
 ! A261  A(36,39,41)            92.9085         calculate D2E/DX2 analytically  !
 ! A262  A(37,39,38)            90.8448         calculate D2E/DX2 analytically  !
 ! A263  A(37,39,40)            93.0655         calculate D2E/DX2 analytically  !
 ! A264  A(37,39,41)           111.8772         calculate D2E/DX2 analytically  !
 ! A265  A(38,39,40)           143.0993         calculate D2E/DX2 analytically  !
 ! A266  A(38,39,41)           110.2806         calculate D2E/DX2 analytically  !
 ! A267  A(40,39,41)           102.1584         calculate D2E/DX2 analytically  !
 ! A268  A(18,40,39)           104.0831         calculate D2E/DX2 analytically  !
 ! A269  A(18,42,43)            93.1894         calculate D2E/DX2 analytically  !
 ! A270  A(18,42,44)            92.0084         calculate D2E/DX2 analytically  !
 ! A271  A(18,42,45)           124.5684         calculate D2E/DX2 analytically  !
 ! A272  A(18,42,61)           131.4221         calculate D2E/DX2 analytically  !
 ! A273  A(19,42,20)            79.5365         calculate D2E/DX2 analytically  !
 ! A274  A(19,42,43)           136.2436         calculate D2E/DX2 analytically  !
 ! A275  A(19,42,44)            79.2976         calculate D2E/DX2 analytically  !
 ! A276  A(19,42,45)           131.8375         calculate D2E/DX2 analytically  !
 ! A277  A(19,42,61)           101.5442         calculate D2E/DX2 analytically  !
 ! A278  A(20,42,43)            80.6712         calculate D2E/DX2 analytically  !
 ! A279  A(20,42,44)           136.8336         calculate D2E/DX2 analytically  !
 ! A280  A(20,42,45)           132.9014         calculate D2E/DX2 analytically  !
 ! A281  A(20,42,61)           101.0286         calculate D2E/DX2 analytically  !
 ! A282  A(43,42,44)            89.395          calculate D2E/DX2 analytically  !
 ! A283  A(43,42,61)           120.3879         calculate D2E/DX2 analytically  !
 ! A284  A(44,42,61)           119.8531         calculate D2E/DX2 analytically  !
 ! A285  A(45,42,61)           103.9965         calculate D2E/DX2 analytically  !
 ! A286  A(6,43,42)             78.3504         calculate D2E/DX2 analytically  !
 ! A287  A(6,43,45)             80.2432         calculate D2E/DX2 analytically  !
 ! A288  A(6,44,42)             78.8233         calculate D2E/DX2 analytically  !
 ! A289  A(6,44,45)             80.4659         calculate D2E/DX2 analytically  !
 ! A290  A(3,45,42)            136.0576         calculate D2E/DX2 analytically  !
 ! A291  A(3,45,43)             83.7914         calculate D2E/DX2 analytically  !
 ! A292  A(3,45,44)            137.4904         calculate D2E/DX2 analytically  !
 ! A293  A(3,45,46)             75.1802         calculate D2E/DX2 analytically  !
 ! A294  A(3,45,47)            105.917          calculate D2E/DX2 analytically  !
 ! A295  A(42,45,46)           135.0059         calculate D2E/DX2 analytically  !
 ! A296  A(42,45,47)            95.6571         calculate D2E/DX2 analytically  !
 ! A297  A(43,45,44)            89.1197         calculate D2E/DX2 analytically  !
 ! A298  A(43,45,46)           137.8943         calculate D2E/DX2 analytically  !
 ! A299  A(43,45,47)           115.0857         calculate D2E/DX2 analytically  !
 ! A300  A(44,45,46)            82.8334         calculate D2E/DX2 analytically  !
 ! A301  A(44,45,47)           114.9466         calculate D2E/DX2 analytically  !
 ! A302  A(46,45,47)           105.6882         calculate D2E/DX2 analytically  !
 ! A303  A(1,46,45)             83.5526         calculate D2E/DX2 analytically  !
 ! A304  A(1,46,48)             83.9989         calculate D2E/DX2 analytically  !
 ! A305  A(45,46,48)            95.4555         calculate D2E/DX2 analytically  !
 ! A306  A(3,48,21)             93.0425         calculate D2E/DX2 analytically  !
 ! A307  A(3,48,23)             84.9105         calculate D2E/DX2 analytically  !
 ! A308  A(3,48,46)             73.1789         calculate D2E/DX2 analytically  !
 ! A309  A(3,48,49)            141.7687         calculate D2E/DX2 analytically  !
 ! A310  A(3,48,50)            111.1854         calculate D2E/DX2 analytically  !
 ! A311  A(21,48,46)            93.6517         calculate D2E/DX2 analytically  !
 ! A312  A(21,48,50)           147.7186         calculate D2E/DX2 analytically  !
 ! A313  A(23,48,46)           137.0841         calculate D2E/DX2 analytically  !
 ! A314  A(23,48,49)            89.8258         calculate D2E/DX2 analytically  !
 ! A315  A(23,48,50)           109.0305         calculate D2E/DX2 analytically  !
 ! A316  A(46,48,49)            85.7617         calculate D2E/DX2 analytically  !
 ! A317  A(46,48,50)           113.17           calculate D2E/DX2 analytically  !
 ! A318  A(49,48,50)           106.3312         calculate D2E/DX2 analytically  !
 ! A319  A(14,51,22)           100.9833         calculate D2E/DX2 analytically  !
 ! A320  A(14,51,52)           100.1517         calculate D2E/DX2 analytically  !
 ! A321  A(14,51,53)           105.9146         calculate D2E/DX2 analytically  !
 ! A322  A(14,51,60)           111.3641         calculate D2E/DX2 analytically  !
 ! A323  A(22,51,52)            78.8196         calculate D2E/DX2 analytically  !
 ! A324  A(22,51,53)           145.0862         calculate D2E/DX2 analytically  !
 ! A325  A(22,51,60)            98.6687         calculate D2E/DX2 analytically  !
 ! A326  A(52,51,53)            74.9115         calculate D2E/DX2 analytically  !
 ! A327  A(52,51,60)           148.1916         calculate D2E/DX2 analytically  !
 ! A328  A(53,51,60)            91.9127         calculate D2E/DX2 analytically  !
 ! A329  A(12,52,51)            85.8559         calculate D2E/DX2 analytically  !
 ! A330  A(12,52,54)            85.3089         calculate D2E/DX2 analytically  !
 ! A331  A(51,52,54)            92.3361         calculate D2E/DX2 analytically  !
 ! A332  A(51,53,54)            98.9101         calculate D2E/DX2 analytically  !
 ! A333  A(15,54,52)            96.7701         calculate D2E/DX2 analytically  !
 ! A334  A(15,54,53)           109.0953         calculate D2E/DX2 analytically  !
 ! A335  A(15,54,55)           105.4615         calculate D2E/DX2 analytically  !
 ! A336  A(15,54,56)           107.3287         calculate D2E/DX2 analytically  !
 ! A337  A(15,54,57)            95.5373         calculate D2E/DX2 analytically  !
 ! A338  A(52,54,53)            77.3028         calculate D2E/DX2 analytically  !
 ! A339  A(52,54,55)            84.9678         calculate D2E/DX2 analytically  !
 ! A340  A(52,54,56)           152.9551         calculate D2E/DX2 analytically  !
 ! A341  A(52,54,57)           138.4664         calculate D2E/DX2 analytically  !
 ! A342  A(53,54,55)           142.6104         calculate D2E/DX2 analytically  !
 ! A343  A(53,54,56)            83.2411         calculate D2E/DX2 analytically  !
 ! A344  A(53,54,57)           134.2815         calculate D2E/DX2 analytically  !
 ! A345  A(55,54,56)            99.8467         calculate D2E/DX2 analytically  !
 ! A346  A(27,55,54)            80.8656         calculate D2E/DX2 analytically  !
 ! A347  A(27,57,31)            96.7104         calculate D2E/DX2 analytically  !
 ! A348  A(27,57,54)            67.3595         calculate D2E/DX2 analytically  !
 ! A349  A(27,57,56)           115.1379         calculate D2E/DX2 analytically  !
 ! A350  A(27,57,58)           142.7349         calculate D2E/DX2 analytically  !
 ! A351  A(29,57,31)           102.4987         calculate D2E/DX2 analytically  !
 ! A352  A(29,57,54)            93.4297         calculate D2E/DX2 analytically  !
 ! A353  A(29,57,55)           110.3802         calculate D2E/DX2 analytically  !
 ! A354  A(29,57,56)           100.1552         calculate D2E/DX2 analytically  !
 ! A355  A(29,57,58)           107.3086         calculate D2E/DX2 analytically  !
 ! A356  A(30,57,54)           121.8259         calculate D2E/DX2 analytically  !
 ! A357  A(30,57,55)            90.4674         calculate D2E/DX2 analytically  !
 ! A358  A(30,57,56)           153.7392         calculate D2E/DX2 analytically  !
 ! A359  A(30,57,58)            88.3655         calculate D2E/DX2 analytically  !
 ! A360  A(31,57,54)           145.321          calculate D2E/DX2 analytically  !
 ! A361  A(31,57,55)            91.2004         calculate D2E/DX2 analytically  !
 ! A362  A(31,57,56)           147.6825         calculate D2E/DX2 analytically  !
 ! A363  A(54,57,58)           149.7833         calculate D2E/DX2 analytically  !
 ! A364  A(55,57,56)           102.1757         calculate D2E/DX2 analytically  !
 ! A365  A(55,57,58)           131.7627         calculate D2E/DX2 analytically  !
 ! A366  A(56,57,58)            99.6268         calculate D2E/DX2 analytically  !
 ! A367  L(5,12,15,2,-1)       190.7593         calculate D2E/DX2 analytically  !
 ! A368  L(9,13,39,7,-1)       188.5152         calculate D2E/DX2 analytically  !
 ! A369  L(15,27,28,11,-1)     170.6602         calculate D2E/DX2 analytically  !
 ! A370  L(29,30,34,28,-1)     193.8858         calculate D2E/DX2 analytically  !
 ! A371  L(33,30,57,28,-1)     184.703          calculate D2E/DX2 analytically  !
 ! A372  L(5,12,15,2,-2)       183.1635         calculate D2E/DX2 analytically  !
 ! A373  L(9,13,39,7,-2)       175.3207         calculate D2E/DX2 analytically  !
 ! A374  L(15,27,28,11,-2)     182.9943         calculate D2E/DX2 analytically  !
 ! A375  L(29,30,34,28,-2)     174.5506         calculate D2E/DX2 analytically  !
 ! A376  L(33,30,57,28,-2)     181.612          calculate D2E/DX2 analytically  !
 ! D1    D(3,1,2,21)            95.6579         calculate D2E/DX2 analytically  !
 ! D2    D(4,1,2,21)          -109.9316         calculate D2E/DX2 analytically  !
 ! D3    D(5,1,2,21)           -35.1937         calculate D2E/DX2 analytically  !
 ! D4    D(8,1,2,21)          -174.7959         calculate D2E/DX2 analytically  !
 ! D5    D(46,1,2,21)           39.3746         calculate D2E/DX2 analytically  !
 ! D6    D(2,1,3,45)           171.7021         calculate D2E/DX2 analytically  !
 ! D7    D(2,1,3,48)           -93.6215         calculate D2E/DX2 analytically  !
 ! D8    D(4,1,3,45)            16.4703         calculate D2E/DX2 analytically  !
 ! D9    D(4,1,3,48)           111.1467         calculate D2E/DX2 analytically  !
 ! D10   D(5,1,3,45)          -109.1986         calculate D2E/DX2 analytically  !
 ! D11   D(5,1,3,48)           -14.5222         calculate D2E/DX2 analytically  !
 ! D12   D(8,1,3,45)            91.7628         calculate D2E/DX2 analytically  !
 ! D13   D(8,1,3,48)          -173.5608         calculate D2E/DX2 analytically  !
 ! D14   D(12,1,3,45)         -172.7272         calculate D2E/DX2 analytically  !
 ! D15   D(12,1,3,48)          -78.0507         calculate D2E/DX2 analytically  !
 ! D16   D(46,1,3,45)          -46.868          calculate D2E/DX2 analytically  !
 ! D17   D(46,1,3,48)           47.8085         calculate D2E/DX2 analytically  !
 ! D18   D(2,1,4,6)           -105.9761         calculate D2E/DX2 analytically  !
 ! D19   D(2,1,4,9)            -24.4307         calculate D2E/DX2 analytically  !
 ! D20   D(3,1,4,6)             36.2789         calculate D2E/DX2 analytically  !
 ! D21   D(3,1,4,9)            117.8243         calculate D2E/DX2 analytically  !
 ! D22   D(5,1,4,6)            177.0899         calculate D2E/DX2 analytically  !
 ! D23   D(5,1,4,9)           -101.3647         calculate D2E/DX2 analytically  !
 ! D24   D(8,1,4,6)            -41.654          calculate D2E/DX2 analytically  !
 ! D25   D(8,1,4,9)             39.8914         calculate D2E/DX2 analytically  !
 ! D26   D(12,1,4,6)          -136.3878         calculate D2E/DX2 analytically  !
 ! D27   D(12,1,4,9)           -54.8425         calculate D2E/DX2 analytically  !
 ! D28   D(46,1,4,6)            95.6381         calculate D2E/DX2 analytically  !
 ! D29   D(46,1,4,9)           177.1835         calculate D2E/DX2 analytically  !
 ! D30   D(2,1,5,21)            38.5643         calculate D2E/DX2 analytically  !
 ! D31   D(3,1,5,21)           -37.5812         calculate D2E/DX2 analytically  !
 ! D32   D(4,1,5,21)           177.3277         calculate D2E/DX2 analytically  !
 ! D33   D(8,1,5,21)           110.2623         calculate D2E/DX2 analytically  !
 ! D34   D(46,1,5,21)          -96.8862         calculate D2E/DX2 analytically  !
 ! D35   D(2,1,8,6)           -175.7897         calculate D2E/DX2 analytically  !
 ! D36   D(2,1,8,9)            101.7314         calculate D2E/DX2 analytically  !
 ! D37   D(3,1,8,6)            -94.5365         calculate D2E/DX2 analytically  !
 ! D38   D(3,1,8,9)           -177.0154         calculate D2E/DX2 analytically  !
 ! D39   D(4,1,8,6)             42.4644         calculate D2E/DX2 analytically  !
 ! D40   D(4,1,8,9)            -40.0146         calculate D2E/DX2 analytically  !
 ! D41   D(5,1,8,6)            109.6582         calculate D2E/DX2 analytically  !
 ! D42   D(5,1,8,9)             27.1793         calculate D2E/DX2 analytically  !
 ! D43   D(12,1,8,6)           138.0113         calculate D2E/DX2 analytically  !
 ! D44   D(12,1,8,9)            55.5324         calculate D2E/DX2 analytically  !
 ! D45   D(46,1,8,6)           -30.6703         calculate D2E/DX2 analytically  !
 ! D46   D(46,1,8,9)          -113.1492         calculate D2E/DX2 analytically  !
 ! D47   D(3,1,12,11)         -165.4686         calculate D2E/DX2 analytically  !
 ! D48   D(3,1,12,15)          -78.7627         calculate D2E/DX2 analytically  !
 ! D49   D(3,1,12,21)           50.1763         calculate D2E/DX2 analytically  !
 ! D50   D(3,1,12,52)          113.9542         calculate D2E/DX2 analytically  !
 ! D51   D(4,1,12,11)            8.0962         calculate D2E/DX2 analytically  !
 ! D52   D(4,1,12,15)           94.8022         calculate D2E/DX2 analytically  !
 ! D53   D(4,1,12,21)         -136.2588         calculate D2E/DX2 analytically  !
 ! D54   D(4,1,12,52)          -72.481          calculate D2E/DX2 analytically  !
 ! D55   D(8,1,12,11)          -73.7272         calculate D2E/DX2 analytically  !
 ! D56   D(8,1,12,15)           12.9787         calculate D2E/DX2 analytically  !
 ! D57   D(8,1,12,21)          141.9177         calculate D2E/DX2 analytically  !
 ! D58   D(8,1,12,52)         -154.3044         calculate D2E/DX2 analytically  !
 ! D59   D(46,1,12,11)          96.1154         calculate D2E/DX2 analytically  !
 ! D60   D(46,1,12,15)        -177.1786         calculate D2E/DX2 analytically  !
 ! D61   D(46,1,12,21)         -48.2396         calculate D2E/DX2 analytically  !
 ! D62   D(46,1,12,52)          15.5382         calculate D2E/DX2 analytically  !
 ! D63   D(2,1,46,45)          106.5914         calculate D2E/DX2 analytically  !
 ! D64   D(2,1,46,48)           10.3865         calculate D2E/DX2 analytically  !
 ! D65   D(3,1,46,45)           47.5767         calculate D2E/DX2 analytically  !
 ! D66   D(3,1,46,48)          -48.6282         calculate D2E/DX2 analytically  !
 ! D67   D(4,1,46,45)          -93.6909         calculate D2E/DX2 analytically  !
 ! D68   D(4,1,46,48)          170.1041         calculate D2E/DX2 analytically  !
 ! D69   D(5,1,46,45)         -176.0902         calculate D2E/DX2 analytically  !
 ! D70   D(5,1,46,48)           87.7048         calculate D2E/DX2 analytically  !
 ! D71   D(8,1,46,45)          -21.8392         calculate D2E/DX2 analytically  !
 ! D72   D(8,1,46,48)         -118.0441         calculate D2E/DX2 analytically  !
 ! D73   D(12,1,46,45)         172.5648         calculate D2E/DX2 analytically  !
 ! D74   D(12,1,46,48)          76.3599         calculate D2E/DX2 analytically  !
 ! D75   D(1,2,21,5)            36.2114         calculate D2E/DX2 analytically  !
 ! D76   D(1,2,21,14)          160.9899         calculate D2E/DX2 analytically  !
 ! D77   D(1,2,21,22)          112.3723         calculate D2E/DX2 analytically  !
 ! D78   D(1,2,21,23)         -103.0868         calculate D2E/DX2 analytically  !
 ! D79   D(1,2,21,48)          -53.8379         calculate D2E/DX2 analytically  !
 ! D80   D(1,2,21,49)          -33.7091         calculate D2E/DX2 analytically  !
 ! D81   D(1,3,45,42)          -93.1148         calculate D2E/DX2 analytically  !
 ! D82   D(1,3,45,43)          -95.0909         calculate D2E/DX2 analytically  !
 ! D83   D(1,3,45,44)          -13.2284         calculate D2E/DX2 analytically  !
 ! D84   D(1,3,45,46)           48.1108         calculate D2E/DX2 analytically  !
 ! D85   D(1,3,45,47)          150.5501         calculate D2E/DX2 analytically  !
 ! D86   D(48,3,45,42)        -176.0877         calculate D2E/DX2 analytically  !
 ! D87   D(48,3,45,43)        -178.0637         calculate D2E/DX2 analytically  !
 ! D88   D(48,3,45,44)         -96.2012         calculate D2E/DX2 analytically  !
 ! D89   D(48,3,45,46)         -34.862          calculate D2E/DX2 analytically  !
 ! D90   D(48,3,45,47)          67.5772         calculate D2E/DX2 analytically  !
 ! D91   D(1,3,48,21)           44.6156         calculate D2E/DX2 analytically  !
 ! D92   D(1,3,48,23)           94.3768         calculate D2E/DX2 analytically  !
 ! D93   D(1,3,48,46)          -48.2826         calculate D2E/DX2 analytically  !
 ! D94   D(1,3,48,49)           11.1527         calculate D2E/DX2 analytically  !
 ! D95   D(1,3,48,50)         -157.1675         calculate D2E/DX2 analytically  !
 ! D96   D(45,3,48,21)         127.2681         calculate D2E/DX2 analytically  !
 ! D97   D(45,3,48,23)         177.0292         calculate D2E/DX2 analytically  !
 ! D98   D(45,3,48,46)          34.3698         calculate D2E/DX2 analytically  !
 ! D99   D(45,3,48,49)          93.8051         calculate D2E/DX2 analytically  !
 ! D100  D(45,3,48,50)         -74.5151         calculate D2E/DX2 analytically  !
 ! D101  D(1,4,6,7)            171.7567         calculate D2E/DX2 analytically  !
 ! D102  D(1,4,6,8)             42.7317         calculate D2E/DX2 analytically  !
 ! D103  D(1,4,6,13)           119.711          calculate D2E/DX2 analytically  !
 ! D104  D(1,4,6,16)           107.0569         calculate D2E/DX2 analytically  !
 ! D105  D(1,4,6,43)           -28.9924         calculate D2E/DX2 analytically  !
 ! D106  D(1,4,6,44)           -97.3946         calculate D2E/DX2 analytically  !
 ! D107  D(9,4,6,7)             87.662          calculate D2E/DX2 analytically  !
 ! D108  D(9,4,6,8)            -41.363          calculate D2E/DX2 analytically  !
 ! D109  D(9,4,6,13)            35.6163         calculate D2E/DX2 analytically  !
 ! D110  D(9,4,6,16)            22.9622         calculate D2E/DX2 analytically  !
 ! D111  D(9,4,6,43)          -113.0871         calculate D2E/DX2 analytically  !
 ! D112  D(9,4,6,44)           178.5107         calculate D2E/DX2 analytically  !
 ! D113  D(1,4,9,8)            -40.862          calculate D2E/DX2 analytically  !
 ! D114  D(1,4,9,10)           176.6553         calculate D2E/DX2 analytically  !
 ! D115  D(1,4,9,11)            87.6898         calculate D2E/DX2 analytically  !
 ! D116  D(1,4,9,13)          -125.2906         calculate D2E/DX2 analytically  !
 ! D117  D(1,4,9,24)           163.0107         calculate D2E/DX2 analytically  !
 ! D118  D(1,4,9,26)            37.2231         calculate D2E/DX2 analytically  !
 ! D119  D(6,4,9,8)             41.3212         calculate D2E/DX2 analytically  !
 ! D120  D(6,4,9,10)          -101.1615         calculate D2E/DX2 analytically  !
 ! D121  D(6,4,9,11)           169.873          calculate D2E/DX2 analytically  !
 ! D122  D(6,4,9,13)           -43.1074         calculate D2E/DX2 analytically  !
 ! D123  D(6,4,9,24)          -114.8061         calculate D2E/DX2 analytically  !
 ! D124  D(6,4,9,26)           119.4063         calculate D2E/DX2 analytically  !
 ! D125  D(1,5,21,2)           -34.5308         calculate D2E/DX2 analytically  !
 ! D126  D(1,5,21,14)          -92.2085         calculate D2E/DX2 analytically  !
 ! D127  D(1,5,21,22)          175.6612         calculate D2E/DX2 analytically  !
 ! D128  D(1,5,21,23)           33.4067         calculate D2E/DX2 analytically  !
 ! D129  D(1,5,21,48)           55.0682         calculate D2E/DX2 analytically  !
 ! D130  D(1,5,21,49)          100.0439         calculate D2E/DX2 analytically  !
 ! D131  D(4,6,7,18)           166.2972         calculate D2E/DX2 analytically  !
 ! D132  D(8,6,7,18)          -118.7639         calculate D2E/DX2 analytically  !
 ! D133  D(16,6,7,18)          -53.544          calculate D2E/DX2 analytically  !
 ! D134  D(43,6,7,18)            8.4553         calculate D2E/DX2 analytically  !
 ! D135  D(44,6,7,18)           85.5806         calculate D2E/DX2 analytically  !
 ! D136  D(4,6,8,1)            -41.9819         calculate D2E/DX2 analytically  !
 ! D137  D(4,6,8,9)             41.2978         calculate D2E/DX2 analytically  !
 ! D138  D(7,6,8,1)           -117.663          calculate D2E/DX2 analytically  !
 ! D139  D(7,6,8,9)            -34.3833         calculate D2E/DX2 analytically  !
 ! D140  D(13,6,8,1)          -131.3476         calculate D2E/DX2 analytically  !
 ! D141  D(13,6,8,9)           -48.0679         calculate D2E/DX2 analytically  !
 ! D142  D(16,6,8,1)           177.5455         calculate D2E/DX2 analytically  !
 ! D143  D(16,6,8,9)           -99.1748         calculate D2E/DX2 analytically  !
 ! D144  D(43,6,8,1)            94.908          calculate D2E/DX2 analytically  !
 ! D145  D(43,6,8,9)           178.1876         calculate D2E/DX2 analytically  !
 ! D146  D(44,6,8,1)            25.3775         calculate D2E/DX2 analytically  !
 ! D147  D(44,6,8,9)           108.6571         calculate D2E/DX2 analytically  !
 ! D148  D(4,6,13,9)           -35.0803         calculate D2E/DX2 analytically  !
 ! D149  D(4,6,13,10)           12.0628         calculate D2E/DX2 analytically  !
 ! D150  D(4,6,13,37)           98.9593         calculate D2E/DX2 analytically  !
 ! D151  D(4,6,13,38)         -146.9697         calculate D2E/DX2 analytically  !
 ! D152  D(4,6,13,39)          155.1718         calculate D2E/DX2 analytically  !
 ! D153  D(8,6,13,9)            47.3191         calculate D2E/DX2 analytically  !
 ! D154  D(8,6,13,10)           94.4623         calculate D2E/DX2 analytically  !
 ! D155  D(8,6,13,37)         -178.6413         calculate D2E/DX2 analytically  !
 ! D156  D(8,6,13,38)          -64.5703         calculate D2E/DX2 analytically  !
 ! D157  D(8,6,13,39)         -122.4287         calculate D2E/DX2 analytically  !
 ! D158  D(43,6,13,9)          116.08           calculate D2E/DX2 analytically  !
 ! D159  D(43,6,13,10)         163.2231         calculate D2E/DX2 analytically  !
 ! D160  D(43,6,13,37)        -109.8804         calculate D2E/DX2 analytically  !
 ! D161  D(43,6,13,38)           4.1906         calculate D2E/DX2 analytically  !
 ! D162  D(43,6,13,39)         -53.6678         calculate D2E/DX2 analytically  !
 ! D163  D(44,6,13,9)         -107.0468         calculate D2E/DX2 analytically  !
 ! D164  D(44,6,13,10)         -59.9037         calculate D2E/DX2 analytically  !
 ! D165  D(44,6,13,37)          26.9928         calculate D2E/DX2 analytically  !
 ! D166  D(44,6,13,38)         141.0638         calculate D2E/DX2 analytically  !
 ! D167  D(44,6,13,39)          83.2054         calculate D2E/DX2 analytically  !
 ! D168  D(4,6,16,18)          117.3977         calculate D2E/DX2 analytically  !
 ! D169  D(7,6,16,18)           50.5242         calculate D2E/DX2 analytically  !
 ! D170  D(8,6,16,18)         -177.029          calculate D2E/DX2 analytically  !
 ! D171  D(43,6,16,18)         -92.6823         calculate D2E/DX2 analytically  !
 ! D172  D(44,6,16,18)         -25.3447         calculate D2E/DX2 analytically  !
 ! D173  D(4,6,43,42)         -107.4543         calculate D2E/DX2 analytically  !
 ! D174  D(4,6,43,45)          -30.4489         calculate D2E/DX2 analytically  !
 ! D175  D(7,6,43,42)           40.8847         calculate D2E/DX2 analytically  !
 ! D176  D(7,6,43,45)          117.8901         calculate D2E/DX2 analytically  !
 ! D177  D(8,6,43,42)         -178.87           calculate D2E/DX2 analytically  !
 ! D178  D(8,6,43,45)         -101.8646         calculate D2E/DX2 analytically  !
 ! D179  D(13,6,43,42)         114.9925         calculate D2E/DX2 analytically  !
 ! D180  D(13,6,43,45)        -168.0021         calculate D2E/DX2 analytically  !
 ! D181  D(16,6,43,42)         101.6188         calculate D2E/DX2 analytically  !
 ! D182  D(16,6,43,45)         178.6242         calculate D2E/DX2 analytically  !
 ! D183  D(44,6,43,42)         -39.3633         calculate D2E/DX2 analytically  !
 ! D184  D(44,6,43,45)          37.6421         calculate D2E/DX2 analytically  !
 ! D185  D(4,6,44,42)          177.1482         calculate D2E/DX2 analytically  !
 ! D186  D(4,6,44,45)          100.4632         calculate D2E/DX2 analytically  !
 ! D187  D(7,6,44,42)          -99.3107         calculate D2E/DX2 analytically  !
 ! D188  D(7,6,44,45)         -175.9958         calculate D2E/DX2 analytically  !
 ! D189  D(8,6,44,42)          109.3135         calculate D2E/DX2 analytically  !
 ! D190  D(8,6,44,45)           32.6285         calculate D2E/DX2 analytically  !
 ! D191  D(13,6,44,42)        -108.5857         calculate D2E/DX2 analytically  !
 ! D192  D(13,6,44,45)         174.7293         calculate D2E/DX2 analytically  !
 ! D193  D(16,6,44,42)         -27.9793         calculate D2E/DX2 analytically  !
 ! D194  D(16,6,44,45)        -104.6643         calculate D2E/DX2 analytically  !
 ! D195  D(43,6,44,42)          39.3094         calculate D2E/DX2 analytically  !
 ! D196  D(43,6,44,45)         -37.3756         calculate D2E/DX2 analytically  !
 ! D197  D(18,7,13,9)          130.4877         calculate D2E/DX2 analytically  !
 ! D198  D(18,7,13,10)        -175.6661         calculate D2E/DX2 analytically  !
 ! D199  D(18,7,13,16)          25.6638         calculate D2E/DX2 analytically  !
 ! D200  D(18,7,13,37)         -92.421          calculate D2E/DX2 analytically  !
 ! D201  D(18,7,13,38)         -25.4388         calculate D2E/DX2 analytically  !
 ! D202  D(18,7,13,39)         -44.833          calculate D2E/DX2 analytically  !
 ! D203  D(6,7,18,16)           50.8679         calculate D2E/DX2 analytically  !
 ! D204  D(6,7,18,19)          -96.0319         calculate D2E/DX2 analytically  !
 ! D205  D(6,7,18,20)           -0.6523         calculate D2E/DX2 analytically  !
 ! D206  D(6,7,18,40)          146.168          calculate D2E/DX2 analytically  !
 ! D207  D(6,7,18,42)          -39.9695         calculate D2E/DX2 analytically  !
 ! D208  D(13,7,18,16)         -23.7718         calculate D2E/DX2 analytically  !
 ! D209  D(13,7,18,19)        -170.6716         calculate D2E/DX2 analytically  !
 ! D210  D(13,7,18,20)         -75.292          calculate D2E/DX2 analytically  !
 ! D211  D(13,7,18,40)          71.5282         calculate D2E/DX2 analytically  !
 ! D212  D(13,7,18,42)        -114.6093         calculate D2E/DX2 analytically  !
 ! D213  D(1,8,9,4)             40.244          calculate D2E/DX2 analytically  !
 ! D214  D(1,8,9,10)           118.053          calculate D2E/DX2 analytically  !
 ! D215  D(1,8,9,11)           -37.405          calculate D2E/DX2 analytically  !
 ! D216  D(1,8,9,13)           139.7129         calculate D2E/DX2 analytically  !
 ! D217  D(1,8,9,24)          -161.0254         calculate D2E/DX2 analytically  !
 ! D218  D(1,8,9,26)          -123.1704         calculate D2E/DX2 analytically  !
 ! D219  D(6,8,9,4)            -42.0129         calculate D2E/DX2 analytically  !
 ! D220  D(6,8,9,10)            35.7961         calculate D2E/DX2 analytically  !
 ! D221  D(6,8,9,11)          -119.6619         calculate D2E/DX2 analytically  !
 ! D222  D(6,8,9,13)            57.456          calculate D2E/DX2 analytically  !
 ! D223  D(6,8,9,24)           116.7177         calculate D2E/DX2 analytically  !
 ! D224  D(6,8,9,26)           154.5727         calculate D2E/DX2 analytically  !
 ! D225  D(4,9,11,12)          -88.7483         calculate D2E/DX2 analytically  !
 ! D226  D(4,9,11,27)          176.1089         calculate D2E/DX2 analytically  !
 ! D227  D(8,9,11,12)          -11.8952         calculate D2E/DX2 analytically  !
 ! D228  D(8,9,11,27)         -107.038          calculate D2E/DX2 analytically  !
 ! D229  D(10,9,11,12)        -176.9023         calculate D2E/DX2 analytically  !
 ! D230  D(10,9,11,27)          87.9549         calculate D2E/DX2 analytically  !
 ! D231  D(13,9,11,12)         173.4025         calculate D2E/DX2 analytically  !
 ! D232  D(13,9,11,27)          78.2596         calculate D2E/DX2 analytically  !
 ! D233  D(24,9,11,12)         130.5971         calculate D2E/DX2 analytically  !
 ! D234  D(24,9,11,27)          35.4542         calculate D2E/DX2 analytically  !
 ! D235  D(26,9,11,12)          78.2126         calculate D2E/DX2 analytically  !
 ! D236  D(26,9,11,27)         -16.9302         calculate D2E/DX2 analytically  !
 ! D237  D(4,9,13,6)            36.1911         calculate D2E/DX2 analytically  !
 ! D238  D(4,9,13,7)            -7.0917         calculate D2E/DX2 analytically  !
 ! D239  D(4,9,13,16)           73.0474         calculate D2E/DX2 analytically  !
 ! D240  D(4,9,13,37)          -91.9378         calculate D2E/DX2 analytically  !
 ! D241  D(4,9,13,38)          155.214          calculate D2E/DX2 analytically  !
 ! D242  D(8,9,13,6)           -45.9375         calculate D2E/DX2 analytically  !
 ! D243  D(8,9,13,7)           -89.2204         calculate D2E/DX2 analytically  !
 ! D244  D(8,9,13,16)           -9.0813         calculate D2E/DX2 analytically  !
 ! D245  D(8,9,13,37)         -174.0665         calculate D2E/DX2 analytically  !
 ! D246  D(8,9,13,38)           73.0853         calculate D2E/DX2 analytically  !
 ! D247  D(11,9,13,6)          129.8302         calculate D2E/DX2 analytically  !
 ! D248  D(11,9,13,7)           86.5473         calculate D2E/DX2 analytically  !
 ! D249  D(11,9,13,16)         166.6865         calculate D2E/DX2 analytically  !
 ! D250  D(11,9,13,37)           1.7012         calculate D2E/DX2 analytically  !
 ! D251  D(11,9,13,38)        -111.147          calculate D2E/DX2 analytically  !
 ! D252  D(24,9,13,6)          175.3751         calculate D2E/DX2 analytically  !
 ! D253  D(24,9,13,7)          132.0922         calculate D2E/DX2 analytically  !
 ! D254  D(24,9,13,16)        -147.7686         calculate D2E/DX2 analytically  !
 ! D255  D(24,9,13,37)          47.2461         calculate D2E/DX2 analytically  !
 ! D256  D(24,9,13,38)         -65.6021         calculate D2E/DX2 analytically  !
 ! D257  D(26,9,13,6)         -138.7469         calculate D2E/DX2 analytically  !
 ! D258  D(26,9,13,7)          177.9703         calculate D2E/DX2 analytically  !
 ! D259  D(26,9,13,16)        -101.8906         calculate D2E/DX2 analytically  !
 ! D260  D(26,9,13,37)          93.1242         calculate D2E/DX2 analytically  !
 ! D261  D(26,9,13,38)         -19.724          calculate D2E/DX2 analytically  !
 ! D262  D(4,9,24,17)          140.5658         calculate D2E/DX2 analytically  !
 ! D263  D(4,9,24,25)           43.1215         calculate D2E/DX2 analytically  !
 ! D264  D(4,9,24,27)         -106.4027         calculate D2E/DX2 analytically  !
 ! D265  D(4,9,24,28)          -59.1768         calculate D2E/DX2 analytically  !
 ! D266  D(8,9,24,17)           -5.9532         calculate D2E/DX2 analytically  !
 ! D267  D(8,9,24,25)         -103.3975         calculate D2E/DX2 analytically  !
 ! D268  D(8,9,24,27)          107.0783         calculate D2E/DX2 analytically  !
 ! D269  D(8,9,24,28)          154.3042         calculate D2E/DX2 analytically  !
 ! D270  D(11,9,24,17)        -144.1529         calculate D2E/DX2 analytically  !
 ! D271  D(11,9,24,25)         118.4029         calculate D2E/DX2 analytically  !
 ! D272  D(11,9,24,27)         -31.1213         calculate D2E/DX2 analytically  !
 ! D273  D(11,9,24,28)          16.1045         calculate D2E/DX2 analytically  !
 ! D274  D(13,9,24,17)          58.7564         calculate D2E/DX2 analytically  !
 ! D275  D(13,9,24,25)         -38.6879         calculate D2E/DX2 analytically  !
 ! D276  D(13,9,24,27)         171.7879         calculate D2E/DX2 analytically  !
 ! D277  D(13,9,24,28)        -140.9862         calculate D2E/DX2 analytically  !
 ! D278  D(4,9,26,27)           67.564          calculate D2E/DX2 analytically  !
 ! D279  D(8,9,26,27)          144.1323         calculate D2E/DX2 analytically  !
 ! D280  D(10,9,26,27)         -70.2179         calculate D2E/DX2 analytically  !
 ! D281  D(11,9,26,27)          17.1028         calculate D2E/DX2 analytically  !
 ! D282  D(13,9,26,27)        -129.8561         calculate D2E/DX2 analytically  !
 ! D283  D(24,10,13,6)        -130.5164         calculate D2E/DX2 analytically  !
 ! D284  D(24,10,13,7)        -178.9307         calculate D2E/DX2 analytically  !
 ! D285  D(24,10,13,16)       -131.5415         calculate D2E/DX2 analytically  !
 ! D286  D(24,10,13,37)         97.8112         calculate D2E/DX2 analytically  !
 ! D287  D(24,10,13,38)         26.4702         calculate D2E/DX2 analytically  !
 ! D288  D(24,10,13,39)         95.1212         calculate D2E/DX2 analytically  !
 ! D289  D(13,10,24,17)        -37.9406         calculate D2E/DX2 analytically  !
 ! D290  D(13,10,24,25)        -95.2533         calculate D2E/DX2 analytically  !
 ! D291  D(13,10,24,26)         66.555          calculate D2E/DX2 analytically  !
 ! D292  D(13,10,24,27)        125.8777         calculate D2E/DX2 analytically  !
 ! D293  D(13,10,24,28)        176.9682         calculate D2E/DX2 analytically  !
 ! D294  D(9,11,12,1)           41.04           calculate D2E/DX2 analytically  !
 ! D295  D(9,11,12,2)            8.7438         calculate D2E/DX2 analytically  !
 ! D296  D(9,11,12,5)           91.679          calculate D2E/DX2 analytically  !
 ! D297  D(9,11,12,15)         -95.106          calculate D2E/DX2 analytically  !
 ! D298  D(9,11,12,21)          92.5236         calculate D2E/DX2 analytically  !
 ! D299  D(9,11,12,52)         177.1536         calculate D2E/DX2 analytically  !
 ! D300  D(27,11,12,1)         134.777          calculate D2E/DX2 analytically  !
 ! D301  D(27,11,12,2)         102.4807         calculate D2E/DX2 analytically  !
 ! D302  D(27,11,12,5)        -174.584          calculate D2E/DX2 analytically  !
 ! D303  D(27,11,12,15)         -1.369          calculate D2E/DX2 analytically  !
 ! D304  D(27,11,12,21)       -173.7394         calculate D2E/DX2 analytically  !
 ! D305  D(27,11,12,52)        -89.1094         calculate D2E/DX2 analytically  !
 ! D306  D(9,11,27,15)          95.62           calculate D2E/DX2 analytically  !
 ! D307  D(9,11,27,24)         -35.1203         calculate D2E/DX2 analytically  !
 ! D308  D(9,11,27,26)          16.8408         calculate D2E/DX2 analytically  !
 ! D309  D(9,11,27,28)         -87.3743         calculate D2E/DX2 analytically  !
 ! D310  D(9,11,27,29)          92.9953         calculate D2E/DX2 analytically  !
 ! D311  D(9,11,27,30)         -86.5585         calculate D2E/DX2 analytically  !
 ! D312  D(9,11,27,55)        -171.4136         calculate D2E/DX2 analytically  !
 ! D313  D(9,11,27,57)         176.4908         calculate D2E/DX2 analytically  !
 ! D314  D(12,11,27,15)          1.3361         calculate D2E/DX2 analytically  !
 ! D315  D(12,11,27,24)       -129.4042         calculate D2E/DX2 analytically  !
 ! D316  D(12,11,27,26)        -77.4431         calculate D2E/DX2 analytically  !
 ! D317  D(12,11,27,28)        178.3418         calculate D2E/DX2 analytically  !
 ! D318  D(12,11,27,29)         -1.2886         calculate D2E/DX2 analytically  !
 ! D319  D(12,11,27,30)        179.1576         calculate D2E/DX2 analytically  !
 ! D320  D(12,11,27,55)         94.3025         calculate D2E/DX2 analytically  !
 ! D321  D(12,11,27,57)         82.2069         calculate D2E/DX2 analytically  !
 ! D322  D(1,12,15,27)         -84.6312         calculate D2E/DX2 analytically  !
 ! D323  D(1,12,15,54)        -164.6043         calculate D2E/DX2 analytically  !
 ! D324  D(2,12,15,27)        -125.2368         calculate D2E/DX2 analytically  !
 ! D325  D(2,12,15,54)         154.7901         calculate D2E/DX2 analytically  !
 ! D326  D(11,12,15,27)          1.3095         calculate D2E/DX2 analytically  !
 ! D327  D(11,12,15,54)        -78.6637         calculate D2E/DX2 analytically  !
 ! D328  D(21,12,15,27)        174.1459         calculate D2E/DX2 analytically  !
 ! D329  D(21,12,15,54)         94.1727         calculate D2E/DX2 analytically  !
 ! D330  D(52,12,15,27)         86.4947         calculate D2E/DX2 analytically  !
 ! D331  D(52,12,15,54)          6.5216         calculate D2E/DX2 analytically  !
 ! D332  D(1,12,21,14)        -132.6228         calculate D2E/DX2 analytically  !
 ! D333  D(1,12,21,22)         139.2959         calculate D2E/DX2 analytically  !
 ! D334  D(1,12,21,23)         -65.9            calculate D2E/DX2 analytically  !
 ! D335  D(1,12,21,48)          -0.4243         calculate D2E/DX2 analytically  !
 ! D336  D(1,12,21,49)          60.2803         calculate D2E/DX2 analytically  !
 ! D337  D(11,12,21,14)        169.0734         calculate D2E/DX2 analytically  !
 ! D338  D(11,12,21,22)         80.9921         calculate D2E/DX2 analytically  !
 ! D339  D(11,12,21,23)       -124.2037         calculate D2E/DX2 analytically  !
 ! D340  D(11,12,21,48)        -58.7281         calculate D2E/DX2 analytically  !
 ! D341  D(11,12,21,49)          1.9765         calculate D2E/DX2 analytically  !
 ! D342  D(15,12,21,14)         -0.4272         calculate D2E/DX2 analytically  !
 ! D343  D(15,12,21,22)        -88.5084         calculate D2E/DX2 analytically  !
 ! D344  D(15,12,21,23)         66.2957         calculate D2E/DX2 analytically  !
 ! D345  D(15,12,21,48)        131.7714         calculate D2E/DX2 analytically  !
 ! D346  D(15,12,21,49)       -167.524          calculate D2E/DX2 analytically  !
 ! D347  D(52,12,21,14)         86.2914         calculate D2E/DX2 analytically  !
 ! D348  D(52,12,21,22)         -1.7899         calculate D2E/DX2 analytically  !
 ! D349  D(52,12,21,23)        153.0142         calculate D2E/DX2 analytically  !
 ! D350  D(52,12,21,48)       -141.5101         calculate D2E/DX2 analytically  !
 ! D351  D(52,12,21,49)        -80.8055         calculate D2E/DX2 analytically  !
 ! D352  D(1,12,52,51)        -102.0269         calculate D2E/DX2 analytically  !
 ! D353  D(1,12,52,54)         165.2821         calculate D2E/DX2 analytically  !
 ! D354  D(2,12,52,51)         -21.0823         calculate D2E/DX2 analytically  !
 ! D355  D(2,12,52,54)        -113.7734         calculate D2E/DX2 analytically  !
 ! D356  D(5,12,52,51)        -101.602          calculate D2E/DX2 analytically  !
 ! D357  D(5,12,52,54)         165.707          calculate D2E/DX2 analytically  !
 ! D358  D(11,12,52,51)        176.4273         calculate D2E/DX2 analytically  !
 ! D359  D(11,12,52,54)         83.7362         calculate D2E/DX2 analytically  !
 ! D360  D(15,12,52,51)         86.7671         calculate D2E/DX2 analytically  !
 ! D361  D(15,12,52,54)         -5.924          calculate D2E/DX2 analytically  !
 ! D362  D(21,12,52,51)        -46.5181         calculate D2E/DX2 analytically  !
 ! D363  D(21,12,52,54)       -139.2091         calculate D2E/DX2 analytically  !
 ! D364  D(7,13,16,18)         -24.0879         calculate D2E/DX2 analytically  !
 ! D365  D(9,13,16,18)        -117.1485         calculate D2E/DX2 analytically  !
 ! D366  D(10,13,16,18)        -71.9154         calculate D2E/DX2 analytically  !
 ! D367  D(37,13,16,18)         51.634          calculate D2E/DX2 analytically  !
 ! D368  D(38,13,16,18)        124.806          calculate D2E/DX2 analytically  !
 ! D369  D(39,13,16,18)         72.5384         calculate D2E/DX2 analytically  !
 ! D370  D(6,13,37,36)         168.3329         calculate D2E/DX2 analytically  !
 ! D371  D(7,13,37,36)        -179.7804         calculate D2E/DX2 analytically  !
 ! D372  D(9,13,37,36)         -89.5849         calculate D2E/DX2 analytically  !
 ! D373  D(10,13,37,36)        -97.6091         calculate D2E/DX2 analytically  !
 ! D374  D(16,13,37,36)        106.4731         calculate D2E/DX2 analytically  !
 ! D375  D(38,13,37,36)         36.9451         calculate D2E/DX2 analytically  !
 ! D376  D(6,13,38,36)        -173.8353         calculate D2E/DX2 analytically  !
 ! D377  D(7,13,38,36)        -104.1533         calculate D2E/DX2 analytically  !
 ! D378  D(9,13,38,36)         103.9034         calculate D2E/DX2 analytically  !
 ! D379  D(10,13,38,36)         34.5836         calculate D2E/DX2 analytically  !
 ! D380  D(16,13,38,36)       -156.2262         calculate D2E/DX2 analytically  !
 ! D381  D(37,13,38,36)        -36.986          calculate D2E/DX2 analytically  !
[...]
 .00000189,0.00000002,0.00000013,0.00000366,0.00001214,0.00000695,-0.00
 001639,0.00000421,-0.00001388,0.00002326,0.00001701,-0.00000710,-0.000
 01511,-0.00000087,0.00001952,-0.00003274,-0.00007157,0.00000302,0.0000
 6637,0.00007573,-0.00000007,0.00004615,0.00001907,-0.00003348,-0.00006
 605,-0.00043150,0.00010385,-0.00025404,-0.00003026,0.00009477,-0.00004
 982,0.01872939,-0.00005175,-0.00006376,-0.00000356,0.00002279,-0.00005
 416,0.00004213,-0.00003587,-0.00002595,0.00000674,-0.00001088,-0.00003
 668,0.00001004,-0.00000442,0.00002535,0.00001032,-0.00005701,-0.000059
 61,0.00006100,-0.00003090,0.00003033,0.00006599,0.00004162,0.00002819,
 0.00001626,-0.00001375,0.00018129,-0.00005256,0.00003513,0.00005094,-0
 .00031351,-0.00012532,0.00001142,0.00008353,0.00009115,0.00005414,-0.0
 0028362,-0.00032621,0.00014427,-0.00006193,-0.00001614,-0.00000373,0.0
 0003314,-0.00000441,-0.00006696,0.00002407,-0.00015920,-0.00001760,0.0
 0001485,-0.00134238,0.00136221,0.00151819,0.00017576,0.00004381,-0.000
 03579,-0.00004659,-0.00006720,0.00002532,-0.00004251,0.00002278,0.0000
 6471,-0.00005914,-0.00002985,-0.00004837,-0.00001488,0.00000627,0.0000
 0962,-0.00010794,0.00001001,0.00008055,-0.00007364,-0.00047205,0.00117
 171,-0.00245733,-0.00286341,0.00118796,-0.00008158,-0.00009884,0.00004
 803,0.00009609,0.00019198,0.00032936,-0.00010867,0.00066216,-0.0004163
 9,-0.00037006,0.00011752,0.00004408,0.00370273,-0.00189881,0.00227349,
 -0.00003525,-0.00060283,-0.00063049,0.00311201,0.00361333,0.00103142,0
 .02243395,-0.13151315,0.12556351,0.00421248,-0.00778168,0.00226809,-0.
 00124891,0.00262098,-0.00204977,0.00062070,-0.00200256,0.00138227,0.00
 038289,0.00013281,0.00027212,0.00000974,-0.00037256,-0.00021823,0.0001
 4963,-0.00014574,0.00015683,-0.00003910,-0.00001555,-0.00006012,-0.000
 17645,0.00024574,-0.00012510,0.00012717,0.00003943,-0.00007866,0.00000
 456,-0.00002778,0.00000156,0.00001585,0.00001714,0.00001467,0.00007805
 ,0.00005086,-0.00009424,-0.00001091,0.00001032,0.00001432,-0.00005895,
 -0.00004090,0.00008210,0.00015160,0.00010558,-0.00002534,0.00000333,0.
 00000249,-0.00003004,-0.00007772,-0.00004836,0.00011287,0.00002313,0.0
 0008777,-0.00020904,-0.00011463,-0.00004003,0.00011121,0.00000363,-0.0
 0006481,0.00012487,0.00012778,0.00011858,-0.00011278,0.00002529,-0.000
 00696,0.00003063,0.00012631,-0.00004541,0.00034390,-0.00116017,0.00036
 885,-0.00084955,0.00006763,0.00024089,-0.00013676,-0.02735417,0.137969
 85,0.00005835,0.00006911,-0.00002333,-0.00001689,0.00005298,-0.0000440
 6,0.00003527,0.00002657,-0.00000623,0.00000259,0.00002670,-0.00005391,
 0.00000045,-0.00002467,-0.00000811,0.00005637,0.00005373,-0.00005298,0
 .00003144,-0.00002679,-0.00004703,-0.00004551,-0.00001421,-0.00000349,
 0.00012565,-0.00006216,0.00025168,0.00005340,0.00007035,0.00010129,0.0
 0010119,-0.00002362,-0.00010979,-0.00009136,-0.00005151,0.00028781,0.0
 0035728,-0.00016306,0.00004820,0.00001677,0.00000382,-0.00003257,-0.00
 000973,0.00010481,-0.00009549,0.00013967,-0.00002959,-0.00004041,0.001
 08094,-0.00025470,-0.00099677,-0.00015103,-0.00001147,0.00004591,0.000
 04139,0.00006184,-0.00002613,0.00002907,-0.00002420,-0.00005776,0.0000
 6348,0.00002529,0.00005107,0.00001509,-0.00000785,-0.00000767,0.000109
 10,-0.00000886,-0.00008045,-0.00062211,0.00080595,-0.00051805,0.002992
 84,0.00092545,0.00046348,0.00002899,0.00008638,0.00002141,0.00017353,-
 0.00029256,-0.00012593,-0.00014706,-0.00055282,0.00031860,0.00060046,-
 0.00025630,0.00049787,-0.00453914,0.00314471,-0.00527549,-0.00000311,0
 .00060304,0.00090730,-0.00083811,0.00057456,-0.00247406,-0.02349326,0.
 12614934,-0.15524299,-0.00482352,0.00263667,0.00927182,0.00191368,-0.0
 0227187,0.00179125,0.00067908,0.00176942,-0.00267913,-0.00021789,-0.00
 003262,-0.00006944,-0.00026644,0.00030662,0.00019529,-0.00018588,0.000
 21917,-0.00024366,0.00003320,-0.00000445,0.00007222,0.00012794,-0.0002
 2792,0.00013474,-0.00011447,-0.00003548,0.00007218,-0.00000650,0.00002
 580,-0.00000148,-0.00001580,-0.00001465,-0.00001688,-0.00007773,-0.000
 04624,0.00009563,0.00001347,-0.00001111,-0.00001472,0.00005849,0.00004
 075,-0.00008186,-0.00014987,-0.00010447,0.00002242,-0.00000345,-0.0000
 0403,0.00002855,0.00007657,0.00004766,-0.00011111,-0.00003072,-0.00008
 577,0.00020679,0.00010734,0.00004856,-0.00011006,-0.00000143,0.0000739
 9,-0.00013152,-0.00011394,-0.00021170,0.00011657,-0.00002772,-0.000005
 99,0.00003855,-0.00012965,-0.00001286,-0.00036110,0.00089215,-0.000031
 72,0.00108937,0.00008153,-0.00015042,0.00001646,0.02600389,-0.13299617
 ,0.15319389,-0.00009455,0.00021614,-0.00005961,0.00005028,-0.00011427,
 0.00005524,-0.00013769,-0.00005085,0.00000553,0.00004972,0.00003190,0.
 00001372,0.00028408,0.00037463,0.00003138,-0.00007834,0.00001678,0.000
 01411,-0.00001084,-0.00000243,0.00000643,0.00000736,-0.00006454,0.0000
 0576,-0.00000511,0.00002547,-0.00037186,0.00003599,-0.00005475,0.00002
 465,0.00003218,0.00005769,-0.00001764,0.00008936,0.00011479,0.00123427
 ,0.00001606,0.00017514,-0.00012375,-0.00543092,0.00471701,-0.00145305,
 0.00054810,-0.00022866,-0.00051191,-0.00007631,0.00001051,-0.00002125,
 -0.00000249,0.00001816,-0.00003991,0.00005860,-0.00002409,0.00005329,-
 0.00001225,-0.00003593,-0.00000772,-0.00002023,0.00003727,0.00001458,0
 .00049595,-0.00274898,-0.00187954,-0.01311964,-0.00494877,-0.00334391,
 -0.00003035,0.00011021,0.00068139,-0.00021719,-0.00003397,-0.00004725,
 0.00000849,0.00004634,-0.00000555,-0.00009026,-0.00006261,0.00010034,0
 .00076301,-0.00058259,0.00043317,-0.00014799,0.00013462,0.00004260,0.0
 0008649,0.00004009,-0.00003841,0.00015732,0.00002477,0.00000708,0.0000
 1870,-0.00004181,-0.00000615,-0.00002605,0.00004012,-0.00001059,-0.000
 04262,-0.00004544,0.00013853,0.00002043,-0.00006239,-0.00000656,-0.000
 02034,0.00009143,-0.00008079,0.00001227,-0.00010595,0.00007922,0.00001
 913,0.00002684,0.00001175,-0.00001236,-0.00001030,0.00000263,0.0001054
 1,-0.00021847,0.00013578,0.00000480,0.00005788,-0.00007923,-0.00006069
 ,0.00013195,-0.00007710,0.00012380,0.00003579,-0.00006629,0.00000213,-
 0.00004164,0.00001679,0.00002814,0.00001647,0.00002745,0.00012256,0.00
 007911,-0.00012456,0.00005862,-0.00002668,0.00002963,-0.00008469,-0.00
 005628,0.00012522,0.00057532,0.00025511,-0.00014127,0.00015328,-0.0001
 4214,-0.00013689,-0.00025049,-0.00009956,0.00028910,-0.10262671,0.0450
 2676,-0.11027739,-0.00184101,-0.00358800,-0.00921107,0.00300538,-0.001
 19842,0.00581164,-0.00257579,-0.00109540,-0.00109986,-0.00004059,0.000
 30281,0.00059028,0.00029040,-0.00003550,-0.00019913,-0.00014028,0.0005
 0069,0.00001604,0.00015094,0.00000270,-0.00014945,-0.00001503,0.000099
 94,-0.00009912,0.11997312,0.00007668,0.00006092,-0.00009890,-0.0000752
 1,0.00020119,-0.00021340,-0.00008304,0.00007323,-0.00007376,-0.0000351
 1,-0.00006324,0.00000114,-0.00048225,0.00016593,0.00048566,0.00001425,
 0.00005321,-0.00008406,0.00000871,-0.00000792,-0.00001048,-0.00002794,
 0.00011559,0.00003985,0.00002066,0.00002278,-0.00000914,-0.00004514,0.
 00000898,0.00002058,-0.00004412,0.00017945,-0.00001008,0.00070869,-0.0
 0072649,0.00030816,0.00004115,-0.00004442,0.00005044,0.00369636,0.0010
 3738,0.00609363,-0.00000916,0.00012728,-0.00042778,0.00003268,-0.00000
 800,0.00000371,0.00000994,0.00000236,0.00001859,-0.00009022,-0.0000263
 9,0.00006174,0.00002563,0.00003736,-0.00002253,0.00002425,0.00000150,-
 0.00004729,-0.00044150,-0.00303777,-0.00132266,-0.00827115,0.00241075,
 -0.00424119,-0.00004962,-0.00042808,0.00029888,-0.00018084,0.00001522,
 -0.00000273,0.00000883,-0.00001233,0.00000145,0.00001925,-0.00002648,0
 .00000353,0.00069284,-0.00027071,0.00018518,-0.00010563,0.00009113,-0.
 00006133,0.00001055,0.00001133,-0.00002516,0.00016326,0.00001908,0.000
 07685,0.00002425,-0.00003417,0.00006923,0.00002657,-0.00005386,0.00000
 729,-0.00008303,0.00005729,-0.00008263,0.00001453,0.00001056,0.0000048
 0,0.00001106,-0.00003104,0.00002972,-0.00003593,0.00002244,-0.00002008
 ,-0.00003273,0.00000313,-0.00001504,-0.00000908,0.00000286,0.00001615,
 -0.00003038,0.00004532,-0.00006663,0.00001215,0.00002518,-0.00002203,0
 .00001214,-0.00004469,0.00003137,-0.00004417,-0.00003307,0.00004410,0.
 00001144,0.00001213,0.00001324,-0.00000053,-0.00000391,-0.00000848,-0.
 00004980,-0.00004174,0.00004334,0.00006808,-0.00006917,0.00001778,0.00
 003931,0.00003279,-0.00003789,-0.00001825,0.00069314,0.00006143,0.0007
 6314,-0.00019593,-0.00002697,0.00001949,0.00005508,-0.00008375,0.04363
 237,-0.02837880,0.03430603,0.00077487,0.00075543,0.00633946,-0.0040649
 4,-0.00178999,0.00500584,0.00099899,0.00146736,-0.00021684,-0.00019795
 ,-0.00018187,-0.00034383,-0.00022117,0.00017969,-0.00011919,-0.0001178
 9,-0.00016469,-0.00006277,-0.00011964,0.00003223,0.00006022,0.00000924
 ,-0.00005959,0.00005851,-0.03705386,0.02768910,-0.00029228,0.00002157,
 -0.00038249,0.00033619,-0.00028276,0.00019495,-0.00000074,-0.00001385,
 0.00008428,0.00001449,-0.00001784,0.00001965,-0.00000980,0.00033127,0.
 00041436,-0.00005170,0.00000977,0.00001580,-0.00004023,0.00000874,0.00
 001849,-0.00000239,0.00002366,0.00009399,0.00025169,-0.00005720,-0.000
 29633,0.00001656,-0.00005181,0.00001644,0.00004081,-0.00020325,-0.0001
 2800,-0.00067721,0.00046160,0.00065927,-0.00005039,0.00014114,-0.00007
 993,-0.00317061,0.00637888,0.00487985,0.00019246,-0.00020462,0.0001514
 5,-0.00011666,0.00000987,-0.00001984,-0.00001644,0.00001552,-0.0000405
 5,0.00010818,0.00001589,-0.00002429,-0.00003421,-0.00006103,0.00000998
 ,-0.00003186,0.00002741,0.00004958,-0.00207920,0.00013004,-0.00047451,
 -0.00351309,-0.00284235,-0.00048263,0.00003738,0.00023530,0.00012609,-
 0.00006299,-0.00011558,0.00006897,-0.00000819,0.00004941,-0.00002579,0
 .00010808,0.00004210,0.00018972,-0.00031014,-0.00009147,-0.00040221,0.
 00000359,0.00001908,0.00007158,-0.00000966,-0.00002883,-0.00000711,0.0
 0002642,-0.00000724,-0.00001084,-0.00003852,-0.00002612,-0.00002786,-0
 .00003889,0.00007718,-0.00001622,-0.00000002,-0.00007527,0.00016503,0.
 00001587,-0.00005333,-0.00001038,-0.00002712,0.00010194,-0.00009252,0.
 00006046,-0.00010861,0.00008853,0.00002931,0.00001867,0.00001157,0.000
 00383,-0.00002035,-0.00001561,0.00010252,-0.00019669,0.00014311,-0.000
 00283,0.00002415,-0.00004433,-0.00005787,0.00013412,-0.00007999,0.0001
 4819,0.00004377,-0.00006776,0.00001328,-0.00003218,0.00000293,0.000018
 87,0.00001522,0.00002478,0.00013954,0.00004473,-0.00012867,-0.00000529
 ,0.00003304,0.00006356,-0.00009697,-0.00006265,0.00012452,0.00030855,0
 .00024165,-0.00030778,0.00002215,-0.00013707,-0.00008534,-0.00021879,-
 0.00017458,0.00030552,-0.11147921,0.03582680,-0.14643332,-0.00104050,-
 0.00051353,-0.00304980,0.00208065,0.00681035,-0.01261023,-0.00026329,-
 0.00005680,0.00060754,-0.00001014,0.00012893,-0.00009914,0.00009607,-0
 .00012095,0.00011863,-0.00005876,-0.00000148,-0.00017822,0.00021058,0.
 00003530,-0.00011314,-0.00001818,0.00012243,-0.00012039,0.11959805,-0.
 04597491,0.15704241,-0.00014259,0.00003712,0.00005765,0.00008167,-0.00
 000144,0.00000376,0.00026635,0.00018276,0.00005542,0.00000609,0.000231
 47,-0.00011242,0.00004541,-0.00005700,0.00004252,-0.00385945,-0.002088
 79,0.00422887,0.00003197,-0.00050996,-0.00023691,0.00008559,-0.0002973
 6,-0.00033145,0.00020644,0.00000896,-0.00070467,0.00017246,0.00014074,
 0.00007894,-0.00003407,0.00004871,0.00006169,-0.00001059,0.00004765,0.
 00017011,0.00012488,-0.00065357,0.00048474,0.00000229,-0.00000878,-0.0
 0002306,-0.00002062,-0.00000074,-0.00001115,-0.00116857,0.00031265,0.0
 0013463,-0.00005997,0.00000391,0.00006445,0.00024316,-0.00026413,0.001
 99834,0.00168401,0.00101152,0.00223735,0.00180230,-0.00318326,0.000617
 15,-0.00024796,-0.00000643,0.00000285,-0.00003265,0.00005066,0.0000285
 6,0.00013477,-0.00007319,-0.00007011,0.00008399,-0.00005643,-0.0001441
 6,-0.00003482,-0.00001346,-0.00000078,0.00003953,0.00001123,-0.0000264
 7,-0.00016067,0.00004818,-0.00008008,0.00004671,0.00000287,0.00002712,
 0.00003661,-0.00000229,0.00000355,-0.00016879,0.00002470,-0.00002227,0
 .00002393,0.00003107,0.00000707,-0.00001988,-0.00001635,0.00000357,0.0
 0010333,0.00004539,-0.00017030,-0.00004484,0.00006534,0.00000546,0.000
 00156,-0.00010553,0.00012079,0.00013349,0.00005137,-0.00012733,0.00003
 031,0.00005010,0.00004550,0.00005360,0.00027179,-0.00024617,0.00007181
 ,0.00042933,0.00046675,-0.00117511,-0.00052275,0.00010976,0.00025348,-
 0.00030843,0.00013491,-0.17942979,-0.05606478,0.11281294,-0.00112899,-
 0.00203974,-0.00338981,-0.00076738,0.00410078,0.00005426,-0.00218651,-
 0.00182944,0.00360955,0.00027775,-0.00014238,-0.00014949,-0.00040454,0
 .00241721,-0.00450523,-0.00040548,-0.00015415,0.00014734,0.00000381,0.
 00003490,0.00008588,0.00018467,0.00009855,-0.00022664,0.00023859,-0.00
 004130,0.00013882,-0.00005458,0.00004017,0.00001296,-0.00003544,0.0000
 1788,-0.00004319,0.00011341,-0.00005182,0.00003989,0.00000964,-0.00000
 365,0.00000592,-0.00005513,-0.00001458,-0.00003711,0.00012157,0.000019
 15,0.00003973,-0.00009576,-0.00003607,0.00004972,0.00002122,-0.0001241
 1,0.00012079,-0.00013656,0.00004890,-0.00014961,0.18514432,0.00001311,
 0.00015623,-0.00007874,0.00002989,-0.00001447,0.00002387,-0.00013244,0
 .00000778,-0.00006284,0.00000393,-0.00004316,-0.00003802,0.00002270,-0
 .00001583,0.00000257,-0.00114355,-0.00038601,0.00098444,0.00001732,-0.
 00020585,-0.00014522,-0.00007065,-0.00016538,-0.00004988,0.00001838,-0
 .00006380,-0.00018707,0.00001276,0.00005827,0.00003218,-0.00002365,0.0
 0001381,0.00002992,0.00002645,-0.00002893,0.00003855,0.00007011,-0.000
 19372,0.00014738,0.00000378,0.00000104,-0.00000571,-0.00001392,0.00000
 108,-0.00000095,-0.00071817,-0.00002784,0.00015829,-0.00001663,-0.0000
 0127,0.00003356,0.00019660,0.00025053,-0.00108920,0.00130193,0.0012273
 2,-0.00006744,-0.00263202,-0.00266887,0.00280404,-0.00006450,-0.000006
 22,0.00000481,-0.00000101,0.00001485,0.00000974,0.00000577,-0.00005806
 ,-0.00001772,0.00003213,0.00000329,-0.00003036,-0.00001975,-0.00000891
 ,0.00000099,0.00000677,0.00000446,-0.00000485,-0.00004519,0.00001782,-
 0.00002383,0.00001489,-0.00000171,0.00000869,0.00001032,-0.00000099,0.
 00000042,-0.00005220,0.00000812,-0.00000802,0.00000791,0.00001087,0.00
 000281,-0.00000679,-0.00000617,0.00000138,0.00003190,0.00001648,-0.000
 05519,-0.00001354,0.00002099,0.00000169,0.00000230,-0.00003707,0.00004
 253,0.00003713,0.00000470,-0.00006460,-0.00000221,0.00004955,0.0000216
 5,-0.00000570,0.00008736,-0.00006084,0.00001898,0.00009567,0.00001205,
 -0.00028713,-0.00027830,-0.00001363,0.00006858,-0.00009180,0.00004473,
 -0.05549345,-0.03387783,0.03642715,-0.00024385,0.00231791,0.00160844,-
 0.00149845,0.00594271,0.00051436,-0.00002009,-0.00227769,0.00009897,0.
 00021332,0.00001815,0.00010230,0.00149327,0.00015052,-0.00053708,-0.00
 007903,0.00000462,0.00016646,-0.00000130,0.00002769,-0.00000082,0.0001
 0765,0.00002761,-0.00009294,0.00008343,-0.00001427,0.00003807,-0.00002
 611,0.00001348,0.00001041,-0.00001244,0.00000216,-0.00001082,0.0000321
 8,-0.00001128,0.00001130,0.00000124,-0.00000172,0.00000236,-0.00001775
 ,-0.00000477,-0.00001072,0.00003833,0.00000627,0.00000993,-0.00003065,
 -0.00001180,0.00001643,0.00000715,-0.00004079,0.00004009,-0.00004487,0
 .00001594,-0.00004714,0.05878685,0.02996718,0.00000437,-0.00002510,0.0
 0023819,-0.00006297,-0.00000079,-0.00003777,-0.00001350,0.00000045,0.0
 0004895,0.00009356,-0.00013953,-0.00000227,-0.00002578,0.00003295,-0.0
 0002153,0.00219849,0.00101094,-0.00238856,0.00048767,0.00038178,0.0001
 1906,-0.00000122,0.00006722,0.00006418,0.00005724,0.00005060,0.0003679
 9,-0.00008667,-0.00006501,-0.00002750,0.00000393,-0.00001632,-0.000035
 49,0.00000119,-0.00002803,-0.00003494,-0.00021629,0.00025257,-0.000383
 00,0.00000165,-0.00000118,0.00000588,0.00000719,0.00000453,-0.00000263
 ,0.00097844,-0.00020112,-0.00000155,0.00002445,-0.00000622,-0.00004456
 ,-0.00061651,-0.00111600,0.00228391,0.00145522,-0.00024272,-0.00325555
 ,-0.00015170,0.00315586,-0.00116944,0.00008516,0.00007047,0.00003233,0
 .00002625,-0.00003925,-0.00002149,0.00005554,0.00006698,0.00000091,-0.
 00003924,0.00003608,0.00008435,0.00001785,0.00001300,0.00000081,-0.000
 01598,-0.00000901,0.00001051,0.00007488,-0.00001265,0.00002003,-0.0000
 3039,-0.00000203,-0.00001269,-0.00001519,0.00000110,-0.00000516,0.0000
 8231,-0.00001438,0.00000903,-0.00001567,-0.00001918,-0.00000769,0.0000
 0771,0.00001596,-0.00000315,-0.00005410,-0.00003625,0.00011145,0.00002
 396,-0.00003867,-0.00000471,-0.00001708,0.00007383,-0.00008031,-0.0000
 5946,-0.00005378,0.00009165,0.00002671,-0.00001249,-0.00004879,-0.0000
 6144,-0.00015986,0.00008501,0.00014471,-0.00021576,-0.00028009,0.00052
 958,0.00029387,-0.00003170,-0.00015248,0.00015872,-0.00009566,0.111848
 23,0.03582345,-0.08955450,0.00238537,0.00306379,0.00504932,0.00148928,
 -0.00114916,0.00099428,0.00005199,0.00031613,-0.00261377,-0.00001272,-
 0.00003656,0.00001636,-0.00289063,-0.00061050,0.00110311,0.00016383,0.
 00015763,-0.00023400,0.00000022,-0.00005291,-0.00002588,-0.00022144,-0
 .00007880,0.00015878,-0.00018038,0.00001122,-0.00007178,0.00005902,-0.
 00000937,-0.00002202,0.00002594,-0.00000261,0.00001379,-0.00007257,0.0
 0001539,-0.00000801,-0.00000569,0.00000004,-0.00000432,0.00003528,0.00
 001044,0.00001502,-0.00006610,-0.00001431,0.00000215,0.00006029,0.0000
 2165,-0.00003171,-0.00001250,0.00007816,-0.00007627,0.00009112,-0.0000
 2638,0.00009261,-0.11750093,-0.04074893,0.08961886\\0.00000001,0.00000
 065,0.00000019,0.00000015,0.00000045,0.00000010,0.00000004,0.00000032,
 0.00000004,-0.00000022,0.00000016,0.00000059,0.00000017,0.00000020,0.0
 0000035,-0.00000132,0.00000304,-0.00000026,0.00000026,-0.00000081,-0.0
 0000002,-0.00000054,0.00000013,-0.00000015,0.00000135,-0.00000229,0.00
 000040,-0.00000061,-0.00000017,0.00000028,0.00000075,-0.00000029,-0.00
 000009,-0.00000022,0.00000059,-0.00000011,-0.00000161,0.00000014,-0.00
 000075,0.00000018,0.00000055,0.00000006,0.00000015,0.00000027,-0.00000
 011,0.00000171,-0.00000257,0.00000177,-0.00000015,-0.00000023,-0.00000
 063,-0.00000117,-0.00000221,-0.00000131,-0.00000003,-0.00000056,0.0000
 0050,-0.00000001,-0.00000010,-0.00000004,0.00000030,0.00000028,0.00000
 021,0.00000020,0.00000052,0.00000033,0.00000017,0.00000071,0.00000019,
 -0.00000035,-0.00000015,0.00000008,-0.00000005,-0.00000031,-0.00000016
 ,-0.00000013,0.00000012,0.00000017,-0.00000020,0.00000018,-0.00000011,
 -0.00000012,-0.00000039,0.,-0.00000004,-0.00000009,-0.00000041,0.,-0.0
 0000025,-0.00000028,-0.00000017,-0.00000031,-0.00000017,-0.00000029,-0
 .00000034,-0.00000046,-0.00000014,-0.00000057,-0.00000037,-0.00000022,
 -0.00000050,-0.00000022,-0.00000031,-0.00000061,-0.00000055,-0.0000007
 7,-0.00000017,0.00000020,-0.00000042,-0.00000003,-0.00000076,-0.000000
 07,-0.00000024,-0.00000063,-0.00000130,-0.00000204,-0.00000217,0.00000
 238,0.00000148,0.00000030,-0.00000023,0.00000030,0.00000049,0.00000064
 ,0.00000099,0.00000079,0.,0.00000003,0.00000012,0.00000071,-0.00000019
 ,0.00000024,0.00000008,0.00000032,0.00000054,0.00000025,0.00000026,0.0
 0000039,0.00000020,0.00000039,0.00000041,0.00000034,0.00000070,0.00000
 049,0.00000019,0.00000051,0.00000045,0.00000027,0.00000067,0.00000043,
 0.00000017,0.00000055,0.00000010,0.00000003,0.00000019,0.00000021,0.00
 000004,0.00000051,0.00000005,0.00000013,0.00000011,-0.00000017,0.00000
 003,-0.00000004,0.00000008,-0.00000004,0.00000021,-0.00000022,-0.00000
 006,-0.00000004,-0.00000007,-0.00000017,-0.00000020,-0.00000030,-0.000
 00031,-0.00000064,-0.00000048,0.00000020,0.00000074,0.00000016,0.00000
 019,0.00000005,0.00000027\\\@
 The archive entry for this job was punched.


 I FIND THAT THE THREE TRULY GREAT TIMES FOR THINKING THOUGHTS
 ARE WHEN I AM STANDING IN THE SHOWER, SITTING ON THE JOHN, OR WALKING.

                                    -- COLIN FLETCHER
 Job cpu time:       5 days 10 hours  9 minutes 30.6 seconds.
 Elapsed time:       0 days  2 hours 43 minutes  7.8 seconds.
 File lengths (MBytes):  RWF=  12134 Int=      0 D2E=      0 Chk=    129 Scr=      2
 Normal termination of Gaussian 16 at Tue Feb 14 02:29:28 2023.
