 Entering Gaussian System, Link 0=/apps/GAU16/avx2/g16/g16
 Initial command:
 /apps/GAU16/avx2//g16/l1.exe "/localscratch/chegho/Gau-73032.inp" -scrdir="/localscratch/chegho/"
 Entering Link 1 = /apps/GAU16/avx2//g16/l1.exe PID=     73033.
  
 Copyright (c) 1988-2019, Gaussian, Inc.  All Rights Reserved.
  
 This is part of the Gaussian(R) 16 program.  It is based on
 the Gaussian(R) 09 system (copyright 2009, Gaussian, Inc.),
 the Gaussian(R) 03 system (copyright 2003, Gaussian, Inc.),
 the Gaussian(R) 98 system (copyright 1998, Gaussian, Inc.),
 the Gaussian(R) 94 system (copyright 1995, Gaussian, Inc.),
 the Gaussian 92(TM) system (copyright 1992, Gaussian, Inc.),
 the Gaussian 90(TM) system (copyright 1990, Gaussian, Inc.),
 the Gaussian 88(TM) system (copyright 1988, Gaussian, Inc.),
 the Gaussian 86(TM) system (copyright 1986, Carnegie Mellon
 University), and the Gaussian 82(TM) system (copyright 1983,
 Carnegie Mellon University). Gaussian is a federally registered
 trademark of Gaussian, Inc.
  
 This software contains proprietary and confidential information,
 including trade secrets, belonging to Gaussian, Inc.
  
 This software is provided under written license and may be
 used, copied, transmitted, or stored only in accord with that
 written license.
  
 The following legend is applicable only to US Government
 contracts under FAR:
  
                    RESTRICTED RIGHTS LEGEND
  
 Use, reproduction and disclosure by the US Government is
 subject to restrictions as set forth in subparagraphs (a)
 and (c) of the Commercial Computer Software - Restricted
 Rights clause in FAR 52.227-19.
  
 Gaussian, Inc.
 340 Quinnipiac St., Bldg. 40, Wallingford CT 06492
  
  
 ---------------------------------------------------------------
 Warning -- This program may not be used in any manner that
 competes with the business of Gaussian, Inc. or will provide
 assistance to any competitor of Gaussian, Inc.  The licensee
 of this program is prohibited from giving any competitor of
 Gaussian, Inc. access to this program.  By using this program,
 the user acknowledges that Gaussian, Inc. is engaged in the
 business of creating and licensing software in the field of
 computational chemistry and represents and warrants to the
 licensee that it is not a competitor of Gaussian, Inc. and that
 it will not use this program in any manner prohibited above.
 ---------------------------------------------------------------
  

 Cite this work as:
 Gaussian 16, Revision C.01,
 M. J. Frisch, G. W. Trucks, H. B. Schlegel, G. E. Scuseria, 
 M. A. Robb, J. R. Cheeseman, G. Scalmani, V. Barone, 
 G. A. Petersson, H. Nakatsuji, X. Li, M. Caricato, A. V. Marenich, 
 J. Bloino, B. G. Janesko, R. Gomperts, B. Mennucci, H. P. Hratchian, 
 J. V. Ortiz, A. F. Izmaylov, J. L. Sonnenberg, D. Williams-Young, 
 F. Ding, F. Lipparini, F. Egidi, J. Goings, B. Peng, A. Petrone, 
 T. Henderson, D. Ranasinghe, V. G. Zakrzewski, J. Gao, N. Rega, 
 G. Zheng, W. Liang, M. Hada, M. Ehara, K. Toyota, R. Fukuda, 
 J. Hasegawa, M. Ishida, T. Nakajima, Y. Honda, O. Kitao, H. Nakai, 
 T. Vreven, K. Throssell, J. A. Montgomery, Jr., J. E. Peralta, 
 F. Ogliaro, M. J. Bearpark, J. J. Heyd, E. N. Brothers, K. N. Kudin, 
 V. N. Staroverov, T. A. Keith, R. Kobayashi, J. Normand, 
 K. Raghavachari, A. P. Rendell, J. C. Burant, S. S. Iyengar, 
 J. Tomasi, M. Cossi, J. M. Millam, M. Klene, C. Adamo, R. Cammi, 
 J. W. Ochterski, R. L. Martin, K. Morokuma, O. Farkas, 
 J. B. Foresman, and D. J. Fox, Gaussian, Inc., Wallingford CT, 2019.
 
 ******************************************
 Gaussian 16:  ES64L-G16RevC.01  3-Jul-2019
                 7-Feb-2023 
 ******************************************
 %nprocshared=28
 Will use up to   28 processors via shared memory.
 %chk=i3_1_13_2.chk
 %mem=100GB
 ---------------------------------------------------------
 # opt freq b3lyp/gen nosymm pseudo=read scf=maxcycles=500
 ---------------------------------------------------------
 1/18=20,19=15,26=3,38=1/1,3;
 2/9=110,12=2,15=1,17=6,18=5,40=1/2;
 3/5=7,11=2,16=1,17=8,25=1,30=1,71=1,74=-5/1,2,3;
 4//1;
 5/5=2,7=500,38=5/2;
 6/7=2,8=2,9=2,10=2,28=1/1;
 7/30=1/1,2,3,16;
 1/18=20,19=15,26=3/3(2);
 2/9=110,15=1/2;
 99//99;
 2/9=110,15=1/2;
 3/5=7,6=1,11=2,16=1,17=8,25=1,30=1,71=1,74=-5,82=7/1,2,3;
 4/5=5,16=3,69=1/1;
 5/5=2,7=500,38=5/2;
 7/30=1/1,2,3,16;
 1/18=20,19=15,26=3/3(-5);
 2/9=110,15=1/2;
 6/7=2,8=2,9=2,10=2,19=2,28=1/1;
 99/9=1/99;
 -------------------
 Title Card Required
 -------------------
 Symbolic Z-matrix:
 Charge =  0 Multiplicity = 1
 42                    0.20213   1.34326   12.70412 
 16                    2.13147   2.30465   13.69389 
 16                   -0.74926   2.04496   14.94264 
 16                   -0.64915   0.95077   10.4426 
 16                    1.70473  -0.43761   11.99249 
 42                   -2.15525   2.75558   11.04732 
 16                   -3.07371   2.34845   8.77158 
 16                   -0.08572   3.63076   11.9496 
 42                    0.78778   2.859     9.78524 
 16                   -0.04829   2.44136   7.58894 
 16                    2.51672   1.32933   9.42516 
 42                    3.2893    1.38641   11.79885 
 42                   -1.64966   4.18615   8.30697 
 16                    4.64973   1.53296   14.68843 
 16                    4.2466    3.58482   11.42924 
 16                   -2.36642   5.07095   10.40793 
 16                    0.9816    6.65258   6.78796 
 42                   -4.41591   4.19677   9.48591 
 16                   -6.02644   2.2356    9.84325 
 16                   -5.46557   4.99702   11.4045 
 42                    2.67156  -0.07292   14.15027 
 16                    4.19621  -1.80702   13.74102 
 16                    1.81964   0.55142   16.38822 
 42                    1.41992   4.26347   7.31533 
 16                    0.75413   4.3318    4.85539 
 16                    1.86134   5.03397   9.55638 
 42                    3.68036   3.52699   8.87633 
 16                    3.17374   2.84724   6.61348 
 16                    5.18055   5.54378   8.92313 
 42                    4.49979   4.87849   6.6862 
 16                    6.59928   4.00828   5.88405 
 16                    3.96068   7.09971   6.42043 
 42                    2.50048   6.10661   4.78392 
 16                    4.04962   4.67697   4.11298 
 16                   -1.32948   7.12608   4.03313 
 42                   -1.01538   5.83151   5.67234 
 16                   -2.43441   3.86021   5.80501 
 16                   -2.08087   6.63623   7.6688 
 42                   -3.84999   5.5886    6.5126 
 16                   -5.69023   4.78623   7.65721 
 16                   -4.58163   6.77785   4.93675 
 42                   -5.34075   2.62011   11.92014 
 16                   -3.30127   3.56089   13.1548 
 16                   -3.66311   0.84443   11.75926 
 42                   -2.75307   1.3846    13.97877 
 16                   -1.34514  -0.52386   13.361 
 16                   -4.10158   0.78573   15.48836 
 42                   -0.02524  -0.49001   15.50604 
 16                    1.17604  -2.14991   14.64804 
 16                   -1.22363  -1.25275   17.07373 
 42                    5.82282  -0.05995   13.68112 
 16                    5.03659  -0.13073   11.21681 
 16                    7.44323   1.1853    12.40892 
 42                    5.92626   2.10862   10.81695 
 16                    5.52231   1.74843   8.53058 
 16                    7.63065   3.87987   10.67899 
 42                    6.654     3.7877    8.67113 
 16                    8.27324   4.43561   7.19221 
 16                    2.23552   7.48345   3.19934 
 16                    7.26128  -0.92582   14.97587 
 16                   -6.90802   2.04013   13.21365 
 

 GradGradGradGradGradGradGradGradGradGradGradGradGradGradGradGradGradGrad
 Berny optimization.
 Initialization pass.
                           ----------------------------
                           !    Initial Parameters    !
                           ! (Angstroms and Degrees)  !
 --------------------------                            --------------------------
 ! Name  Definition              Value          Derivative Info.                !
 --------------------------------------------------------------------------------
 ! R1    R(1,2)                  2.372          estimate D2E/DX2                !
 ! R2    R(1,3)                  2.5315         estimate D2E/DX2                !
 ! R3    R(1,4)                  2.4481         estimate D2E/DX2                !
 ! R4    R(1,5)                  2.4363         estimate D2E/DX2                !
 ! R5    R(1,8)                  2.4259         estimate D2E/DX2                !
 ! R6    R(1,46)                 2.5123         estimate D2E/DX2                !
 ! R7    R(2,12)                 2.4031         estimate D2E/DX2                !
 ! R8    R(2,21)                 2.4805         estimate D2E/DX2                !
 ! R9    R(3,45)                 2.3196         estimate D2E/DX2                !
 ! R10   R(3,48)                 2.6959         estimate D2E/DX2                !
 ! R11   R(4,6)                  2.4272         estimate D2E/DX2                !
 ! R12   R(4,9)                  2.4775         estimate D2E/DX2                !
 ! R13   R(5,12)                 2.4239         estimate D2E/DX2                !
 ! R14   R(5,21)                 2.3924         estimate D2E/DX2                !
 ! R15   R(6,7)                  2.4876         estimate D2E/DX2                !
 ! R16   R(6,8)                  2.4214         estimate D2E/DX2                !
 ! R17   R(6,16)                 2.4113         estimate D2E/DX2                !
 ! R18   R(6,18)                 3.1025         estimate D2E/DX2                !
 ! R19   R(6,43)                 2.5305         estimate D2E/DX2                !
 ! R20   R(6,44)                 2.5363         estimate D2E/DX2                !
 ! R21   R(7,13)                 2.3709         estimate D2E/DX2                !
 ! R22   R(7,18)                 2.3933         estimate D2E/DX2                !
 ! R23   R(8,9)                  2.4583         estimate D2E/DX2                !
 ! R24   R(9,10)                 2.3869         estimate D2E/DX2                !
 ! R25   R(9,11)                 2.3364         estimate D2E/DX2                !
 ! R26   R(9,24)                 2.9108         estimate D2E/DX2                !
 ! R27   R(9,26)                 2.4363         estimate D2E/DX2                !
 ! R28   R(9,27)                 3.1047         estimate D2E/DX2                !
 ! R29   R(10,13)                2.4747         estimate D2E/DX2                !
 ! R30   R(10,24)                2.356          estimate D2E/DX2                !
 ! R31   R(11,12)                2.4969         estimate D2E/DX2                !
 ! R32   R(11,27)                2.5466         estimate D2E/DX2                !
 ! R33   R(12,15)                2.4261         estimate D2E/DX2                !
 ! R34   R(12,21)                2.8356         estimate D2E/DX2                !
 ! R35   R(12,52)                2.3861         estimate D2E/DX2                !
 ! R36   R(12,54)                2.905          estimate D2E/DX2                !
 ! R37   R(13,16)                2.3897         estimate D2E/DX2                !
 ! R38   R(13,18)                3.007          estimate D2E/DX2                !
 ! R39   R(13,37)                2.6423         estimate D2E/DX2                !
 ! R40   R(13,38)                2.5683         estimate D2E/DX2                !
 ! R41   R(14,21)                2.6042         estimate D2E/DX2                !
 ! R42   R(14,51)                2.22           estimate D2E/DX2                !
 ! R43   R(15,27)                2.6156         estimate D2E/DX2                !
 ! R44   R(15,54)                2.3185         estimate D2E/DX2                !
 ! R45   R(16,18)                2.4114         estimate D2E/DX2                !
 ! R46   R(17,24)                2.4856         estimate D2E/DX2                !
 ! R47   R(17,33)                2.5732         estimate D2E/DX2                !
 ! R48   R(17,36)                2.4304         estimate D2E/DX2                !
 ! R49   R(18,19)                2.5627         estimate D2E/DX2                !
 ! R50   R(18,20)                2.3288         estimate D2E/DX2                !
 ! R51   R(18,40)                2.3055         estimate D2E/DX2                !
 ! R52   R(18,42)                3.0441         estimate D2E/DX2                !
 ! R53   R(19,42)                2.2207         estimate D2E/DX2                !
 ! R54   R(20,42)                2.4354         estimate D2E/DX2                !
 ! R55   R(21,22)                2.345          estimate D2E/DX2                !
 ! R56   R(21,23)                2.4747         estimate D2E/DX2                !
 ! R57   R(21,48)                3.0471         estimate D2E/DX2                !
 ! R58   R(21,49)                2.6074         estimate D2E/DX2                !
 ! R59   R(22,51)                2.3878         estimate D2E/DX2                !
 ! R60   R(23,48)                2.2949         estimate D2E/DX2                !
 ! R61   R(24,25)                2.5494         estimate D2E/DX2                !
 ! R62   R(24,26)                2.4106         estimate D2E/DX2                !
 ! R63   R(24,27)                2.8441         estimate D2E/DX2                !
 ! R64   R(24,28)                2.361          estimate D2E/DX2                !
 ! R65   R(25,33)                2.4909         estimate D2E/DX2                !
 ! R66   R(25,36)                2.4592         estimate D2E/DX2                !
 ! R67   R(26,27)                2.4581         estimate D2E/DX2                !
 ! R68   R(27,28)                2.4164         estimate D2E/DX2                !
 ! R69   R(27,29)                2.514          estimate D2E/DX2                !
 ! R70   R(27,30)                2.7009         estimate D2E/DX2                !
 ! R71   R(27,55)                2.5837         estimate D2E/DX2                !
 ! R72   R(27,57)                2.9921         estimate D2E/DX2                !
 ! R73   R(28,30)                2.4269         estimate D2E/DX2                !
 ! R74   R(29,30)                2.431          estimate D2E/DX2                !
 ! R75   R(29,57)                2.3062         estimate D2E/DX2                !
 ! R76   R(30,31)                2.4101         estimate D2E/DX2                !
 ! R77   R(30,32)                2.3011         estimate D2E/DX2                !
 ! R78   R(30,33)                3.0206         estimate D2E/DX2                !
 ! R79   R(30,34)                2.6201         estimate D2E/DX2                !
 ! R80   R(31,58)                2.167          estimate D2E/DX2                !
 ! R81   R(32,33)                2.4076         estimate D2E/DX2                !
 ! R82   R(33,34)                2.2122         estimate D2E/DX2                !
 ! R83   R(33,59)                2.1158         estimate D2E/DX2                !
 ! R84   R(35,36)                2.1122         estimate D2E/DX2                !
 ! R85   R(36,37)                2.4325         estimate D2E/DX2                !
 ! R86   R(36,38)                2.4018         estimate D2E/DX2                !
 ! R87   R(36,39)                2.9665         estimate D2E/DX2                !
 ! R88   R(37,39)                2.3435         estimate D2E/DX2                !
 ! R89   R(38,39)                2.3588         estimate D2E/DX2                !
 ! R90   R(39,40)                2.3109         estimate D2E/DX2                !
 ! R91   R(39,41)                2.1055         estimate D2E/DX2                !
 ! R92   R(42,43)                2.563          estimate D2E/DX2                !
 ! R93   R(42,44)                2.4481         estimate D2E/DX2                !
 ! R94   R(42,61)                2.1133         estimate D2E/DX2                !
 ! R95   R(43,45)                2.3907         estimate D2E/DX2                !
 ! R96   R(44,45)                2.4589         estimate D2E/DX2                !
 ! R97   R(45,46)                2.4507         estimate D2E/DX2                !
 ! R98   R(45,47)                2.1109         estimate D2E/DX2                !
 ! R99   R(46,48)                2.5188         estimate D2E/DX2                !
 ! R100  R(48,49)                2.2214         estimate D2E/DX2                !
 ! R101  R(48,50)                2.1156         estimate D2E/DX2                !
 ! R102  R(51,52)                2.5877         estimate D2E/DX2                !
 ! R103  R(51,53)                2.4073         estimate D2E/DX2                !
 ! R104  R(51,60)                2.1202         estimate D2E/DX2                !
 ! R105  R(52,54)                2.4426         estimate D2E/DX2                !
 ! R106  R(53,54)                2.385          estimate D2E/DX2                !
 ! R107  R(54,55)                2.3496         estimate D2E/DX2                !
 ! R108  R(54,56)                2.462          estimate D2E/DX2                !
 ! R109  R(54,57)                2.8202         estimate D2E/DX2                !
 ! R110  R(55,57)                2.3365         estimate D2E/DX2                !
 ! R111  R(56,57)                2.2347         estimate D2E/DX2                !
 ! R112  R(57,58)                2.2867         estimate D2E/DX2                !
 ! A1    A(2,1,3)               79.884          estimate D2E/DX2                !
 ! A2    A(2,1,4)              137.1635         estimate D2E/DX2                !
 ! A3    A(2,1,5)               85.2101         estimate D2E/DX2                !
 ! A4    A(2,1,8)               81.0313         estimate D2E/DX2                !
 ! A5    A(2,1,46)             133.8735         estimate D2E/DX2                !
 ! A6    A(3,1,4)              136.9388         estimate D2E/DX2                !
 ! A7    A(3,1,5)              133.8432         estimate D2E/DX2                !
 ! A8    A(3,1,8)               88.227          estimate D2E/DX2                !
 ! A9    A(3,1,46)              75.1281         estimate D2E/DX2                !
 ! A10   A(4,1,5)               80.0634         estimate D2E/DX2                !
 ! A11   A(4,1,8)               79.7812         estimate D2E/DX2                !
 ! A12   A(4,1,46)              84.7343         estimate D2E/DX2                !
 ! A13   A(5,1,8)              132.191          estimate D2E/DX2                !
 ! A14   A(5,1,46)              85.0069         estimate D2E/DX2                !
 ! A15   A(8,1,46)             135.1574         estimate D2E/DX2                !
 ! A16   A(1,2,12)              84.7193         estimate D2E/DX2                !
 ! A17   A(1,2,21)              82.2634         estimate D2E/DX2                !
 ! A18   A(1,3,45)              83.0099         estimate D2E/DX2                !
 ! A19   A(1,3,48)              79.818          estimate D2E/DX2                !
 ! A20   A(45,3,48)             92.932          estimate D2E/DX2                !
 ! A21   A(1,4,6)               82.3225         estimate D2E/DX2                !
 ! A22   A(1,4,9)               85.4082         estimate D2E/DX2                !
 ! A23   A(6,4,9)               81.5631         estimate D2E/DX2                !
 ! A24   A(1,5,12)              82.9035         estimate D2E/DX2                !
 ! A25   A(1,5,21)              82.7832         estimate D2E/DX2                !
 ! A26   A(4,6,7)               83.078          estimate D2E/DX2                !
 ! A27   A(4,6,8)               80.2851         estimate D2E/DX2                !
 ! A28   A(4,6,16)             134.6092         estimate D2E/DX2                !
 ! A29   A(4,6,18)             132.2333         estimate D2E/DX2                !
 ! A30   A(4,6,43)             136.4814         estimate D2E/DX2                !
 ! A31   A(4,6,44)              83.0234         estimate D2E/DX2                !
 ! A32   A(7,6,8)              135.6932         estimate D2E/DX2                !
 ! A33   A(7,6,16)              83.237          estimate D2E/DX2                !
 ! A34   A(7,6,43)             130.2984         estimate D2E/DX2                !
 ! A35   A(7,6,44)              85.0647         estimate D2E/DX2                !
 ! A36   A(8,6,16)              80.0142         estimate D2E/DX2                !
 ! A37   A(8,6,18)             129.9722         estimate D2E/DX2                !
 ! A38   A(8,6,43)              87.8058         estimate D2E/DX2                !
 ! A39   A(8,6,44)             132.5219         estimate D2E/DX2                !
 ! A40   A(16,6,43)             82.8536         estimate D2E/DX2                !
 ! A41   A(16,6,44)            138.2365         estimate D2E/DX2                !
 ! A42   A(18,6,43)             86.6357         estimate D2E/DX2                !
 ! A43   A(18,6,44)             93.3309         estimate D2E/DX2                !
 ! A44   A(43,6,44)             74.7389         estimate D2E/DX2                !
 ! A45   A(6,7,13)              80.2502         estimate D2E/DX2                !
 ! A46   A(1,8,6)               82.9053         estimate D2E/DX2                !
 ! A47   A(1,8,9)               86.3099         estimate D2E/DX2                !
 ! A48   A(6,8,9)               82.0761         estimate D2E/DX2                !
 ! A49   A(4,9,8)               78.5868         estimate D2E/DX2                !
 ! A50   A(4,9,10)              84.6191         estimate D2E/DX2                !
 ! A51   A(4,9,11)              88.0411         estimate D2E/DX2                !
 ! A52   A(4,9,24)             136.2802         estimate D2E/DX2                !
 ! A53   A(4,9,27)             141.6042         estimate D2E/DX2                !
 ! A54   A(8,9,10)             137.7837         estimate D2E/DX2                !
 ! A55   A(8,9,11)             127.1698         estimate D2E/DX2                !
 ! A56   A(8,9,24)             132.2817         estimate D2E/DX2                !
 ! A57   A(8,9,26)              87.6509         estimate D2E/DX2                !
 ! A58   A(8,9,27)             121.4162         estimate D2E/DX2                !
 ! A59   A(10,9,11)             90.1628         estimate D2E/DX2                !
 ! A60   A(10,9,26)            102.951          estimate D2E/DX2                !
 ! A61   A(10,9,27)             95.429          estimate D2E/DX2                !
 ! A62   A(11,9,24)             91.3993         estimate D2E/DX2                !
 ! A63   A(11,9,26)            104.1182         estimate D2E/DX2                !
 ! A64   A(9,10,13)             80.5795         estimate D2E/DX2                !
 ! A65   A(13,10,24)            83.781          estimate D2E/DX2                !
 ! A66   A(9,11,12)             93.8697         estimate D2E/DX2                !
 ! A67   A(12,11,27)            92.5087         estimate D2E/DX2                !
 ! A68   A(2,12,5)              84.8118         estimate D2E/DX2                !
 ! A69   A(2,12,11)            127.5408         estimate D2E/DX2                !
 ! A70   A(2,12,15)             87.9373         estimate D2E/DX2                !
 ! A71   A(2,12,52)            142.0102         estimate D2E/DX2                !
 ! A72   A(2,12,54)            127.5091         estimate D2E/DX2                !
 ! A73   A(5,12,11)             81.7481         estimate D2E/DX2                !
 ! A74   A(5,12,15)            162.1752         estimate D2E/DX2                !
 ! A75   A(5,12,52)             91.1306         estimate D2E/DX2                !
 ! A76   A(5,12,54)            143.8498         estimate D2E/DX2                !
 ! A77   A(11,12,15)            89.884          estimate D2E/DX2                !
 ! A78   A(11,12,21)           135.1672         estimate D2E/DX2                !
 ! A79   A(11,12,52)            88.8627         estimate D2E/DX2                !
 ! A80   A(11,12,54)            88.0071         estimate D2E/DX2                !
 ! A81   A(15,12,21)           132.7378         estimate D2E/DX2                !
 ! A82   A(15,12,52)           104.4799         estimate D2E/DX2                !
 ! A83   A(21,12,52)            91.9816         estimate D2E/DX2                !
 ! A84   A(21,12,54)           127.2995         estimate D2E/DX2                !
 ! A85   A(7,13,10)             84.2055         estimate D2E/DX2                !
 ! A86   A(7,13,16)             86.2469         estimate D2E/DX2                !
 ! A87   A(7,13,37)             84.9259         estimate D2E/DX2                !
 ! A88   A(7,13,38)            133.416          estimate D2E/DX2                !
 ! A89   A(10,13,16)           135.253          estimate D2E/DX2                !
 ! A90   A(10,13,18)           135.3589         estimate D2E/DX2                !
 ! A91   A(10,13,37)            80.2402         estimate D2E/DX2                !
 ! A92   A(10,13,38)           135.1657         estimate D2E/DX2                !
 ! A93   A(16,13,37)           142.098          estimate D2E/DX2                !
 ! A94   A(16,13,38)            79.332          estimate D2E/DX2                !
 ! A95   A(18,13,37)            95.6503         estimate D2E/DX2                !
 ! A96   A(18,13,38)            86.537          estimate D2E/DX2                !
 ! A97   A(37,13,38)            80.3593         estimate D2E/DX2                !
 ! A98   A(21,14,51)            82.2504         estimate D2E/DX2                !
 ! A99   A(12,15,27)            92.4782         estimate D2E/DX2                !
 ! A100  A(27,15,54)            83.3961         estimate D2E/DX2                !
 ! A101  A(6,16,13)             81.4503         estimate D2E/DX2                !
 ! A102  A(24,17,33)            81.7906         estimate D2E/DX2                !
 ! A103  A(24,17,36)            85.2716         estimate D2E/DX2                !
 ! A104  A(33,17,36)            93.2003         estimate D2E/DX2                !
 ! A105  A(6,18,13)             61.6644         estimate D2E/DX2                !
 ! A106  A(6,18,19)             91.8486         estimate D2E/DX2                !
 ! A107  A(6,18,20)             94.2109         estimate D2E/DX2                !
 ! A108  A(6,18,40)            157.0275         estimate D2E/DX2                !
 ! A109  A(6,18,42)             65.0605         estimate D2E/DX2                !
 ! A110  A(7,18,16)             85.2648         estimate D2E/DX2                !
 ! A111  A(7,18,19)             78.6418         estimate D2E/DX2                !
 ! A112  A(7,18,20)            139.8229         estimate D2E/DX2                !
 ! A113  A(7,18,40)            105.705          estimate D2E/DX2                !
 ! A114  A(7,18,42)             90.5189         estimate D2E/DX2                !
 ! A115  A(13,18,19)           129.0566         estimate D2E/DX2                !
 ! A116  A(13,18,20)           137.6348         estimate D2E/DX2                !
 ! A117  A(13,18,40)           101.4429         estimate D2E/DX2                !
 ! A118  A(13,18,42)           126.2402         estimate D2E/DX2                !
 ! A119  A(16,18,19)           139.309          estimate D2E/DX2                !
 ! A120  A(16,18,20)            86.761          estimate D2E/DX2                !
 ! A121  A(16,18,40)           132.8721         estimate D2E/DX2                !
 ! A122  A(16,18,42)            98.061          estimate D2E/DX2                !
 ! A123  A(19,18,20)            82.2318         estimate D2E/DX2                !
 ! A124  A(19,18,40)            87.6448         estimate D2E/DX2                !
 ! A125  A(20,18,40)           108.4503         estimate D2E/DX2                !
 ! A126  A(40,18,42)           126.7815         estimate D2E/DX2                !
 ! A127  A(2,21,5)              83.8101         estimate D2E/DX2                !
 ! A128  A(2,21,14)             67.1911         estimate D2E/DX2                !
 ! A129  A(2,21,22)            144.9104         estimate D2E/DX2                !
 ! A130  A(2,21,23)             81.3501         estimate D2E/DX2                !
 ! A131  A(2,21,48)             91.1665         estimate D2E/DX2                !
 ! A132  A(2,21,49)            132.3592         estimate D2E/DX2                !
 ! A133  A(5,21,14)            125.9701         estimate D2E/DX2                !
 ! A134  A(5,21,22)             89.5775         estimate D2E/DX2                !
 ! A135  A(5,21,23)            135.6412         estimate D2E/DX2                !
 ! A136  A(5,21,48)             91.3047         estimate D2E/DX2                !
 ! A137  A(5,21,49)             79.5699         estimate D2E/DX2                !
 ! A138  A(12,21,14)            71.8515         estimate D2E/DX2                !
 ! A139  A(12,21,22)            95.4063         estimate D2E/DX2                !
 ! A140  A(12,21,23)           134.0343         estimate D2E/DX2                !
 ! A141  A(12,21,48)           129.2143         estimate D2E/DX2                !
 ! A142  A(12,21,49)           133.8872         estimate D2E/DX2                !
 ! A143  A(14,21,22)            89.8967         estimate D2E/DX2                !
 ! A144  A(14,21,23)            85.3561         estimate D2E/DX2                !
 ! A145  A(14,21,48)           131.6633         estimate D2E/DX2                !
 ! A146  A(14,21,49)           152.558          estimate D2E/DX2                !
 ! A147  A(22,21,23)           124.6256         estimate D2E/DX2                !
 ! A148  A(22,21,48)           123.494          estimate D2E/DX2                !
 ! A149  A(22,21,49)            79.4657         estimate D2E/DX2                !
 ! A150  A(23,21,49)            80.2624         estimate D2E/DX2                !
 ! A151  A(21,22,51)            84.6197         estimate D2E/DX2                !
 ! A152  A(9,24,17)            127.2663         estimate D2E/DX2                !
 ! A153  A(9,24,25)            140.8045         estimate D2E/DX2                !
 ! A154  A(9,24,28)             97.1308         estimate D2E/DX2                !
 ! A155  A(10,24,17)           131.1575         estimate D2E/DX2                !
 ! A156  A(10,24,25)            88.2833         estimate D2E/DX2                !
 ! A157  A(10,24,26)           104.676          estimate D2E/DX2                !
 ! A158  A(10,24,27)           103.3729         estimate D2E/DX2                !
 ! A159  A(10,24,28)            91.9213         estimate D2E/DX2                !
 ! A160  A(17,24,25)            73.946          estimate D2E/DX2                !
 ! A161  A(17,24,26)            85.5444         estimate D2E/DX2                !
 ! A162  A(17,24,27)           120.3653         estimate D2E/DX2                !
 ! A163  A(17,24,28)           130.1278         estimate D2E/DX2                !
 ! A164  A(25,24,26)           159.4433         estimate D2E/DX2                !
 ! A165  A(25,24,27)           138.0832         estimate D2E/DX2                !
 ! A166  A(25,24,28)            85.5973         estimate D2E/DX2                !
 ! A167  A(26,24,28)           109.3943         estimate D2E/DX2                !
 ! A168  A(24,25,33)            82.1656         estimate D2E/DX2                !
 ! A169  A(24,25,36)            83.3222         estimate D2E/DX2                !
 ! A170  A(33,25,36)            94.5586         estimate D2E/DX2                !
 ! A171  A(9,27,15)             85.4525         estimate D2E/DX2                !
 ! A172  A(9,27,28)             91.0478         estimate D2E/DX2                !
 ! A173  A(9,27,29)            136.3118         estimate D2E/DX2                !
 ! A174  A(9,27,30)            128.8817         estimate D2E/DX2                !
 ! A175  A(9,27,55)            123.7286         estimate D2E/DX2                !
 ! A176  A(9,27,57)            164.7411         estimate D2E/DX2                !
 ! A177  A(11,27,15)            84.701          estimate D2E/DX2                !
 ! A178  A(11,27,24)            88.773          estimate D2E/DX2                !
 ! A179  A(11,27,26)            97.5446         estimate D2E/DX2                !
 ! A180  A(11,27,28)            82.1405         estimate D2E/DX2                !
 ! A181  A(11,27,29)           163.9402         estimate D2E/DX2                !
 ! A182  A(11,27,30)           138.1792         estimate D2E/DX2                !
 ! A183  A(11,27,55)            76.1452         estimate D2E/DX2                !
 ! A184  A(11,27,57)           122.9634         estimate D2E/DX2                !
 ! A185  A(15,27,24)           134.5911         estimate D2E/DX2                !
 ! A186  A(15,27,26)            82.9128         estimate D2E/DX2                !
 ! A187  A(15,27,28)           164.9284         estimate D2E/DX2                !
 ! A188  A(15,27,29)            80.4975         estimate D2E/DX2                !
 ! A189  A(15,27,30)           135.6205         estimate D2E/DX2                !
 ! A190  A(15,27,55)            89.5129         estimate D2E/DX2                !
 ! A191  A(15,27,57)            81.3649         estimate D2E/DX2                !
 ! A192  A(24,27,29)           106.0669         estimate D2E/DX2                !
 ! A193  A(24,27,30)            70.5178         estimate D2E/DX2                !
 ! A194  A(24,27,55)           132.1767         estimate D2E/DX2                !
 ! A195  A(24,27,57)           136.8603         estimate D2E/DX2                !
 ! A196  A(26,27,28)           106.0442         estimate D2E/DX2                !
 ! A197  A(26,27,29)            86.8256         estimate D2E/DX2                !
 ! A198  A(26,27,30)            98.1683         estimate D2E/DX2                !
 ! A199  A(26,27,57)           134.5074         estimate D2E/DX2                !
 ! A200  A(28,27,29)           111.6053         estimate D2E/DX2                !
 ! A201  A(28,27,55)            80.2419         estimate D2E/DX2                !
 ! A202  A(28,27,57)            99.7097         estimate D2E/DX2                !
 ! A203  A(29,27,55)            97.4296         estimate D2E/DX2                !
 ! A204  A(30,27,55)            91.1262         estimate D2E/DX2                !
 ! A205  A(30,27,57)            66.376          estimate D2E/DX2                !
 ! A206  A(24,28,30)            83.9681         estimate D2E/DX2                !
 ! A207  A(30,29,57)            82.5293         estimate D2E/DX2                !
 ! A208  A(27,30,31)           110.702          estimate D2E/DX2                !
 ! A209  A(27,30,32)           120.3711         estimate D2E/DX2                !
 ! A210  A(27,30,33)           120.8846         estimate D2E/DX2                !
 ! A211  A(27,30,34)           134.8933         estimate D2E/DX2                !
 ! A212  A(28,30,29)           114.182          estimate D2E/DX2                !
 ! A213  A(28,30,31)            99.4278         estimate D2E/DX2                !
 ! A214  A(28,30,32)           132.5674         estimate D2E/DX2                !
 ! A215  A(28,30,33)            87.6945         estimate D2E/DX2                !
 ! A216  A(28,30,34)            79.1825         estimate D2E/DX2                !
 ! A217  A(29,30,31)            99.2722         estimate D2E/DX2                !
 ! A218  A(29,30,32)            84.7047         estimate D2E/DX2                !
 ! A219  A(29,30,33)           130.8107         estimate D2E/DX2                !
 ! A220  A(31,30,32)           120.9426         estimate D2E/DX2                !
 ! A221  A(31,30,33)           120.9163         estimate D2E/DX2                !
 ! A222  A(31,30,34)            78.1719         estimate D2E/DX2                !
 ! A223  A(32,30,34)            85.4435         estimate D2E/DX2                !
 ! A224  A(30,31,58)           113.6281         estimate D2E/DX2                !
 ! A225  A(17,33,25)            73.4415         estimate D2E/DX2                !
 ! A226  A(17,33,30)            89.2259         estimate D2E/DX2                !
 ! A227  A(17,33,32)            74.9951         estimate D2E/DX2                !
 ! A228  A(17,33,34)           141.8763         estimate D2E/DX2                !
 ! A229  A(17,33,59)           111.7946         estimate D2E/DX2                !
 ! A230  A(25,33,30)            98.9909         estimate D2E/DX2                !
 ! A231  A(25,33,32)           134.3946         estimate D2E/DX2                !
 ! A232  A(25,33,34)            92.2461         estimate D2E/DX2                !
 ! A233  A(25,33,59)           113.4124         estimate D2E/DX2                !
 ! A234  A(30,33,59)           144.994          estimate D2E/DX2                !
 ! A235  A(32,33,34)            92.7517         estimate D2E/DX2                !
 ! A236  A(32,33,59)           108.4564         estimate D2E/DX2                !
 ! A237  A(34,33,59)           106.3249         estimate D2E/DX2                !
 ! A238  A(17,36,25)            76.5427         estimate D2E/DX2                !
 ! A239  A(17,36,35)           105.7455         estimate D2E/DX2                !
 ! A240  A(17,36,37)           136.7246         estimate D2E/DX2                !
 ! A241  A(17,36,38)            82.5164         estimate D2E/DX2                !
 ! A242  A(17,36,39)           133.062          estimate D2E/DX2                !
 ! A243  A(25,36,35)           102.8828         estimate D2E/DX2                !
 ! A244  A(25,36,37)            86.7706         estimate D2E/DX2                !
 ! A245  A(25,36,38)           143.0976         estimate D2E/DX2                !
 ! A246  A(25,36,39)           137.0306         estimate D2E/DX2                !
 ! A247  A(35,36,37)           116.8887         estimate D2E/DX2                !
 ! A248  A(35,36,38)           111.948          estimate D2E/DX2                !
 ! A249  A(35,36,39)            97.3489         estimate D2E/DX2                !
 ! A250  A(37,36,38)            88.1314         estimate D2E/DX2                !
 ! A251  A(13,37,36)            77.1986         estimate D2E/DX2                !
 ! A252  A(13,37,39)            78.6106         estimate D2E/DX2                !
 ! A253  A(13,38,36)            79.1893         estimate D2E/DX2                !
 ! A254  A(13,38,39)            79.8651         estimate D2E/DX2                !
 ! A255  A(36,39,40)           158.3793         estimate D2E/DX2                !
 ! A256  A(36,39,41)            94.232          estimate D2E/DX2                !
 ! A257  A(37,39,38)            91.2904         estimate D2E/DX2                !
 ! A258  A(37,39,40)           111.993          estimate D2E/DX2                !
 ! A259  A(37,39,41)           113.6098         estimate D2E/DX2                !
 ! A260  A(38,39,40)           120.5749         estimate D2E/DX2                !
 ! A261  A(38,39,41)           112.1248         estimate D2E/DX2                !
 ! A262  A(40,39,41)           106.8647         estimate D2E/DX2                !
 ! A263  A(18,40,39)            92.3781         estimate D2E/DX2                !
 ! A264  A(18,42,43)            87.3257         estimate D2E/DX2                !
 ! A265  A(18,42,44)            96.5994         estimate D2E/DX2                !
 ! A266  A(18,42,61)           148.9727         estimate D2E/DX2                !
 ! A267  A(19,42,20)            87.4293         estimate D2E/DX2                !
 ! A268  A(19,42,43)           139.4457         estimate D2E/DX2                !
 ! A269  A(19,42,44)            91.4067         estimate D2E/DX2                !
 ! A270  A(19,42,61)           107.2138         estimate D2E/DX2                !
 ! A271  A(20,42,43)            77.5569         estimate D2E/DX2                !
 ! A272  A(20,42,44)           136.8115         estimate D2E/DX2                !
 ! A273  A(20,42,61)           111.0658         estimate D2E/DX2                !
 ! A274  A(43,42,44)            75.6759         estimate D2E/DX2                !
 ! A275  A(43,42,61)           113.3302         estimate D2E/DX2                !
 ! A276  A(44,42,61)           110.4497         estimate D2E/DX2                !
 ! A277  A(6,43,42)             80.9305         estimate D2E/DX2                !
 ! A278  A(6,43,45)             83.8861         estimate D2E/DX2                !
 ! A279  A(42,43,45)            90.8225         estimate D2E/DX2                !
 ! A280  A(6,44,42)             83.068          estimate D2E/DX2                !
 ! A281  A(6,44,45)             82.4039         estimate D2E/DX2                !
 ! A282  A(42,44,45)            92.0037         estimate D2E/DX2                !
 ! A283  A(3,45,43)             94.7122         estimate D2E/DX2                !
 ! A284  A(3,45,44)            139.2307         estimate D2E/DX2                !
 ! A285  A(3,45,46)             80.2211         estimate D2E/DX2                !
 ! A286  A(3,45,47)            109.6007         estimate D2E/DX2                !
 ! A287  A(43,45,44)            78.6978         estimate D2E/DX2                !
 ! A288  A(43,45,46)           138.9143         estimate D2E/DX2                !
 ! A289  A(43,45,47)           110.9922         estimate D2E/DX2                !
 ! A290  A(44,45,46)            79.2814         estimate D2E/DX2                !
 ! A291  A(44,45,47)           110.2892         estimate D2E/DX2                !
 ! A292  A(46,45,47)           109.0468         estimate D2E/DX2                !
 ! A293  A(1,46,45)             80.85           estimate D2E/DX2                !
 ! A294  A(1,46,48)             83.6817         estimate D2E/DX2                !
 ! A295  A(45,46,48)            94.3534         estimate D2E/DX2                !
 ! A296  A(3,48,21)             90.9164         estimate D2E/DX2                !
 ! A297  A(3,48,23)             82.5026         estimate D2E/DX2                !
 ! A298  A(3,48,46)             72.1775         estimate D2E/DX2                !
 ! A299  A(3,48,49)            140.0994         estimate D2E/DX2                !
 ! A300  A(3,48,50)            109.9838         estimate D2E/DX2                !
 ! A301  A(21,48,46)            94.9737         estimate D2E/DX2                !
 ! A302  A(21,48,50)           151.6917         estimate D2E/DX2                !
 ! A303  A(23,48,46)           139.0019         estimate D2E/DX2                !
 ! A304  A(23,48,49)            93.029          estimate D2E/DX2                !
 ! A305  A(23,48,50)           109.5207         estimate D2E/DX2                !
 ! A306  A(46,48,49)            86.8129         estimate D2E/DX2                !
 ! A307  A(46,48,50)           109.2313         estimate D2E/DX2                !
 ! A308  A(49,48,50)           108.8531         estimate D2E/DX2                !
 ! A309  A(14,51,22)            98.8377         estimate D2E/DX2                !
 ! A310  A(14,51,52)           106.9289         estimate D2E/DX2                !
 ! A311  A(14,51,53)           102.9635         estimate D2E/DX2                !
 ! A312  A(14,51,60)           111.991          estimate D2E/DX2                !
 ! A313  A(22,51,52)            78.2817         estimate D2E/DX2                !
 ! A314  A(22,51,53)           148.2426         estimate D2E/DX2                !
 ! A315  A(22,51,60)            98.5141         estimate D2E/DX2                !
 ! A316  A(52,51,53)            73.4638         estimate D2E/DX2                !
 ! A317  A(52,51,60)           140.9443         estimate D2E/DX2                !
 ! A318  A(53,51,60)            94.4333         estimate D2E/DX2                !
 ! A319  A(12,52,51)            88.4418         estimate D2E/DX2                !
 ! A320  A(51,52,54)            91.1551         estimate D2E/DX2                !
 ! A321  A(51,53,54)            97.1738         estimate D2E/DX2                !
 ! A322  A(12,54,53)           104.8032         estimate D2E/DX2                !
 ! A323  A(12,54,55)            97.7434         estimate D2E/DX2                !
 ! A324  A(12,54,56)           145.7103         estimate D2E/DX2                !
 ! A325  A(12,54,57)           129.7489         estimate D2E/DX2                !
 ! A326  A(15,54,52)           106.0592         estimate D2E/DX2                !
 ! A327  A(15,54,53)           122.0742         estimate D2E/DX2                !
 ! A328  A(15,54,55)           103.2998         estimate D2E/DX2                !
 ! A329  A(15,54,56)            93.34           estimate D2E/DX2                !
 ! A330  A(15,54,57)            90.5044         estimate D2E/DX2                !
 ! A331  A(52,54,53)            76.5537         estimate D2E/DX2                !
 ! A332  A(52,54,55)            87.4858         estimate D2E/DX2                !
 ! A333  A(52,54,56)           157.0607         estimate D2E/DX2                !
 ! A334  A(52,54,57)           139.8535         estimate D2E/DX2                !
 ! A335  A(53,54,55)           134.3912         estimate D2E/DX2                !
 ! A336  A(53,54,56)            82.8537         estimate D2E/DX2                !
 ! A337  A(53,54,57)           125.047          estimate D2E/DX2                !
 ! A338  A(55,54,56)           100.0663         estimate D2E/DX2                !
 ! A339  A(27,55,54)            83.5011         estimate D2E/DX2                !
 ! A340  A(27,57,54)            68.8683         estimate D2E/DX2                !
 ! A341  A(27,57,56)           112.1062         estimate D2E/DX2                !
 ! A342  A(27,57,58)           140.6053         estimate D2E/DX2                !
 ! A343  A(29,57,54)           101.8502         estimate D2E/DX2                !
 ! A344  A(29,57,55)           111.206          estimate D2E/DX2                !
 ! A345  A(29,57,56)            98.6066         estimate D2E/DX2                !
 ! A346  A(29,57,58)           107.8992         estimate D2E/DX2                !
 ! A347  A(54,57,58)           147.5139         estimate D2E/DX2                !
 ! A348  A(55,57,56)           107.5619         estimate D2E/DX2                !
 ! A349  A(55,57,58)           123.4613         estimate D2E/DX2                !
 ! A350  A(56,57,58)           105.0665         estimate D2E/DX2                !
 ! A351  A(31,58,57)            77.734          estimate D2E/DX2                !
 ! A352  L(4,9,26,8,-1)        166.2377         estimate D2E/DX2                !
 ! A353  L(26,27,55,11,-1)     173.6898         estimate D2E/DX2                !
 ! A354  L(29,30,34,28,-1)     193.3645         estimate D2E/DX2                !
 ! A355  L(4,9,26,8,-2)        184.6262         estimate D2E/DX2                !
 ! A356  L(26,27,55,11,-2)     187.0834         estimate D2E/DX2                !
 ! A357  L(29,30,34,28,-2)     179.3887         estimate D2E/DX2                !
 ! D1    D(3,1,2,12)           170.974          estimate D2E/DX2                !
 ! D2    D(3,1,2,21)            99.5105         estimate D2E/DX2                !
 ! D3    D(4,1,2,12)           -34.9812         estimate D2E/DX2                !
 ! D4    D(4,1,2,21)          -106.4446         estimate D2E/DX2                !
 ! D5    D(5,1,2,12)            34.8334         estimate D2E/DX2                !
 ! D6    D(5,1,2,21)           -36.6301         estimate D2E/DX2                !
 ! D7    D(8,1,2,12)           -99.2356         estimate D2E/DX2                !
 ! D8    D(8,1,2,21)          -170.6991         estimate D2E/DX2                !
 ! D9    D(46,1,2,12)          113.1957         estimate D2E/DX2                !
 ! D10   D(46,1,2,21)           41.7323         estimate D2E/DX2                !
 ! D11   D(2,1,3,45)           173.1069         estimate D2E/DX2                !
 ! D12   D(2,1,3,48)           -92.6275         estimate D2E/DX2                !
 ! D13   D(4,1,3,45)            18.9449         estimate D2E/DX2                !
 ! D14   D(4,1,3,48)           113.2105         estimate D2E/DX2                !
 ! D15   D(5,1,3,45)          -113.6886         estimate D2E/DX2                !
 ! D16   D(5,1,3,48)           -19.423          estimate D2E/DX2                !
 ! D17   D(8,1,3,45)            91.9025         estimate D2E/DX2                !
 ! D18   D(8,1,3,48)          -173.8319         estimate D2E/DX2                !
 ! D19   D(46,1,3,45)          -46.0161         estimate D2E/DX2                !
 ! D20   D(46,1,3,48)           48.2495         estimate D2E/DX2                !
 ! D21   D(2,1,4,6)           -107.0296         estimate D2E/DX2                !
 ! D22   D(2,1,4,9)            -24.9442         estimate D2E/DX2                !
 ! D23   D(3,1,4,6)             33.8431         estimate D2E/DX2                !
 ! D24   D(3,1,4,9)            115.9286         estimate D2E/DX2                !
 ! D25   D(5,1,4,6)           -178.7518         estimate D2E/DX2                !
 ! D26   D(5,1,4,9)            -96.6664         estimate D2E/DX2                !
 ! D27   D(8,1,4,6)            -42.3326         estimate D2E/DX2                !
 ! D28   D(8,1,4,9)             39.7528         estimate D2E/DX2                !
 ! D29   D(46,1,4,6)            95.411          estimate D2E/DX2                !
 ! D30   D(46,1,4,9)           177.4964         estimate D2E/DX2                !
 ! D31   D(2,1,5,12)           -34.6273         estimate D2E/DX2                !
 ! D32   D(2,1,5,21)            38.1606         estimate D2E/DX2                !
 ! D33   D(3,1,5,12)          -105.6703         estimate D2E/DX2                !
 ! D34   D(3,1,5,21)           -32.8823         estimate D2E/DX2                !
 ! D35   D(4,1,5,12)           104.9916         estimate D2E/DX2                !
 ! D36   D(4,1,5,21)           177.7796         estimate D2E/DX2                !
 ! D37   D(8,1,5,12)            38.6881         estimate D2E/DX2                !
 ! D38   D(8,1,5,21)           111.4761         estimate D2E/DX2                !
 ! D39   D(46,1,5,12)         -169.4947         estimate D2E/DX2                !
 ! D40   D(46,1,5,21)          -96.7068         estimate D2E/DX2                !
 ! D41   D(2,1,8,6)           -176.0937         estimate D2E/DX2                !
 ! D42   D(2,1,8,9)            101.4442         estimate D2E/DX2                !
 ! D43   D(3,1,8,6)            -96.0569         estimate D2E/DX2                !
 ! D44   D(3,1,8,9)           -178.519          estimate D2E/DX2                !
 ! D45   D(4,1,8,6)             42.3896         estimate D2E/DX2                !
 ! D46   D(4,1,8,9)            -40.0724         estimate D2E/DX2                !
 ! D47   D(5,1,8,6)            108.8077         estimate D2E/DX2                !
 ! D48   D(5,1,8,9)             26.3457         estimate D2E/DX2                !
 ! D49   D(46,1,8,6)           -29.3398         estimate D2E/DX2                !
 ! D50   D(46,1,8,9)          -111.8019         estimate D2E/DX2                !
 ! D51   D(2,1,46,45)          102.7182         estimate D2E/DX2                !
 ! D52   D(2,1,46,48)            7.2559         estimate D2E/DX2                !
 ! D53   D(3,1,46,45)           43.2097         estimate D2E/DX2                !
 ! D54   D(3,1,46,48)          -52.2526         estimate D2E/DX2                !
 ! D55   D(4,1,46,45)          -98.3841         estimate D2E/DX2                !
 ! D56   D(4,1,46,48)          166.1536         estimate D2E/DX2                !
 ! D57   D(5,1,46,45)         -178.8347         estimate D2E/DX2                !
 ! D58   D(5,1,46,48)           85.703          estimate D2E/DX2                !
 ! D59   D(8,1,46,45)          -28.5855         estimate D2E/DX2                !
 ! D60   D(8,1,46,48)         -124.0478         estimate D2E/DX2                !
 ! D61   D(1,2,12,5)           -35.0621         estimate D2E/DX2                !
 ! D62   D(1,2,12,11)           40.3699         estimate D2E/DX2                !
 ! D63   D(1,2,12,15)          128.6375         estimate D2E/DX2                !
 ! D64   D(1,2,12,52)         -120.2395         estimate D2E/DX2                !
 ! D65   D(1,2,12,54)          162.6844         estimate D2E/DX2                !
 ! D66   D(1,2,21,5)            37.5186         estimate D2E/DX2                !
 ! D67   D(1,2,21,14)          170.8752         estimate D2E/DX2                !
 ! D68   D(1,2,21,22)          117.8888         estimate D2E/DX2                !
 ! D69   D(1,2,21,23)         -100.5497         estimate D2E/DX2                !
 ! D70   D(1,2,21,48)          -53.6674         estimate D2E/DX2                !
 ! D71   D(1,2,21,49)          -32.2798         estimate D2E/DX2                !
 ! D72   D(1,3,45,43)          -92.534          estimate D2E/DX2                !
 ! D73   D(1,3,45,44)          -14.3952         estimate D2E/DX2                !
 ! D74   D(1,3,45,46)           46.3368         estimate D2E/DX2                !
 ! D75   D(1,3,45,47)          153.2035         estimate D2E/DX2                !
 ! D76   D(48,3,45,43)        -171.8954         estimate D2E/DX2                !
 ! D77   D(48,3,45,44)         -93.7566         estimate D2E/DX2                !
 ! D78   D(48,3,45,46)         -33.0246         estimate D2E/DX2                !
 ! D79   D(48,3,45,47)          73.8421         estimate D2E/DX2                !
 ! D80   D(1,3,48,21)           45.8654         estimate D2E/DX2                !
 ! D81   D(1,3,48,23)           98.2793         estimate D2E/DX2                !
 ! D82   D(1,3,48,46)          -49.0646         estimate D2E/DX2                !
 ! D83   D(1,3,48,49)           12.5408         estimate D2E/DX2                !
 ! D84   D(1,3,48,50)         -153.6156         estimate D2E/DX2                !
 ! D85   D(45,3,48,21)         128.2221         estimate D2E/DX2                !
 ! D86   D(45,3,48,23)        -179.3641         estimate D2E/DX2                !
 ! D87   D(45,3,48,46)          33.2921         estimate D2E/DX2                !
 ! D88   D(45,3,48,49)          94.8975         estimate D2E/DX2                !
 ! D89   D(45,3,48,50)         -71.2589         estimate D2E/DX2                !
 ! D90   D(1,4,6,7)           -178.8754         estimate D2E/DX2                !
 ! D91   D(1,4,6,8)             42.3488         estimate D2E/DX2                !
 ! D92   D(1,4,6,16)           107.7665         estimate D2E/DX2                !
 ! D93   D(1,4,6,18)           178.8052         estimate D2E/DX2                !
 ! D94   D(1,4,6,43)           -33.9592         estimate D2E/DX2                !
 ! D95   D(1,4,6,44)           -93.0303         estimate D2E/DX2                !
 ! D96   D(9,4,6,7)             94.6602         estimate D2E/DX2                !
 ! D97   D(9,4,6,8)            -44.1156         estimate D2E/DX2                !
 ! D98   D(9,4,6,16)            21.3021         estimate D2E/DX2                !
 ! D99   D(9,4,6,18)            92.3408         estimate D2E/DX2                !
 ! D100  D(9,4,6,43)          -120.4236         estimate D2E/DX2                !
 ! D101  D(9,4,6,44)          -179.4947         estimate D2E/DX2                !
 ! D102  D(1,4,9,8)            -39.3137         estimate D2E/DX2                !
 ! D103  D(1,4,9,10)           179.6163         estimate D2E/DX2                !
 ! D104  D(1,4,9,11)            89.2682         estimate D2E/DX2                !
 ! D105  D(1,4,9,24)           179.2446         estimate D2E/DX2                !
 ! D106  D(1,4,9,27)            87.6594         estimate D2E/DX2                !
 ! D107  D(6,4,9,8)             43.5874         estimate D2E/DX2                !
 ! D108  D(6,4,9,10)           -97.4825         estimate D2E/DX2                !
 ! D109  D(6,4,9,11)           172.1693         estimate D2E/DX2                !
 ! D110  D(6,4,9,24)           -97.8543         estimate D2E/DX2                !
 ! D111  D(6,4,9,27)           170.5606         estimate D2E/DX2                !
 ! D112  D(1,5,12,2)            34.1399         estimate D2E/DX2                !
 ! D113  D(1,5,12,11)          -95.0138         estimate D2E/DX2                !
 ! D114  D(1,5,12,15)          -32.2537         estimate D2E/DX2                !
 ! D115  D(1,5,12,52)          176.2997         estimate D2E/DX2                !
 ! D116  D(1,5,12,54)         -170.0573         estimate D2E/DX2                !
 ! D117  D(1,5,21,2)           -36.3152         estimate D2E/DX2                !
 ! D118  D(1,5,21,14)          -92.224          estimate D2E/DX2                !
 ! D119  D(1,5,21,22)          178.2102         estimate D2E/DX2                !
 ! D120  D(1,5,21,23)           34.5807         estimate D2E/DX2                !
 ! D121  D(1,5,21,48)           54.7169         estimate D2E/DX2                !
 ! D122  D(1,5,21,49)           98.8447         estimate D2E/DX2                !
 ! D123  D(4,6,7,13)           -97.8967         estimate D2E/DX2                !
 ! D124  D(8,6,7,13)           -29.4726         estimate D2E/DX2                !
 ! D125  D(16,6,7,13)           38.7202         estimate D2E/DX2                !
 ! D126  D(43,6,7,13)          113.3639         estimate D2E/DX2                !
 ! D127  D(44,6,7,13)          178.5527         estimate D2E/DX2                !
 ! D128  D(4,6,8,1)            -42.7595         estimate D2E/DX2                !
 ! D129  D(4,6,8,9)             44.4802         estimate D2E/DX2                !
 ! D130  D(7,6,8,1)           -112.2451         estimate D2E/DX2                !
 ! D131  D(7,6,8,9)            -25.0054         estimate D2E/DX2                !
 ! D132  D(16,6,8,1)           178.3383         estimate D2E/DX2                !
 ! D133  D(16,6,8,9)           -94.422          estimate D2E/DX2                !
 ! D134  D(18,6,8,1)           178.9678         estimate D2E/DX2                !
 ! D135  D(18,6,8,9)           -93.7925         estimate D2E/DX2                !
 ! D136  D(43,6,8,1)            95.2111         estimate D2E/DX2                !
 ! D137  D(43,6,8,9)          -177.5492         estimate D2E/DX2                !
 ! D138  D(44,6,8,1)            28.3235         estimate D2E/DX2                !
 ! D139  D(44,6,8,9)           115.5632         estimate D2E/DX2                !
 ! D140  D(4,6,16,13)           35.0881         estimate D2E/DX2                !
 ! D141  D(7,6,16,13)          -38.2063         estimate D2E/DX2                !
 ! D142  D(8,6,16,13)          100.6088         estimate D2E/DX2                !
 ! D143  D(43,6,16,13)        -170.3713         estimate D2E/DX2                !
 ! D144  D(44,6,16,13)        -112.9657         estimate D2E/DX2                !
 ! D145  D(4,6,18,13)          -57.2973         estimate D2E/DX2                !
 ! D146  D(4,6,18,19)           77.0358         estimate D2E/DX2                !
 ! D147  D(4,6,18,20)          159.3798         estimate D2E/DX2                !
 ! D148  D(4,6,18,40)          -11.2904         estimate D2E/DX2                !
 ! D149  D(4,6,18,42)          115.2175         estimate D2E/DX2                !
 ! D150  D(8,6,18,13)           60.3221         estimate D2E/DX2                !
 ! D151  D(8,6,18,19)         -165.3448         estimate D2E/DX2                !
 ! D152  D(8,6,18,20)          -83.0008         estimate D2E/DX2                !
 ! D153  D(8,6,18,40)          106.329          estimate D2E/DX2                !
 ! D154  D(8,6,18,42)         -127.1631         estimate D2E/DX2                !
 ! D155  D(43,6,18,13)         144.6219         estimate D2E/DX2                !
 ! D156  D(43,6,18,19)         -81.0451         estimate D2E/DX2                !
 ! D157  D(43,6,18,20)           1.2989         estimate D2E/DX2                !
 ! D158  D(43,6,18,40)        -169.3712         estimate D2E/DX2                !
 ! D159  D(43,6,18,42)         -42.8634         estimate D2E/DX2                !
 ! D160  D(44,6,18,13)        -140.896          estimate D2E/DX2                !
 ! D161  D(44,6,18,19)          -6.5629         estimate D2E/DX2                !
 ! D162  D(44,6,18,20)          75.781          estimate D2E/DX2                !
 ! D163  D(44,6,18,40)         -94.8891         estimate D2E/DX2                !
 ! D164  D(44,6,18,42)          31.6187         estimate D2E/DX2                !
 ! D165  D(4,6,43,42)         -108.4424         estimate D2E/DX2                !
 ! D166  D(4,6,43,45)          -16.6247         estimate D2E/DX2                !
 ! D167  D(7,6,43,42)           23.1295         estimate D2E/DX2                !
 ! D168  D(7,6,43,45)          114.9472         estimate D2E/DX2                !
 ! D169  D(8,6,43,42)          178.1517         estimate D2E/DX2                !
 ! D170  D(8,6,43,45)          -90.0306         estimate D2E/DX2                !
 ! D171  D(16,6,43,42)          97.9445         estimate D2E/DX2                !
 ! D172  D(16,6,43,45)        -170.2378         estimate D2E/DX2                !
 ! D173  D(18,6,43,42)          47.8923         estimate D2E/DX2                !
 ! D174  D(18,6,43,45)         139.71           estimate D2E/DX2                !
 ! D175  D(44,6,43,42)         -46.4875         estimate D2E/DX2                !
 ! D176  D(44,6,43,45)          45.3301         estimate D2E/DX2                !
 ! D177  D(4,6,44,42)         -168.7041         estimate D2E/DX2                !
 ! D178  D(4,6,44,45)           98.3296         estimate D2E/DX2                !
 ! D179  D(7,6,44,42)          -85.0945         estimate D2E/DX2                !
 ! D180  D(7,6,44,45)         -178.0607         estimate D2E/DX2                !
 ! D181  D(8,6,44,42)          121.3485         estimate D2E/DX2                !
 ! D182  D(8,6,44,45)           28.3822         estimate D2E/DX2                !
 ! D183  D(16,6,44,42)         -11.0068         estimate D2E/DX2                !
 ! D184  D(16,6,44,45)        -103.973          estimate D2E/DX2                !
 ! D185  D(18,6,44,42)         -36.5452         estimate D2E/DX2                !
 ! D186  D(18,6,44,45)        -129.5115         estimate D2E/DX2                !
 ! D187  D(43,6,44,42)          49.0495         estimate D2E/DX2                !
 ! D188  D(43,6,44,45)         -43.9168         estimate D2E/DX2                !
 ! D189  D(6,7,13,10)           97.3128         estimate D2E/DX2                !
 ! D190  D(6,7,13,16)          -38.9121         estimate D2E/DX2                !
 ! D191  D(6,7,13,37)          177.987          estimate D2E/DX2                !
 ! D192  D(6,7,13,38)         -110.4025         estimate D2E/DX2                !
 ! D193  D(1,8,9,4)             39.691          estimate D2E/DX2                !
 ! D194  D(1,8,9,10)           108.2902         estimate D2E/DX2                !
 ! D195  D(1,8,9,11)           -38.9576         estimate D2E/DX2                !
 ! D196  D(1,8,9,24)          -175.9194         estimate D2E/DX2                !
 ! D197  D(1,8,9,26)          -144.9352         estimate D2E/DX2                !
 ! D198  D(1,8,9,27)          -104.7574         estimate D2E/DX2                !
 ! D199  D(6,8,9,4)            -43.6487         estimate D2E/DX2                !
 ! D200  D(6,8,9,10)            24.9505         estimate D2E/DX2                !
 ! D201  D(6,8,9,11)          -122.2972         estimate D2E/DX2                !
 ! D202  D(6,8,9,24)           100.741          estimate D2E/DX2                !
 ! D203  D(6,8,9,26)           131.7251         estimate D2E/DX2                !
 ! D204  D(6,8,9,27)           171.903          estimate D2E/DX2                !
 ! D205  D(4,9,10,13)           94.4029         estimate D2E/DX2                !
 ! D206  D(8,9,10,13)           27.9575         estimate D2E/DX2                !
 ! D207  D(11,9,10,13)        -177.58           estimate D2E/DX2                !
 ! D208  D(26,9,10,13)         -73.0467         estimate D2E/DX2                !
 ! D209  D(27,9,10,13)        -124.1711         estimate D2E/DX2                !
 ! D210  D(4,9,11,12)          -86.9609         estimate D2E/DX2                !
 ! D211  D(8,9,11,12)          -12.8878         estimate D2E/DX2                !
 ! D212  D(10,9,11,12)        -171.5712         estimate D2E/DX2                !
 ! D213  D(24,9,11,12)         136.7752         estimate D2E/DX2                !
 ! D214  D(26,9,11,12)          85.0249         estimate D2E/DX2                !
 ! D215  D(4,9,24,17)          117.8218         estimate D2E/DX2                !
 ! D216  D(4,9,24,25)            5.2891         estimate D2E/DX2                !
 ! D217  D(4,9,24,28)          -86.4871         estimate D2E/DX2                !
 ! D218  D(8,9,24,17)           -6.5057         estimate D2E/DX2                !
 ! D219  D(8,9,24,25)         -119.0384         estimate D2E/DX2                !
 ! D220  D(8,9,24,28)          149.1853         estimate D2E/DX2                !
 ! D221  D(11,9,24,17)        -153.5494         estimate D2E/DX2                !
 ! D222  D(11,9,24,25)          93.918          estimate D2E/DX2                !
 ! D223  D(11,9,24,28)           2.1417         estimate D2E/DX2                !
 ! D224  D(4,9,27,15)          -84.9739         estimate D2E/DX2                !
 ! D225  D(4,9,27,28)           80.3466         estimate D2E/DX2                !
 ! D226  D(4,9,27,29)         -156.1278         estimate D2E/DX2                !
 ! D227  D(4,9,27,30)          126.055          estimate D2E/DX2                !
 ! D228  D(4,9,27,55)            1.3937         estimate D2E/DX2                !
 ! D229  D(4,9,27,57)          -54.7251         estimate D2E/DX2                !
 ! D230  D(8,9,27,15)           28.4422         estimate D2E/DX2                !
 ! D231  D(8,9,27,28)         -166.2372         estimate D2E/DX2                !
 ! D232  D(8,9,27,29)          -42.7117         estimate D2E/DX2                !
 ! D233  D(8,9,27,30)         -120.5289         estimate D2E/DX2                !
 ! D234  D(8,9,27,55)          114.8098         estimate D2E/DX2                !
 ! D235  D(8,9,27,57)           58.691          estimate D2E/DX2                !
 ! D236  D(10,9,27,15)        -173.1549         estimate D2E/DX2                !
 ! D237  D(10,9,27,28)          -7.8344         estimate D2E/DX2                !
 ! D238  D(10,9,27,29)         115.6911         estimate D2E/DX2                !
 ! D239  D(10,9,27,30)          37.8739         estimate D2E/DX2                !
 ! D240  D(10,9,27,55)         -86.7874         estimate D2E/DX2                !
 ! D241  D(10,9,27,57)        -142.9062         estimate D2E/DX2                !
 ! D242  D(9,10,13,7)          -98.742          estimate D2E/DX2                !
 ! D243  D(9,10,13,16)         -20.0358         estimate D2E/DX2                !
 ! D244  D(9,10,13,18)         -96.4039         estimate D2E/DX2                !
 ! D245  D(9,10,13,37)         175.4299         estimate D2E/DX2                !
 ! D246  D(9,10,13,38)         109.8875         estimate D2E/DX2                !
 ! D247  D(24,10,13,7)        -175.2376         estimate D2E/DX2                !
 ! D248  D(24,10,13,16)        -96.5314         estimate D2E/DX2                !
 ! D249  D(24,10,13,18)       -172.8994         estimate D2E/DX2                !
 ! D250  D(24,10,13,37)         98.9343         estimate D2E/DX2                !
 ! D251  D(24,10,13,38)         33.3919         estimate D2E/DX2                !
 ! D252  D(13,10,24,17)        -28.3118         estimate D2E/DX2                !
 ! D253  D(13,10,24,25)        -95.129          estimate D2E/DX2                !
 ! D254  D(13,10,24,26)         68.7113         estimate D2E/DX2                !
 ! D255  D(13,10,24,27)        125.5765         estimate D2E/DX2                !
 ! D256  D(13,10,24,28)        179.336          estimate D2E/DX2                !
 ! D257  D(9,11,12,2)           13.467          estimate D2E/DX2                !
 ! D258  D(9,11,12,5)           90.3651         estimate D2E/DX2                !
 ! D259  D(9,11,12,15)         -73.8421         estimate D2E/DX2                !
 ! D260  D(9,11,12,21)          90.006          estimate D2E/DX2                !
 ! D261  D(9,11,12,52)        -178.3272         estimate D2E/DX2                !
 ! D262  D(9,11,12,54)        -124.4035         estimate D2E/DX2                !
 ! D263  D(27,11,12,2)          92.4375         estimate D2E/DX2                !
 ! D264  D(27,11,12,5)         169.3355         estimate D2E/DX2                !
 ! D265  D(27,11,12,15)          5.1284         estimate D2E/DX2                !
 ! D266  D(27,11,12,21)        168.9765         estimate D2E/DX2                !
 ! D267  D(27,11,12,52)        -99.3568         estimate D2E/DX2                !
 ! D268  D(27,11,12,54)        -45.4331         estimate D2E/DX2                !
 ! D269  D(12,11,27,15)         -4.7764         estimate D2E/DX2                !
 ! D270  D(12,11,27,24)       -139.7843         estimate D2E/DX2                !
 ! D271  D(12,11,27,26)        -86.8862         estimate D2E/DX2                !
 ! D272  D(12,11,27,28)        167.8565         estimate D2E/DX2                !
 ! D273  D(12,11,27,29)         18.0745         estimate D2E/DX2                !
 ! D274  D(12,11,27,30)        161.8316         estimate D2E/DX2                !
 ! D275  D(12,11,27,55)         86.0304         estimate D2E/DX2                !
 ! D276  D(12,11,27,57)         71.345          estimate D2E/DX2                !
 ! D277  D(2,12,15,27)        -132.5673         estimate D2E/DX2                !
 ! D278  D(5,12,15,27)         -66.6222         estimate D2E/DX2                !
 ! D279  D(11,12,15,27)         -4.9926         estimate D2E/DX2                !
 ! D280  D(21,12,15,27)       -169.5044         estimate D2E/DX2                !
 ! D281  D(52,12,15,27)         83.8029         estimate D2E/DX2                !
 ! D282  D(11,12,21,14)        174.1545         estimate D2E/DX2                !
 ! D283  D(11,12,21,22)         86.0414         estimate D2E/DX2                !
 ! D284  D(11,12,21,23)       -121.6582         estimate D2E/DX2                !
 ! D285  D(11,12,21,48)        -56.394          estimate D2E/DX2                !
 ! D286  D(11,12,21,49)          5.4675         estimate D2E/DX2                !
 ! D287  D(15,12,21,14)        -28.1022         estimate D2E/DX2                !
 ! D288  D(15,12,21,22)       -116.2153         estimate D2E/DX2                !
 ! D289  D(15,12,21,23)         36.0851         estimate D2E/DX2                !
 ! D290  D(15,12,21,48)        101.3493         estimate D2E/DX2                !
 ! D291  D(15,12,21,49)        163.2108         estimate D2E/DX2                !
 ! D292  D(52,12,21,14)         83.7745         estimate D2E/DX2                !
 ! D293  D(52,12,21,22)         -4.3386         estimate D2E/DX2                !
 ! D294  D(52,12,21,23)        147.9617         estimate D2E/DX2                !
 ! D295  D(52,12,21,48)       -146.7741         estimate D2E/DX2                !
 ! D296  D(52,12,21,49)        -84.9125         estimate D2E/DX2                !
 ! D297  D(54,12,21,14)         39.3867         estimate D2E/DX2                !
 ! D298  D(54,12,21,22)        -48.7264         estimate D2E/DX2                !
 ! D299  D(54,12,21,23)        103.5739         estimate D2E/DX2                !
 ! D300  D(54,12,21,48)        168.8382         estimate D2E/DX2                !
 ! D301  D(54,12,21,49)       -129.3003         estimate D2E/DX2                !
 ! D302  D(2,12,52,51)         -15.2531         estimate D2E/DX2                !
 ! D303  D(5,12,52,51)         -98.2646         estimate D2E/DX2                !
 ! D304  D(11,12,52,51)       -179.9867         estimate D2E/DX2                !
 ! D305  D(15,12,52,51)         90.4268         estimate D2E/DX2                !
 ! D306  D(21,12,52,51)        -44.8295         estimate D2E/DX2                !
 ! D307  D(2,12,54,53)          72.739          estimate D2E/DX2                !
 ! D308  D(2,12,54,55)        -147.2505         estimate D2E/DX2                !
 ! D309  D(2,12,54,56)         -26.419          estimate D2E/DX2                !
 ! D310  D(2,12,54,57)        -100.1526         estimate D2E/DX2                !
 ! D311  D(5,12,54,53)         -76.2912         estimate D2E/DX2                !
 ! D312  D(5,12,54,55)          63.7193         estimate D2E/DX2                !
 ! D313  D(5,12,54,56)        -175.4492         estimate D2E/DX2                !
 ! D314  D(5,12,54,57)         110.8172         estimate D2E/DX2                !
 ! D315  D(11,12,54,53)       -149.3685         estimate D2E/DX2                !
 ! D316  D(11,12,54,55)         -9.358          estimate D2E/DX2                !
 ! D317  D(11,12,54,56)        111.4735         estimate D2E/DX2                !
 ! D318  D(11,12,54,57)         37.7399         estimate D2E/DX2                !
 ! D319  D(21,12,54,53)          0.5748         estimate D2E/DX2                !
 ! D320  D(21,12,54,55)        140.5853         estimate D2E/DX2                !
 ! D321  D(21,12,54,56)        -98.5832         estimate D2E/DX2                !
 ! D322  D(21,12,54,57)       -172.3169         estimate D2E/DX2                !
 ! D323  D(7,13,16,6)           40.2278         estimate D2E/DX2                !
 ! D324  D(10,13,16,6)         -37.6555         estimate D2E/DX2                !
 ! D325  D(37,13,16,6)         117.0166         estimate D2E/DX2                !
 ! D326  D(38,13,16,6)         175.7268         estimate D2E/DX2                !
 ! D327  D(10,13,18,6)          59.3515         estimate D2E/DX2                !
 ! D328  D(10,13,18,19)         -7.6718         estimate D2E/DX2                !
 ! D329  D(10,13,18,20)        121.4812         estimate D2E/DX2                !
 ! D330  D(10,13,18,40)       -104.0014         estimate D2E/DX2                !
 ! D331  D(10,13,18,42)         50.9299         estimate D2E/DX2                !
 ! D332  D(37,13,18,6)         141.1737         estimate D2E/DX2                !
 ! D333  D(37,13,18,19)         74.1505         estimate D2E/DX2                !
 ! D334  D(37,13,18,20)       -156.6966         estimate D2E/DX2                !
 ! D335  D(37,13,18,40)        -22.1791         estimate D2E/DX2                !
 ! D336  D(37,13,18,42)        132.7521         estimate D2E/DX2                !
 ! D337  D(38,13,18,6)        -138.8806         estimate D2E/DX2                !
 ! D338  D(38,13,18,19)        154.0961         estimate D2E/DX2                !
 ! D339  D(38,13,18,20)        -76.7509         estimate D2E/DX2                !
 ! D340  D(38,13,18,40)         57.7665         estimate D2E/DX2                !
 ! D341  D(38,13,18,42)       -147.3022         estimate D2E/DX2                !
 ! D342  D(7,13,37,36)         176.6178         estimate D2E/DX2                !
 ! D343  D(7,13,37,39)          97.7819         estimate D2E/DX2                !
 ! D344  D(10,13,37,36)        -98.4062         estimate D2E/DX2                !
 ! D345  D(10,13,37,39)       -177.2422         estimate D2E/DX2                !
 ! D346  D(16,13,37,36)         99.3871         estimate D2E/DX2                !
 ! D347  D(16,13,37,39)         20.5511         estimate D2E/DX2                !
 ! D348  D(18,13,37,36)        126.4826         estimate D2E/DX2                !
 ! D349  D(18,13,37,39)         47.6466         estimate D2E/DX2                !
 ! D350  D(38,13,37,36)         40.9778         estimate D2E/DX2                !
 ! D351  D(38,13,37,39)        -37.8582         estimate D2E/DX2                !
 ! D352  D(7,13,38,36)        -114.7374         estimate D2E/DX2                !
 ! D353  D(7,13,38,39)         -36.1012         estimate D2E/DX2                !
 ! D354  D(10,13,38,36)         24.2474         estimate D2E/DX2                !
 ! D355  D(10,13,38,39)        102.8836         estimate D2E/DX2                !
 ! D356  D(16,13,38,36)        170.923          estimate D2E/DX2                !
 ! D357  D(16,13,38,39)       -110.4408         estimate D2E/DX2                !
 ! D358  D(18,13,38,36)       -137.5846         estimate D2E/DX2                !
 ! D359  D(18,13,38,39)        -58.9484         estimate D2E/DX2                !
 ! D360  D(37,13,38,36)        -41.2503         estimate D2E/DX2                !
 ! D361  D(37,13,38,39)         37.3859         estimate D2E/DX2                !
 ! D362  D(51,14,21,2)        -136.9142         estimate D2E/DX2                !
 ! D363  D(51,14,21,5)         -73.6411         estimate D2E/DX2                !
 ! D364  D(51,14,21,12)        -79.9623         estimate D2E/DX2                !
 ! D365  D(51,14,21,22)         15.7619         estimate D2E/DX2                !
 ! D366  D(51,14,21,23)        140.5282         estimate D2E/DX2                !
 ! D367  D(51,14,21,48)        153.2459         estimate D2E/DX2                !
 ! D368  D(51,14,21,49)         82.1724         estimate D2E/DX2                !
 ! D369  D(21,14,51,22)        -15.6628         estimate D2E/DX2                !
 ! D370  D(21,14,51,52)         64.6931         estimate D2E/DX2                !
 ! D371  D(21,14,51,53)        141.088          estimate D2E/DX2                !
 ! D372  D(21,14,51,60)       -118.6292         estimate D2E/DX2                !
 ! D373  D(12,15,27,9)          52.6829         estimate D2E/DX2                !
 ! D374  D(12,15,27,11)          4.916          estimate D2E/DX2                !
 ! D375  D(12,15,27,24)         87.9296         estimate D2E/DX2                !
 ! D376  D(12,15,27,26)        103.219          estimate D2E/DX2                !
 ! D377  D(12,15,27,28)        -24.3255         estimate D2E/DX2                !
 ! D378  D(12,15,27,29)       -168.8307         estimate D2E/DX2                !
 ! D379  D(12,15,27,30)       -162.3271         estimate D2E/DX2                !
 ! D380  D(12,15,27,55)        -71.2146         estimate D2E/DX2                !
 ! D381  D(12,15,27,57)       -119.6105         estimate D2E/DX2                !
 ! D382  D(54,15,27,9)         127.7446         estimate D2E/DX2                !
 ! D383  D(54,15,27,11)         79.9777         estimate D2E/DX2                !
 ! D384  D(54,15,27,24)        162.9912         estimate D2E/DX2                !
 ! D385  D(54,15,27,26)        178.2807         estimate D2E/DX2                !
 ! D386  D(54,15,27,28)         50.7362         estimate D2E/DX2                !
 ! D387  D(54,15,27,29)        -93.769          estimate D2E/DX2                !
 ! D388  D(54,15,27,30)        -87.2654         estimate D2E/DX2                !
 ! D389  D(54,15,27,55)          3.8471         estimate D2E/DX2                !
 ! D390  D(54,15,27,57)        -44.5489         estimate D2E/DX2                !
 ! D391  D(27,15,54,52)        -95.5592         estimate D2E/DX2                !
 ! D392  D(27,15,54,53)       -179.5223         estimate D2E/DX2                !
 ! D393  D(27,15,54,55)         -4.3478         estimate D2E/DX2                !
 ! D394  D(27,15,54,56)         96.8213         estimate D2E/DX2                !
 ! D395  D(27,15,54,57)         47.3808         estimate D2E/DX2                !
 ! D396  D(33,17,24,9)         168.9747         estimate D2E/DX2                !
 ! D397  D(33,17,24,10)       -121.3935         estimate D2E/DX2                !
 ! D398  D(33,17,24,25)        -48.428          estimate D2E/DX2                !
 ! D399  D(33,17,24,26)        132.9775         estimate D2E/DX2                !
 ! D400  D(33,17,24,27)         88.3599         estimate D2E/DX2                !
 ! D401  D(33,17,24,28)         21.266          estimate D2E/DX2                !
 ! D402  D(36,17,24,9)         -97.0957         estimate D2E/DX2                !
 ! D403  D(36,17,24,10)        -27.4639         estimate D2E/DX2                !
 ! D404  D(36,17,24,25)         45.5017         estimate D2E/DX2                !
 ! D405  D(36,17,24,26)       -133.0929         estimate D2E/DX2                !
[...]
 ,0.00001245,-0.00000226,-0.00001173,-0.00001687,-0.00001122,0.00002013
 ,0.00000434,-0.00000543,-0.00000212,0.00001495,0.00000678,-0.00001842,
 -0.00000757,-0.00002734,0.00004292,-0.00001355,0.00002467,0.00000380,-
 0.00000065,0.00001478,-0.00002710,-0.00002767,-0.00003912,0.00003487,-
 0.00001292,-0.00006689,-0.00000232,-0.00002015,-0.00002345,-0.00006295
 ,-0.00017334,0.00027691,0.00009435,0.00007409,-0.00008159,-0.00002318,
 0.01905522,-0.00003043,-0.00003545,0.00009928,0.00002779,0.00000630,-0
 .00003157,-0.00001045,-0.00001764,-0.00003948,0.00001219,-0.00000375,-
 0.00002513,0.00001785,-0.00001352,-0.00004435,-0.00014956,-0.00000587,
 0.00000273,0.00004354,0.00005816,0.00005908,0.00003958,0.00001226,-0.0
 0003518,0.00017222,0.00015746,-0.00012465,-0.00008902,-0.00018871,-0.0
 0036456,0.00003155,-0.00005889,-0.00007323,-0.00009862,0.00015295,-0.0
 0004906,-0.00035743,0.00029283,-0.00028752,-0.00004946,0.00000745,0.00
 005864,0.00012733,-0.00012156,0.00003010,0.00002888,-0.00006354,0.0000
 7420,-0.00105164,0.00105435,0.00115409,-0.00002083,-0.00011888,0.00017
 188,0.00000399,0.00000171,-0.00004689,0.00000628,0.00005332,0.00000462
 ,0.00003692,-0.00004423,0.00001714,-0.00003056,0.00000114,0.00001610,-
 0.00005618,0.00000036,0.00003221,-0.00019828,-0.00057352,0.00184284,-0
 .00154093,-0.00207396,0.00085449,0.00009891,0.00009486,-0.00010486,-0.
 00060868,-0.00009741,0.00030014,-0.00017970,0.00057004,-0.00037346,-0.
 00004221,0.00006595,0.00036996,0.00400597,-0.00225735,0.00275797,-0.00
 032223,-0.00051621,-0.00082796,0.00200745,0.00408080,0.00080805,0.0197
 7046,-0.11626918,0.12126620,0.00454458,-0.00690208,0.00323198,-0.00155
 577,0.00216525,-0.00231806,-0.00020026,-0.00210592,0.00182131,0.000413
 72,0.00021894,0.00017451,0.00004971,-0.00016956,-0.00011003,0.00006023
 ,-0.00012969,0.00012300,-0.00002335,0.00003759,-0.00004146,-0.00012857
 ,0.00012615,-0.00017336,0.00018674,-0.00001403,-0.00002374,-0.00003753
 ,0.00001903,-0.00002563,-0.00002522,0.00002985,0.00000395,0.00008350,-
 0.00004615,-0.00003622,-0.00000352,0.00001775,0.00002028,-0.00006892,-
 0.00001970,0.00007854,0.00009102,0.00007171,-0.00007811,0.00000040,0.0
 0001116,-0.00000224,-0.00008465,-0.00003940,0.00009944,0.00001714,0.00
 014146,-0.00022812,0.00009967,-0.00005957,-0.00001008,0.00001216,-0.00
 008698,0.00011031,-0.00025170,0.00025583,0.00005648,0.00002659,0.00007
 851,0.00000871,0.00019623,-0.00015140,0.00027112,-0.00055637,0.0005578
 3,-0.00083030,0.00018766,0.00020116,0.00026439,-0.02463482,0.12176411,
 0.00002107,0.00003054,-0.00012602,-0.00002669,-0.00000343,0.00004182,0
 .00000762,0.00002278,0.00004251,-0.00003816,0.00000792,0.00001775,-0.0
 0001975,0.00000485,0.00005143,0.00015420,-0.00000933,-0.00000489,-0.00
 006576,-0.00000707,-0.00004621,-0.00001816,-0.00002074,0.00005995,0.00
 006383,0.00003128,0.00015371,0.00008801,0.00045049,0.00015901,-0.00008
 984,0.00004158,0.00005541,0.00010313,-0.00014065,0.00004117,0.00030368
 ,-0.00022678,0.00028444,0.00005564,-0.00000902,-0.00006525,-0.00016446
 ,0.00012533,-0.00003880,-0.00006133,0.00001568,-0.00008103,0.00088217,
 0.00025889,-0.00124376,-0.00000807,0.00008489,-0.00014177,-0.00000133,
 0.00000731,0.00005519,0.00001492,-0.00005159,-0.00003537,-0.00004864,0
 .00004845,-0.00002755,0.00003494,0.00000240,-0.00001068,0.00005779,-0.
 00000229,-0.00003579,-0.00008729,0.00027552,-0.00089528,0.00298724,0.0
 0154151,0.00077115,-0.00013668,-0.00016126,0.00011789,0.00065074,0.000
 15800,-0.00021351,-0.00021191,-0.00045241,0.00030946,0.00032015,-0.000
 32921,0.00022538,-0.00426127,0.00388415,-0.00562933,0.00052219,0.00023
 238,0.00111067,-0.00059136,0.00028183,-0.00250611,-0.02227673,0.121989
 58,-0.16550790,-0.00616163,0.00294473,0.00785780,0.00227011,-0.0020365
 2,0.00269194,0.00081228,0.00159039,-0.00276291,-0.00027771,-0.00013077
 ,-0.00009567,-0.00032883,0.00023986,0.00014575,-0.00005953,0.00020563,
 -0.00012128,0.00002322,-0.00001564,0.00003438,0.00014766,-0.00016305,0
 .00015068,-0.00019051,-0.00002897,0.00004262,0.00003878,-0.00000721,0.
 00003255,0.00002261,-0.00003115,-0.00000703,-0.00009342,0.00005426,0.0
 0004306,0.00000191,-0.00002086,-0.00002192,0.00007722,0.00002151,-0.00
 008589,-0.00009917,-0.00008050,0.00009079,-0.00000088,-0.00001113,0.00
 000182,0.00009438,0.00004310,-0.00010913,-0.00001013,-0.00015607,0.000
 24460,-0.00010817,0.00005038,0.00001273,-0.00001443,0.00010642,-0.0001
 2465,0.00030506,-0.00024773,-0.00004064,0.00000016,-0.00001364,0.00006
 233,-0.00015913,0.00004086,-0.00033536,0.00032696,-0.00046100,0.001022
 01,-0.00002964,-0.00006055,-0.00031420,0.02526086,-0.13005012,0.164890
 41,-0.00051707,-0.00003925,-0.00015001,0.00012558,-0.00022705,0.000244
 85,-0.00000083,0.00005818,-0.00000640,0.00011859,-0.00000407,0.0001015
 9,-0.00002808,0.00035956,0.00022289,0.00001524,0.00003096,-0.00014818,
 0.00005768,0.00002617,-0.00003963,0.00022550,-0.00011490,0.00009492,-0
 .00055194,0.00040180,-0.00006730,-0.00006216,0.00000312,-0.00000595,0.
 00005350,-0.00008283,0.00008306,0.00057025,-0.00096248,-0.00025435,-0.
 00012151,-0.00029014,-0.00004945,-0.00602342,0.00615256,0.00427315,0.0
 0002672,-0.00010894,-0.00025670,0.00007053,0.00003628,0.00009298,0.000
 03506,0.00001596,-0.00007958,0.00002268,-0.00003345,0.00005178,-0.0000
 0306,0.00001415,-0.00007856,-0.00000110,0.00003698,0.00001928,-0.00001
 404,-0.00065543,-0.00233395,-0.01176485,-0.00229918,-0.00274318,-0.000
 12687,0.00006664,0.00029658,0.00009840,-0.00009325,0.00007841,0.000011
 72,0.00006005,-0.00002724,-0.00004701,-0.00010728,-0.00004172,0.000677
 48,0.00011612,0.00019964,-0.00008288,0.00001003,0.00002755,-0.00000903
 ,0.00000394,0.00001109,0.00003766,-0.00000872,0.00005131,-0.00001597,-
 0.00003380,-0.00007065,-0.00001554,0.00004389,-0.00001715,-0.00004908,
 -0.00005075,0.00017045,0.00004167,-0.00006329,-0.00001161,-0.00002559,
 0.00008874,-0.00010678,-0.00003500,-0.00010733,0.00012130,0.00000492,0
 .00002389,-0.00004106,0.00001892,0.00000687,0.00001589,0.00009245,-0.0
 0011604,0.00007661,-0.00003485,0.00003650,-0.00008481,-0.00007028,0.00
 010262,-0.00011679,0.00025582,0.00000036,0.00000121,-0.00007406,0.0000
 2864,-0.00005933,-0.00006470,0.00006847,0.00000768,0.00038397,-0.00018
 654,0.00002821,-0.00005854,-0.00000662,0.00001834,-0.00014992,-0.00003
 389,0.00012629,0.00064650,-0.00001159,-0.00003999,-0.00014022,-0.00023
 213,-0.00012276,-0.00030813,-0.00009723,0.00027195,-0.12862022,0.08348
 484,-0.09482898,-0.00185667,-0.00067183,-0.00621015,0.00421369,-0.0011
 9423,0.00287569,-0.00072860,-0.00076839,-0.00128471,-0.00018838,-0.000
 03447,0.00064410,0.00003527,0.00002272,0.00008089,-0.00016235,0.000423
 48,-0.00004483,0.00024768,0.00000673,-0.00007339,-0.00001831,0.0001094
 5,-0.00012064,0.14402445,0.00031175,-0.00003724,0.00002063,-0.00004997
 ,0.00034860,-0.00002185,-0.00004774,0.00000420,-0.00001325,-0.00008560
 ,-0.00000125,-0.00005017,-0.00004183,0.00012405,0.00014899,0.00005673,
 0.00001498,0.00005927,-0.00004461,-0.00003550,0.00001471,-0.00010008,0
 .00008502,-0.00004854,0.00033112,-0.00028562,0.00018629,0.00000741,0.0
 0000243,0.00001554,-0.00001238,0.00009178,-0.00005502,0.00003758,0.000
 61734,0.00032521,0.00009940,0.00013265,-0.00000988,0.00595935,-0.00315
 087,0.00192744,0.00007201,-0.00000965,0.00003763,-0.00004008,-0.000031
 67,-0.00003712,0.00000467,0.00000408,0.00003633,-0.00002706,0.00007403
 ,0.00000667,-0.00000225,0.00000738,0.00002739,0.00001316,-0.00002213,-
 0.00006320,0.00033991,-0.00292640,-0.00142972,-0.00543850,0.00482050,-
 0.00178728,-0.00008775,-0.00035030,0.00018202,-0.00014933,0.00007095,-
 0.00010500,0.00000854,-0.00005092,0.00002026,0.00000767,0.00002065,0.0
 0001162,0.00015763,-0.00006865,0.00006140,-0.00001623,0.00001160,-0.00
 002808,-0.00001574,0.00001030,-0.00001597,0.00008169,0.00005049,0.0000
 5756,0.00002770,-0.00005061,0.00006957,0.00002948,-0.00006118,0.000026
 82,-0.00006388,0.00007005,-0.00014574,-0.00001044,0.00003590,0.0000096
 1,0.00001825,-0.00006050,0.00006943,0.00000945,0.00008571,-0.00006899,
 -0.00001783,-0.00001909,0.00002474,-0.00001235,-0.00001937,-0.00000968
 ,-0.00005167,0.00007653,-0.00005081,0.00002519,-0.00001564,0.00001247,
 0.00003867,-0.00006401,0.00007195,-0.00010530,-0.00006558,0.00006339,0
 .00000987,0.00001226,0.00000861,0.00000243,-0.00001331,-0.00001044,-0.
 00009135,-0.00000699,0.00004535,0.00000234,0.00000365,-0.00009048,0.00
 008699,0.00002713,-0.00008005,-0.00008240,0.00038320,0.00040372,0.0004
 5510,0.00003791,-0.00010118,0.00011832,0.00005532,-0.00016587,0.082056
 72,-0.06492976,0.05608259,0.00173782,-0.00029539,0.00545087,-0.0025428
 9,-0.00669195,0.00657446,0.00046523,0.00144210,-0.00053528,-0.00004498
 ,-0.00014953,-0.00009442,-0.00010284,0.00013980,-0.00024045,-0.0000327
 8,-0.00004284,0.00004059,-0.00018928,0.00003885,0.00010041,0.00001705,
 -0.00009366,0.00010203,-0.08317012,0.07062120,-0.00016443,-0.00007116,
 -0.00011759,0.00011679,-0.00023503,0.00040269,0.00003462,-0.00000062,-
 0.00002511,0.00002193,-0.00000576,0.00004697,-0.00000789,0.00011135,0.
 00067962,-0.00001035,0.00001111,-0.00002554,0.00003025,0.00000562,-0.0
 0001341,0.00008083,-0.00002805,0.00001377,-0.00012500,0.00005002,-0.00
 013295,-0.00001082,-0.00000374,0.00000644,0.00000460,0.00012059,-0.000
 03346,-0.00000628,-0.00007867,0.00051568,-0.00007687,-0.00002392,-0.00
 001964,0.00033943,0.00352946,0.00944807,-0.00001831,0.00004195,-0.0000
 6221,0.00003771,-0.00001262,0.00003048,-0.00000175,0.00000217,-0.00003
 670,0.00000097,-0.00003121,0.00003909,-0.00000016,0.00000531,-0.000048
 82,-0.00000674,0.00002474,0.00001780,-0.00401526,0.00025885,0.00041234
 ,-0.00299060,-0.00061386,-0.00153548,-0.00006304,0.00025976,-0.0001766
 6,0.00012664,-0.00009260,0.00002881,-0.00000853,0.00005052,-0.00001969
 ,0.00002326,-0.00003317,0.00004187,-0.00000366,0.00001031,-0.00018281,
 -0.00002237,0.00001533,0.00004363,0.00004607,-0.00002031,0.00000443,-0
 .00003349,-0.00001408,0.00000164,-0.00002267,0.00000873,-0.00004860,-0
 .00003385,0.00005114,-0.00002217,0.00001763,-0.00005568,0.00014277,0.0
 0002113,-0.00004331,-0.00000897,-0.00001784,0.00006119,-0.00007292,-0.
 00000365,-0.00007629,0.00006909,0.00001401,0.00001087,-0.00001798,0.00
 000697,0.00000360,0.00000098,0.00004091,-0.00007318,0.00005954,-0.0000
 1798,0.00001879,-0.00004088,-0.00004251,0.00006498,-0.00007485,0.00016
 118,0.00001595,-0.00002026,-0.00004049,0.00002220,-0.00002881,-0.00002
 900,0.00003394,0.00000179,0.00015297,-0.00008036,-0.00002580,-0.000012
 79,0.00006677,0.00003955,-0.00008022,-0.00002127,0.00008498,0.00036346
 ,0.00001429,-0.00018744,-0.00007010,-0.00023776,-0.00010119,-0.0002006
 6,-0.00009704,0.00020817,-0.09140752,0.05554805,-0.09729842,-0.0004785
 5,0.00051937,0.00080603,-0.00096872,0.00734384,-0.00723741,0.00013951,
 0.00063528,0.00045897,0.00007335,-0.00000026,-0.00024679,0.00005581,0.
 00011622,0.00025413,-0.00009557,-0.00019860,-0.00003517,0.00016053,0.0
 0001352,-0.00005305,-0.00001417,0.00008927,-0.00009716,0.09912731,-0.0
 6695966,0.09411164,-0.00095059,0.00064614,-0.00033833,0.00021105,-0.00
 003774,0.00007607,-0.00007440,0.00060123,-0.00023924,0.00009163,-0.000
 01472,0.00001969,0.00011666,-0.00004958,0.00004452,0.00002026,-0.00097
 756,0.00113293,0.00132810,-0.00053863,0.00032036,-0.00000710,-0.000080
 41,-0.00014530,0.00013653,-0.00002013,-0.00010220,-0.00001831,-0.00006
 103,-0.00007940,0.00000354,0.00004245,-0.00003690,0.00004233,-0.000061
 51,-0.00000840,-0.00014662,0.00004028,-0.00018708,-0.00000376,-0.00002
 066,0.00001014,0.00004292,-0.00002164,-0.00000678,0.00076625,0.0000036
 5,0.00021770,-0.00000149,-0.00001007,0.00007159,-0.00457803,-0.0022015
 2,0.00428339,0.00615711,0.00350033,0.00416122,0.00138478,-0.00272441,-
 0.00059197,-0.00006617,0.00004602,-0.00020030,-0.00006102,0.00010202,0
 .00006611,-0.00008621,-0.00004081,0.00002057,0.00010770,0.00004952,0.0
 0003438,-0.00000283,-0.00006218,0.00002578,0.00012696,0.00011569,-0.00
 011491,-0.00021496,-0.00002539,0.00012304,0.00000660,-0.00002187,0.000
 00018,0.00001509,-0.00000785,-0.00000047,-0.00008267,0.00003491,-0.000
 02982,0.00000857,0.00002173,0.00004960,0.00001536,-0.00002680,0.000004
 95,0.00006281,0.00004940,-0.00015248,-0.00003553,0.00004606,-0.0000075
 6,0.00005338,-0.00012847,0.00011615,-0.00011121,0.00018318,-0.00007111
 ,-0.00005410,-0.00011108,-0.00006844,0.00005863,0.00004039,-0.00006759
 ,0.00000539,0.00029540,0.00020039,0.00032425,-0.00026369,0.00006697,0.
 00006037,-0.00013373,0.00016676,-0.15833425,-0.05380828,0.11777216,-0.
 00207146,0.00011187,-0.00186210,-0.00289237,0.00191260,0.00024864,-0.0
 0137001,-0.00161361,0.00279434,-0.00026148,-0.00019266,-0.00029577,0.0
 0076188,0.00163076,-0.00353421,-0.00038629,-0.00025887,0.00010975,-0.0
 0006282,-0.00000388,0.00009415,0.00007686,0.00005304,-0.00009659,0.000
 28169,-0.00002637,0.00005265,-0.00002393,0.00003296,-0.00002067,-0.000
 03970,-0.00003152,0.00001584,-0.00001100,0.00003824,0.00003989,0.00002
 780,0.00002311,-0.00002384,-0.00002836,-0.00002761,-0.00004678,0.00011
 529,-0.00001046,0.00000503,-0.00008236,-0.00002071,0.00001610,0.000015
 29,-0.00010279,0.00011269,-0.00014169,0.00008802,-0.00009601,0.1597756
 4,-0.00017063,0.00005924,-0.00026702,0.00002601,-0.00002665,0.00005186
 ,0.00034498,-0.00048841,0.00045952,-0.00000458,0.00006668,0.00022374,0
 .00000438,0.00000450,0.00004793,-0.00170939,0.00028539,0.00029738,-0.0
 0004755,-0.00042344,0.00017977,-0.00001285,-0.00015521,-0.00001474,-0.
 00016826,0.00015890,0.00000254,0.00002783,-0.00000331,-0.00003911,0.00
 000933,-0.00001704,-0.00002682,0.00003581,-0.00002054,-0.00000429,-0.0
 0017155,0.00002564,-0.00011786,0.00001814,0.00001262,-0.00000998,0.000
 01068,0.00001389,-0.00001178,0.00015915,0.00005549,0.00013999,-0.00006
 786,0.00002282,0.00003001,-0.00123820,0.00095396,0.00037399,0.00425378
 ,0.00117644,0.00295080,-0.00221956,0.00062805,0.00080912,-0.00003159,-
 0.00003080,0.00008434,0.00001801,-0.00000279,0.00001598,0.00013906,-0.
 00008676,-0.00005300,0.00014952,-0.00007320,-0.00000514,-0.00005245,0.
 00004661,-0.00000991,0.00003204,-0.00003022,-0.00000973,-0.00013406,0.
 00006720,0.00000316,0.00001148,0.00000238,0.00001166,0.00002203,-0.000
 00450,-0.00000227,-0.00004234,0.00000599,-0.00003016,0.00000493,0.0000
 1993,0.00001496,-0.00003126,0.00001021,-0.00001074,0.00009872,-0.00001
 410,-0.00003919,-0.00003515,0.00002056,-0.00000366,0.00000421,-0.00005
 617,0.00006723,0.00012069,0.00002910,-0.00016673,0.00000493,0.00003353
 ,-0.00004791,-0.00005933,-0.00002715,0.00006934,0.00009371,-0.00005394
 ,0.00002651,-0.00016041,-0.00002218,0.00044704,0.00004019,-0.00006879,
 0.00006202,-0.05407591,-0.03304453,0.04104887,-0.00023644,-0.00062873,
 0.00112578,0.00060242,0.00210655,-0.00211485,-0.00115927,0.00055180,0.
 00056336,-0.00013899,-0.00013706,-0.00041637,0.00161505,0.00014348,-0.
 00022092,-0.00002698,0.00033144,0.00031354,0.00000850,-0.00001592,-0.0
 0003811,0.00013898,0.00001765,-0.00010363,-0.00001953,-0.00006608,0.00
 006636,-0.00004555,0.00002197,0.00000672,-0.00000304,0.00003984,-0.000
 03356,0.00006179,-0.00000984,0.00001579,0.00000512,-0.00000776,-0.0000
 0749,-0.00002146,-0.00000380,-0.00002776,0.00005039,-0.00001356,0.0000
 6041,-0.00002417,-0.00001223,-0.00001116,0.00000172,-0.00002846,0.0000
 3419,-0.00003448,0.00002900,-0.00002686,0.05402923,0.02863229,0.000323
 11,-0.00037438,0.00024888,-0.00006148,0.00002834,-0.00011826,-0.000536
 33,0.00009880,-0.00031035,-0.00023584,-0.00012338,-0.00019287,-0.00003
 667,0.00007674,-0.00007888,0.00381349,0.00089750,-0.00003138,-0.000610
 91,0.00045470,0.00039776,0.00007044,0.00008871,-0.00014018,0.00044635,
 -0.00001810,0.00025889,-0.00009412,-0.00003811,0.00007156,-0.00005554,
 -0.00000625,0.00000593,-0.00003651,0.00006290,-0.00000400,0.00021217,0
 .00025879,-0.00004914,-0.00003323,-0.00000539,0.00002684,-0.00002454,-
 0.00001612,0.00002459,0.00021859,-0.00057785,0.00009119,0.00007515,-0.
 00000917,-0.00009977,0.00052874,-0.00014137,0.00011060,0.00408164,0.00
 128026,-0.00863531,-0.00076756,0.00326210,-0.00024934,0.00004841,0.000
 03973,-0.00003678,-0.00000353,-0.00002256,-0.00003429,-0.00014271,0.00
 008696,0.00008130,-0.00026889,0.00002441,0.00009227,0.00008591,-0.0000
 2491,-0.00000140,-0.00010387,-0.00002175,0.00004098,0.00034149,-0.0000
 7532,-0.00007234,-0.00001840,-0.00000262,-0.00002037,-0.00003943,0.000
 01511,0.00000211,0.00010705,-0.00002278,0.00005256,-0.00001079,-0.0000
 3523,-0.00003902,0.00003836,-0.00000378,0.00001553,-0.00015523,-0.0000
 0598,0.00012604,0.00006144,-0.00005164,0.00000714,-0.00001849,0.000075
 74,-0.00011943,-0.00016564,-0.00001267,0.00019341,0.00001780,-0.000112
 23,0.00003355,-0.00000398,-0.00002347,0.00004753,-0.00010873,0.0000107
 0,0.00011236,-0.00030034,-0.00009719,-0.00105298,-0.00011468,0.0001353
 4,-0.00017182,0.11627381,0.04265829,-0.10769548,0.00072981,0.00053073,
 0.00068113,0.00136844,-0.00280185,-0.00030562,0.00292372,0.00003888,-0
 .00143157,-0.00018220,0.00033371,0.00003183,-0.00338012,-0.00020963,0.
 00128312,0.00020948,0.00010124,-0.00033928,-0.00009170,-0.00000320,-0.
 00003253,-0.00031399,-0.00006430,0.00022994,-0.00004254,0.00010714,-0.
 00015709,0.00009381,-0.00004787,0.00001275,0.00001544,-0.00005920,0.00
 006030,-0.00011515,-0.00000394,-0.00004770,-0.00002787,-0.00000291,0.0
 0002239,0.00004582,0.00001521,0.00006421,-0.00013768,0.00003352,-0.000
 09555,0.00006710,0.00002786,0.00000728,-0.00001024,0.00008236,-0.00009
 532,0.00010086,-0.00007746,0.00007697,-0.12404951,-0.04573316,0.117147
 12\\0.00000914,-0.00000237,0.00001362,-0.00000385,0.00000608,0.0000069
 5,-0.00000416,-0.00000010,-0.00000331,-0.00000254,0.00000742,-0.000000
 69,-0.00000866,0.00000285,0.00000370,-0.00000628,-0.00000526,-0.000001
 01,-0.00000162,0.00000066,0.00000101,0.00000157,0.00000196,-0.00000648
 ,0.00000537,0.00000121,-0.00001548,-0.00000547,-0.00000635,0.00000297,
 0.00001043,0.00000157,-0.00000319,-0.00000491,-0.00000792,-0.00000358,
 0.00000446,0.00000666,-0.00000127,-0.00000307,-0.00000701,0.00000258,-
 0.00000412,0.00001534,0.00000923,0.00000215,0.00000303,-0.00000093,0.0
 0000394,-0.00000239,0.00000508,0.00000571,-0.00000029,0.00000948,-0.00
 000391,-0.00000089,0.00000328,0.00000261,-0.00000036,0.00000154,0.0000
 3266,0.00000206,-0.00001645,-0.00000202,-0.00000629,0.00000491,-0.0000
 1065,-0.00000056,0.00000201,-0.00000822,0.00000655,0.00000441,-0.00000
 284,-0.00000151,0.00000126,0.00000679,0.00000198,0.00000512,-0.0000215
 8,-0.00003382,0.00002235,0.00000109,0.00000729,-0.00000133,0.00000693,
 0.00000109,-0.00000663,-0.00000813,-0.00001028,0.00000230,-0.00000372,
 0.00001074,-0.00001101,0.00000907,-0.00000025,-0.00000380,-0.00000457,
 -0.00000738,-0.00000169,0.00000128,-0.00000037,0.00000065,-0.00000395,
 -0.00000321,-0.00000137,0.00000241,0.00000524,0.00000571,-0.00000321,0
 .00000043,0.00000180,0.00000398,0.00000334,0.00000036,-0.00000091,0.00
 001079,-0.00000664,0.00000825,-0.00000968,-0.00000605,-0.00000441,-0.0
 0000029,0.00000179,-0.00000558,0.00000037,-0.00000675,-0.00000103,0.00
 000272,0.00000478,0.00000035,0.00000020,0.00000392,0.00000163,-0.00000
 425,-0.00000138,0.00000176,-0.00000091,-0.00000336,-0.00000177,0.00000
 171,-0.00000086,0.00000720,0.00000596,0.00000208,0.00000158,-0.0000037
 9,-0.00000010,-0.00000139,0.00000588,0.00000148,-0.00000595,-0.0000022
 6,-0.00000356,0.00000341,0.00000658,0.00000730,0.00001108,-0.00000007,
 -0.00000547,-0.00004621,-0.00001245,-0.00001706,0.00001667,-0.00000166
 ,-0.00000622,-0.00000957,0.00000151,0.00000109,0.00002637,0.00000778,-
 0.00000317,0.00000157,0.00000219,0.00000529,0.00000227,-0.00000041,-0.
 00000106,0.00000057,-0.00000102,-0.00000132,0.00000203,0.00000219,0.00
 000316\\\@
 The archive entry for this job was punched.


 A COMPUTER IS LIKE A HORSE, IT WILL SENSE WEAKNESS.
     -- GREG WETTSTEIN
 Job cpu time:       4 days 12 hours 39 minutes 24.7 seconds.
 Elapsed time:       0 days  3 hours 53 minutes 36.5 seconds.
 File lengths (MBytes):  RWF=  12077 Int=      0 D2E=      0 Chk=    127 Scr=      2
 Normal termination of Gaussian 16 at Wed Feb  8 01:04:09 2023.
