 Entering Gaussian System, Link 0=/apps/GAU16/avx2/g16/g16
 Initial command:
 /apps/GAU16/avx2//g16/l1.exe "/localscratch/chegho/Gau-175397.inp" -scrdir="/localscratch/chegho/"
 Entering Link 1 = /apps/GAU16/avx2//g16/l1.exe PID=    175398.
  
 Copyright (c) 1988-2019, Gaussian, Inc.  All Rights Reserved.
  
 This is part of the Gaussian(R) 16 program.  It is based on
 the Gaussian(R) 09 system (copyright 2009, Gaussian, Inc.),
 the Gaussian(R) 03 system (copyright 2003, Gaussian, Inc.),
 the Gaussian(R) 98 system (copyright 1998, Gaussian, Inc.),
 the Gaussian(R) 94 system (copyright 1995, Gaussian, Inc.),
 the Gaussian 92(TM) system (copyright 1992, Gaussian, Inc.),
 the Gaussian 90(TM) system (copyright 1990, Gaussian, Inc.),
 the Gaussian 88(TM) system (copyright 1988, Gaussian, Inc.),
 the Gaussian 86(TM) system (copyright 1986, Carnegie Mellon
 University), and the Gaussian 82(TM) system (copyright 1983,
 Carnegie Mellon University). Gaussian is a federally registered
 trademark of Gaussian, Inc.
  
 This software contains proprietary and confidential information,
 including trade secrets, belonging to Gaussian, Inc.
  
 This software is provided under written license and may be
 used, copied, transmitted, or stored only in accord with that
 written license.
  
 The following legend is applicable only to US Government
 contracts under FAR:
  
                    RESTRICTED RIGHTS LEGEND
  
 Use, reproduction and disclosure by the US Government is
 subject to restrictions as set forth in subparagraphs (a)
 and (c) of the Commercial Computer Software - Restricted
 Rights clause in FAR 52.227-19.
  
 Gaussian, Inc.
 340 Quinnipiac St., Bldg. 40, Wallingford CT 06492
  
  
 ---------------------------------------------------------------
 Warning -- This program may not be used in any manner that
 competes with the business of Gaussian, Inc. or will provide
 assistance to any competitor of Gaussian, Inc.  The licensee
 of this program is prohibited from giving any competitor of
 Gaussian, Inc. access to this program.  By using this program,
 the user acknowledges that Gaussian, Inc. is engaged in the
 business of creating and licensing software in the field of
 computational chemistry and represents and warrants to the
 licensee that it is not a competitor of Gaussian, Inc. and that
 it will not use this program in any manner prohibited above.
 ---------------------------------------------------------------
  

 Cite this work as:
 Gaussian 16, Revision C.01,
 M. J. Frisch, G. W. Trucks, H. B. Schlegel, G. E. Scuseria, 
 M. A. Robb, J. R. Cheeseman, G. Scalmani, V. Barone, 
 G. A. Petersson, H. Nakatsuji, X. Li, M. Caricato, A. V. Marenich, 
 J. Bloino, B. G. Janesko, R. Gomperts, B. Mennucci, H. P. Hratchian, 
 J. V. Ortiz, A. F. Izmaylov, J. L. Sonnenberg, D. Williams-Young, 
 F. Ding, F. Lipparini, F. Egidi, J. Goings, B. Peng, A. Petrone, 
 T. Henderson, D. Ranasinghe, V. G. Zakrzewski, J. Gao, N. Rega, 
 G. Zheng, W. Liang, M. Hada, M. Ehara, K. Toyota, R. Fukuda, 
 J. Hasegawa, M. Ishida, T. Nakajima, Y. Honda, O. Kitao, H. Nakai, 
 T. Vreven, K. Throssell, J. A. Montgomery, Jr., J. E. Peralta, 
 F. Ogliaro, M. J. Bearpark, J. J. Heyd, E. N. Brothers, K. N. Kudin, 
 V. N. Staroverov, T. A. Keith, R. Kobayashi, J. Normand, 
 K. Raghavachari, A. P. Rendell, J. C. Burant, S. S. Iyengar, 
 J. Tomasi, M. Cossi, J. M. Millam, M. Klene, C. Adamo, R. Cammi, 
 J. W. Ochterski, R. L. Martin, K. Morokuma, O. Farkas, 
 J. B. Foresman, and D. J. Fox, Gaussian, Inc., Wallingford CT, 2019.
 
 ******************************************
 Gaussian 16:  ES64L-G16RevC.01  3-Jul-2019
                13-Feb-2023 
 ******************************************
 %nprocshared=48
 Will use up to   48 processors via shared memory.
 %chk=i3_1_16_min.chk
 %mem=100GB
 ---------------------------------------------------------
 # opt freq b3lyp/gen nosymm pseudo=read scf=maxcycles=500
 ---------------------------------------------------------
 1/18=20,19=15,26=3,38=1/1,3;
 2/9=110,12=2,15=1,17=6,18=5,40=1/2;
 3/5=7,11=2,16=1,17=8,25=1,30=1,71=1,74=-5/1,2,3;
 4//1;
 5/5=2,7=500,38=5/2;
 6/7=2,8=2,9=2,10=2,28=1/1;
 7/30=1/1,2,3,16;
 1/18=20,19=15,26=3/3(2);
 2/9=110,15=1/2;
 99//99;
 2/9=110,15=1/2;
 3/5=7,6=1,11=2,16=1,17=8,25=1,30=1,71=1,74=-5,82=7/1,2,3;
 4/5=5,16=3,69=1/1;
 5/5=2,7=500,38=5/2;
 7/30=1/1,2,3,16;
 1/18=20,19=15,26=3/3(-5);
 2/9=110,15=1/2;
 6/7=2,8=2,9=2,10=2,19=2,28=1/1;
 99/9=1/99;
 -------------------
 Title Card Required
 -------------------
 Symbolic Z-matrix:
 Charge =  0 Multiplicity = 1
 42                    0.25481   1.37285   12.6359 
 16                    2.31549   2.20702   13.63104 
 16                   -0.72047   2.18661   14.84203 
 16                   -0.5517    1.00815   10.36946 
 16                    1.84331  -0.41483   12.06834 
 42                   -2.08992   2.72736   11.06149 
 16                   -2.94371   2.44213   8.76579 
 16                   -0.10944   3.68152   12.0543 
 42                    0.85148   2.96242   9.91781 
 16                    0.08251   2.75988   7.60689 
 16                    2.38154   1.16068   9.26061 
 42                    3.26979   1.48145   11.51064 
 42                   -1.56085   4.38353   8.30587 
 16                    5.27454   2.54885   12.4044 
 16                    2.91284   3.81229   10.84054 
 16                   -2.46476   5.06455   10.46235 
 16                    0.75185   7.1609    6.72451 
 42                   -4.43412   4.15474   9.51069 
 16                   -5.90375   2.1393    9.79058 
 16                   -5.52282   4.79852   11.42829 
 42                    2.61551  -0.11294   14.36735 
 16                    4.61125  -1.2023    14.57393 
 16                    1.79759   0.73321   16.35788 
 42                    1.46844   4.76054   7.26231 
 16                    0.81078   4.6475    4.87824 
 16                    0.46146   5.32687   9.35154 
 42                    3.95147   2.97882   8.81708 
 16                    3.09307   2.95844   6.58913 
 16                    5.43536   4.9577    9.14743 
 42                    4.59283   4.71061   6.84527 
 16                    6.75404   3.77479   6.01432 
 16                    3.37687   6.61808   7.35706 
 42                    2.46704   6.38972   5.02866 
 16                    4.31653   5.25014   4.42208 
 16                   -1.45295   7.25046   3.94562 
 42                   -1.09226   6.0724    5.65662 
 16                   -2.39683   4.00298   5.83076 
 16                   -2.22273   6.80355   7.69594 
 42                   -3.89069   5.66646   6.50208 
 16                   -5.67313   4.7479    7.62382 
 16                   -4.68634   6.7939    4.90787 
 42                   -5.21652   2.36433   11.92247 
 16                   -3.3032    3.36664   13.16595 
 16                   -3.51673   0.69636   11.62174 
 42                   -2.61812   1.08319   13.90276 
 16                   -1.1696   -0.66145   13.18124 
 16                   -4.07113   0.45361   15.29992 
 42                   -0.30078  -0.137     15.36823 
 16                    1.25932  -1.94605   14.73028 
 16                   -1.25575  -0.99776   17.05165 
 42                    5.88485   0.42985   13.36558 
 16                    4.7527   -0.37842   11.09287 
 16                    7.59304  -0.11427   11.89053 
 42                    6.24989   1.43741   10.56124 
 16                    5.49318   1.21125   8.29511 
 16                    8.14127   2.83555   10.343 
 42                    6.77945   3.20415   8.52528 
 16                    8.43956   4.24168   7.21113 
 16                    2.21888   7.98982   3.65617 
 16                    6.94938   1.27215   15.0038 
 16                   -6.85193   1.71574   13.10072 
 

 GradGradGradGradGradGradGradGradGradGradGradGradGradGradGradGradGradGrad
 Berny optimization.
 Initialization pass.
                           ----------------------------
                           !    Initial Parameters    !
                           ! (Angstroms and Degrees)  !
 --------------------------                            --------------------------
 ! Name  Definition              Value          Derivative Info.                !
 --------------------------------------------------------------------------------
 ! R1    R(1,2)                  2.4357         estimate D2E/DX2                !
 ! R2    R(1,3)                  2.5457         estimate D2E/DX2                !
 ! R3    R(1,4)                  2.4331         estimate D2E/DX2                !
 ! R4    R(1,5)                  2.4579         estimate D2E/DX2                !
 ! R5    R(1,8)                  2.4085         estimate D2E/DX2                !
 ! R6    R(1,46)                 2.5426         estimate D2E/DX2                !
 ! R7    R(2,12)                 2.4358         estimate D2E/DX2                !
 ! R8    R(2,21)                 2.4524         estimate D2E/DX2                !
 ! R9    R(3,45)                 2.3876         estimate D2E/DX2                !
 ! R10   R(3,48)                 2.4191         estimate D2E/DX2                !
 ! R11   R(4,6)                  2.4085         estimate D2E/DX2                !
 ! R12   R(4,9)                  2.4479         estimate D2E/DX2                !
 ! R13   R(5,12)                 2.4376         estimate D2E/DX2                !
 ! R14   R(5,21)                 2.4439         estimate D2E/DX2                !
 ! R15   R(6,7)                  2.4659         estimate D2E/DX2                !
 ! R16   R(6,8)                  2.4121         estimate D2E/DX2                !
 ! R17   R(6,16)                 2.4417         estimate D2E/DX2                !
 ! R18   R(6,43)                 2.5119         estimate D2E/DX2                !
 ! R19   R(6,44)                 2.5445         estimate D2E/DX2                !
 ! R20   R(7,13)                 2.4275         estimate D2E/DX2                !
 ! R21   R(7,18)                 2.3894         estimate D2E/DX2                !
 ! R22   R(8,9)                  2.4505         estimate D2E/DX2                !
 ! R23   R(9,10)                 2.4439         estimate D2E/DX2                !
 ! R24   R(9,11)                 2.4534         estimate D2E/DX2                !
 ! R25   R(9,15)                 2.4131         estimate D2E/DX2                !
 ! R26   R(9,26)                 2.4624         estimate D2E/DX2                !
 ! R27   R(10,13)                2.4136         estimate D2E/DX2                !
 ! R28   R(10,24)                2.4581         estimate D2E/DX2                !
 ! R29   R(11,12)                2.4402         estimate D2E/DX2                !
 ! R30   R(11,27)                2.4427         estimate D2E/DX2                !
 ! R31   R(12,14)                2.4407         estimate D2E/DX2                !
 ! R32   R(12,15)                2.4514         estimate D2E/DX2                !
 ! R33   R(12,52)                2.4151         estimate D2E/DX2                !
 ! R34   R(13,16)                2.4354         estimate D2E/DX2                !
 ! R35   R(13,26)                2.4643         estimate D2E/DX2                !
 ! R36   R(13,37)                2.6401         estimate D2E/DX2                !
 ! R37   R(13,38)                2.582          estimate D2E/DX2                !
 ! R38   R(14,51)                2.4055         estimate D2E/DX2                !
 ! R39   R(14,54)                2.363          estimate D2E/DX2                !
 ! R40   R(15,27)                2.4224         estimate D2E/DX2                !
 ! R41   R(16,18)                2.3689         estimate D2E/DX2                !
 ! R42   R(17,24)                2.5621         estimate D2E/DX2                !
 ! R43   R(17,33)                2.5323         estimate D2E/DX2                !
 ! R44   R(17,36)                2.3929         estimate D2E/DX2                !
 ! R45   R(18,19)                2.51           estimate D2E/DX2                !
 ! R46   R(18,20)                2.2972         estimate D2E/DX2                !
 ! R47   R(18,40)                2.3339         estimate D2E/DX2                !
 ! R48   R(18,42)                3.1039         estimate D2E/DX2                !
 ! R49   R(19,42)                2.2512         estimate D2E/DX2                !
 ! R50   R(20,42)                2.5027         estimate D2E/DX2                !
 ! R51   R(21,22)                2.2831         estimate D2E/DX2                !
 ! R52   R(21,23)                2.3124         estimate D2E/DX2                !
 ! R53   R(21,48)                3.0833         estimate D2E/DX2                !
 ! R54   R(21,49)                2.3089         estimate D2E/DX2                !
 ! R55   R(22,51)                2.3971         estimate D2E/DX2                !
 ! R56   R(23,48)                2.4779         estimate D2E/DX2                !
 ! R57   R(24,25)                2.4757         estimate D2E/DX2                !
 ! R58   R(24,26)                2.3874         estimate D2E/DX2                !
 ! R59   R(24,28)                2.518          estimate D2E/DX2                !
 ! R60   R(24,32)                2.6649         estimate D2E/DX2                !
 ! R61   R(24,33)                2.9395         estimate D2E/DX2                !
 ! R62   R(25,33)                2.4086         estimate D2E/DX2                !
 ! R63   R(25,36)                2.5015         estimate D2E/DX2                !
 ! R64   R(27,28)                2.3877         estimate D2E/DX2                !
 ! R65   R(27,29)                2.4954         estimate D2E/DX2                !
 ! R66   R(27,30)                2.7016         estimate D2E/DX2                !
 ! R67   R(27,55)                2.4028         estimate D2E/DX2                !
 ! R68   R(27,57)                2.8519         estimate D2E/DX2                !
 ! R69   R(28,30)                2.3206         estimate D2E/DX2                !
 ! R70   R(29,30)                2.4639         estimate D2E/DX2                !
 ! R71   R(29,57)                2.2953         estimate D2E/DX2                !
 ! R72   R(30,31)                2.4974         estimate D2E/DX2                !
 ! R73   R(30,32)                2.3193         estimate D2E/DX2                !
 ! R74   R(30,34)                2.4979         estimate D2E/DX2                !
 ! R75   R(31,57)                2.5751         estimate D2E/DX2                !
 ! R76   R(31,58)                2.1193         estimate D2E/DX2                !
 ! R77   R(32,33)                2.5103         estimate D2E/DX2                !
 ! R78   R(33,34)                2.2555         estimate D2E/DX2                !
 ! R79   R(33,59)                2.1226         estimate D2E/DX2                !
 ! R80   R(35,36)                2.1084         estimate D2E/DX2                !
 ! R81   R(36,37)                2.4525         estimate D2E/DX2                !
 ! R82   R(36,38)                2.4436         estimate D2E/DX2                !
 ! R83   R(36,39)                2.9514         estimate D2E/DX2                !
 ! R84   R(37,39)                2.3344         estimate D2E/DX2                !
 ! R85   R(38,39)                2.3453         estimate D2E/DX2                !
 ! R86   R(39,40)                2.2976         estimate D2E/DX2                !
 ! R87   R(39,41)                2.1085         estimate D2E/DX2                !
 ! R88   R(42,43)                2.4923         estimate D2E/DX2                !
 ! R89   R(42,44)                2.4004         estimate D2E/DX2                !
 ! R90   R(42,61)                2.1174         estimate D2E/DX2                !
 ! R91   R(43,45)                2.4953         estimate D2E/DX2                !
 ! R92   R(44,45)                2.482          estimate D2E/DX2                !
 ! R93   R(45,46)                2.3796         estimate D2E/DX2                !
 ! R94   R(45,47)                2.1118         estimate D2E/DX2                !
 ! R95   R(45,48)                3.0011         estimate D2E/DX2                !
 ! R96   R(46,48)                2.411          estimate D2E/DX2                !
 ! R97   R(48,49)                2.4726         estimate D2E/DX2                !
 ! R98   R(48,50)                2.1182         estimate D2E/DX2                !
 ! R99   R(51,52)                2.6646         estimate D2E/DX2                !
 ! R100  R(51,53)                2.3216         estimate D2E/DX2                !
 ! R101  R(51,54)                3.0021         estimate D2E/DX2                !
 ! R102  R(51,60)                2.1275         estimate D2E/DX2                !
 ! R103  R(52,54)                2.4128         estimate D2E/DX2                !
 ! R104  R(53,54)                2.4451         estimate D2E/DX2                !
 ! R105  R(54,55)                2.3998         estimate D2E/DX2                !
 ! R106  R(54,56)                2.3621         estimate D2E/DX2                !
 ! R107  R(54,57)                2.7472         estimate D2E/DX2                !
 ! R108  R(55,57)                2.3831         estimate D2E/DX2                !
 ! R109  R(56,57)                2.301          estimate D2E/DX2                !
 ! R110  R(57,58)                2.3578         estimate D2E/DX2                !
 ! A1    A(2,1,3)               81.9857         estimate D2E/DX2                !
 ! A2    A(2,1,4)              135.4258         estimate D2E/DX2                !
 ! A3    A(2,1,5)               78.2672         estimate D2E/DX2                !
 ! A4    A(2,1,8)               84.1646         estimate D2E/DX2                !
 ! A5    A(2,1,46)             131.3269         estimate D2E/DX2                !
 ! A6    A(3,1,4)              136.7331         estimate D2E/DX2                !
 ! A7    A(3,1,5)              132.8605         estimate D2E/DX2                !
 ! A8    A(3,1,8)               81.0783         estimate D2E/DX2                !
 ! A9    A(3,1,46)              81.6777         estimate D2E/DX2                !
 ! A10   A(4,1,5)               83.6913         estimate D2E/DX2                !
 ! A11   A(4,1,8)               82.4502         estimate D2E/DX2                !
 ! A12   A(4,1,46)              83.9247         estimate D2E/DX2                !
 ! A13   A(5,1,8)              137.6593         estimate D2E/DX2                !
 ! A14   A(5,1,46)              80.1927         estimate D2E/DX2                !
 ! A15   A(8,1,46)             137.2224         estimate D2E/DX2                !
 ! A16   A(1,2,12)              82.7492         estimate D2E/DX2                !
 ! A17   A(1,2,21)              84.3869         estimate D2E/DX2                !
 ! A18   A(12,2,21)             86.0806         estimate D2E/DX2                !
 ! A19   A(1,3,45)              79.3879         estimate D2E/DX2                !
 ! A20   A(1,3,48)              79.3385         estimate D2E/DX2                !
 ! A21   A(1,4,6)               80.6226         estimate D2E/DX2                !
 ! A22   A(1,4,9)               82.0793         estimate D2E/DX2                !
 ! A23   A(6,4,9)               81.3288         estimate D2E/DX2                !
 ! A24   A(1,5,12)              82.2547         estimate D2E/DX2                !
 ! A25   A(1,5,21)              84.0961         estimate D2E/DX2                !
 ! A26   A(12,5,21)             86.2288         estimate D2E/DX2                !
 ! A27   A(4,6,7)               82.592          estimate D2E/DX2                !
 ! A28   A(4,6,8)               82.891          estimate D2E/DX2                !
 ! A29   A(4,6,16)             135.3007         estimate D2E/DX2                !
 ! A30   A(4,6,43)             136.9608         estimate D2E/DX2                !
 ! A31   A(4,6,44)              81.4675         estimate D2E/DX2                !
 ! A32   A(7,6,8)              135.4977         estimate D2E/DX2                !
 ! A33   A(7,6,16)              80.1615         estimate D2E/DX2                !
 ! A34   A(7,6,43)             129.955          estimate D2E/DX2                !
 ! A35   A(7,6,44)              85.3256         estimate D2E/DX2                !
 ! A36   A(8,6,16)              81.2805         estimate D2E/DX2                !
 ! A37   A(8,6,43)              87.1957         estimate D2E/DX2                !
 ! A38   A(8,6,44)             133.2749         estimate D2E/DX2                !
 ! A39   A(16,6,43)             83.5588         estimate D2E/DX2                !
 ! A40   A(16,6,44)            137.0514         estimate D2E/DX2                !
 ! A41   A(43,6,44)             75.3939         estimate D2E/DX2                !
 ! A42   A(6,7,13)              83.4906         estimate D2E/DX2                !
 ! A43   A(6,7,18)              80.957          estimate D2E/DX2                !
 ! A44   A(13,7,18)             80.8611         estimate D2E/DX2                !
 ! A45   A(1,8,6)               81.0481         estimate D2E/DX2                !
 ! A46   A(1,8,9)               82.5274         estimate D2E/DX2                !
 ! A47   A(6,8,9)               81.2012         estimate D2E/DX2                !
 ! A48   A(4,9,8)               81.2937         estimate D2E/DX2                !
 ! A49   A(4,9,10)              85.8677         estimate D2E/DX2                !
 ! A50   A(4,9,11)              79.6663         estimate D2E/DX2                !
 ! A51   A(4,9,15)             134.4507         estimate D2E/DX2                !
 ! A52   A(4,9,26)             135.909          estimate D2E/DX2                !
 ! A53   A(8,9,10)             136.4975         estimate D2E/DX2                !
 ! A54   A(8,9,11)             133.9152         estimate D2E/DX2                !
 ! A55   A(8,9,15)              84.1592         estimate D2E/DX2                !
 ! A56   A(8,9,26)              81.7561         estimate D2E/DX2                !
 ! A57   A(10,9,11)             83.2276         estimate D2E/DX2                !
 ! A58   A(10,9,15)            131.2663         estimate D2E/DX2                !
 ! A59   A(10,9,26)             79.1808         estimate D2E/DX2                !
 ! A60   A(11,9,15)             80.1149         estimate D2E/DX2                !
 ! A61   A(11,9,26)            137.9316         estimate D2E/DX2                !
 ! A62   A(15,9,26)             83.3998         estimate D2E/DX2                !
 ! A63   A(9,10,13)             83.3757         estimate D2E/DX2                !
 ! A64   A(9,10,24)             83.5518         estimate D2E/DX2                !
 ! A65   A(13,10,24)            82.9327         estimate D2E/DX2                !
 ! A66   A(9,11,12)             83.3089         estimate D2E/DX2                !
 ! A67   A(9,11,27)             84.4248         estimate D2E/DX2                !
 ! A68   A(12,11,27)            80.5397         estimate D2E/DX2                !
 ! A69   A(2,12,5)              78.6554         estimate D2E/DX2                !
 ! A70   A(2,12,11)            134.3639         estimate D2E/DX2                !
 ! A71   A(2,12,14)             82.69           estimate D2E/DX2                !
 ! A72   A(2,12,15)             84.1273         estimate D2E/DX2                !
 ! A73   A(2,12,52)            128.3554         estimate D2E/DX2                !
 ! A74   A(5,12,11)             84.0122         estimate D2E/DX2                !
 ! A75   A(5,12,14)            137.4855         estimate D2E/DX2                !
 ! A76   A(5,12,15)            135.8084         estimate D2E/DX2                !
 ! A77   A(5,12,52)             78.4521         estimate D2E/DX2                !
 ! A78   A(11,12,14)           133.9573         estimate D2E/DX2                !
 ! A79   A(11,12,15)            79.626          estimate D2E/DX2                !
 ! A80   A(11,12,52)            87.8667         estimate D2E/DX2                !
 ! A81   A(14,12,15)            78.6897         estimate D2E/DX2                !
 ! A82   A(14,12,52)            84.0185         estimate D2E/DX2                !
 ! A83   A(15,12,52)           140.7469         estimate D2E/DX2                !
 ! A84   A(7,13,10)             84.5335         estimate D2E/DX2                !
 ! A85   A(7,13,16)             81.051          estimate D2E/DX2                !
 ! A86   A(7,13,26)            133.8859         estimate D2E/DX2                !
 ! A87   A(7,13,37)             83.2208         estimate D2E/DX2                !
 ! A88   A(7,13,38)            130.4138         estimate D2E/DX2                !
 ! A89   A(10,13,16)           134.207          estimate D2E/DX2                !
 ! A90   A(10,13,26)            79.7264         estimate D2E/DX2                !
 ! A91   A(10,13,37)            81.2063         estimate D2E/DX2                !
 ! A92   A(10,13,38)           137.4464         estimate D2E/DX2                !
 ! A93   A(16,13,26)            79.7361         estimate D2E/DX2                !
 ! A94   A(16,13,37)           138.8446         estimate D2E/DX2                !
 ! A95   A(16,13,38)            81.4852         estimate D2E/DX2                !
 ! A96   A(26,13,37)           135.4664         estimate D2E/DX2                !
 ! A97   A(26,13,38)            87.2384         estimate D2E/DX2                !
 ! A98   A(37,13,38)            80.3553         estimate D2E/DX2                !
 ! A99   A(12,14,51)            88.2505         estimate D2E/DX2                !
 ! A100  A(12,14,54)            81.2401         estimate D2E/DX2                !
 ! A101  A(9,15,12)             83.9178         estimate D2E/DX2                !
 ! A102  A(9,15,27)             85.7373         estimate D2E/DX2                !
 ! A103  A(12,15,27)            80.7206         estimate D2E/DX2                !
 ! A104  A(6,16,13)             83.8363         estimate D2E/DX2                !
 ! A105  A(6,16,18)             81.8695         estimate D2E/DX2                !
 ! A106  A(13,16,18)            81.1086         estimate D2E/DX2                !
 ! A107  A(24,17,36)            83.2836         estimate D2E/DX2                !
 ! A108  A(33,17,36)            94.8525         estimate D2E/DX2                !
 ! A109  A(7,18,16)             83.2216         estimate D2E/DX2                !
 ! A110  A(7,18,19)             79.8894         estimate D2E/DX2                !
 ! A111  A(7,18,20)            139.1769         estimate D2E/DX2                !
 ! A112  A(7,18,40)            105.1447         estimate D2E/DX2                !
 ! A113  A(7,18,42)             89.1993         estimate D2E/DX2                !
 ! A114  A(16,18,19)           138.6198         estimate D2E/DX2                !
 ! A115  A(16,18,20)            87.192          estimate D2E/DX2                !
 ! A116  A(16,18,40)           131.9511         estimate D2E/DX2                !
 ! A117  A(16,18,42)            96.831          estimate D2E/DX2                !
 ! A118  A(19,18,20)            81.6309         estimate D2E/DX2                !
 ! A119  A(19,18,40)            89.0484         estimate D2E/DX2                !
 ! A120  A(20,18,40)           110.6128         estimate D2E/DX2                !
 ! A121  A(40,18,42)           129.8628         estimate D2E/DX2                !
 ! A122  A(2,21,5)              78.2152         estimate D2E/DX2                !
 ! A123  A(2,21,22)            125.837          estimate D2E/DX2                !
 ! A124  A(2,21,23)             82.4739         estimate D2E/DX2                !
 ! A125  A(2,21,48)             89.3774         estimate D2E/DX2                !
 ! A126  A(2,21,49)            136.583          estimate D2E/DX2                !
 ! A127  A(5,21,22)            107.6003         estimate D2E/DX2                !
 ! A128  A(5,21,23)            138.0048         estimate D2E/DX2                !
 ! A129  A(5,21,48)             90.318          estimate D2E/DX2                !
 ! A130  A(5,21,49)             82.1957         estimate D2E/DX2                !
 ! A131  A(22,21,23)           113.9479         estimate D2E/DX2                !
 ! A132  A(22,21,48)           142.5321         estimate D2E/DX2                !
 ! A133  A(22,21,49)            96.9154         estimate D2E/DX2                !
 ! A134  A(23,21,49)            86.9878         estimate D2E/DX2                !
 ! A135  A(21,22,51)            95.391          estimate D2E/DX2                !
 ! A136  A(10,24,17)           129.3647         estimate D2E/DX2                !
 ! A137  A(10,24,25)            87.0223         estimate D2E/DX2                !
 ! A138  A(10,24,26)            80.362          estimate D2E/DX2                !
 ! A139  A(10,24,28)            79.5576         estimate D2E/DX2                !
 ! A140  A(10,24,33)           138.5181         estimate D2E/DX2                !
 ! A141  A(17,24,25)            76.4876         estimate D2E/DX2                !
 ! A142  A(17,24,26)            80.9949         estimate D2E/DX2                !
 ! A143  A(17,24,28)           142.6413         estimate D2E/DX2                !
 ! A144  A(17,24,32)            63.5588         estimate D2E/DX2                !
 ! A145  A(25,24,26)           137.8596         estimate D2E/DX2                !
 ! A146  A(25,24,28)            83.181          estimate D2E/DX2                !
 ! A147  A(25,24,32)           104.8512         estimate D2E/DX2                !
 ! A148  A(26,24,28)           132.5228         estimate D2E/DX2                !
 ! A149  A(26,24,32)            96.0616         estimate D2E/DX2                !
 ! A150  A(26,24,33)           132.5934         estimate D2E/DX2                !
 ! A151  A(28,24,32)            92.6546         estimate D2E/DX2                !
 ! A152  A(28,24,33)            88.5287         estimate D2E/DX2                !
 ! A153  A(24,25,36)            82.9024         estimate D2E/DX2                !
 ! A154  A(33,25,36)            95.2601         estimate D2E/DX2                !
 ! A155  A(9,26,13)             81.9517         estimate D2E/DX2                !
 ! A156  A(9,26,24)             84.6441         estimate D2E/DX2                !
 ! A157  A(13,26,24)            83.339          estimate D2E/DX2                !
 ! A158  A(11,27,15)            80.1459         estimate D2E/DX2                !
 ! A159  A(11,27,28)            86.1018         estimate D2E/DX2                !
 ! A160  A(11,27,29)           161.5096         estimate D2E/DX2                !
 ! A161  A(11,27,30)           139.6602         estimate D2E/DX2                !
 ! A162  A(11,27,55)            84.5077         estimate D2E/DX2                !
 ! A163  A(11,27,57)           135.6171         estimate D2E/DX2                !
 ! A164  A(15,27,28)           128.92           estimate D2E/DX2                !
 ! A165  A(15,27,29)            82.6187         estimate D2E/DX2                !
 ! A166  A(15,27,30)           119.4007         estimate D2E/DX2                !
 ! A167  A(15,27,55)           135.2083         estimate D2E/DX2                !
 ! A168  A(15,27,57)           118.9113         estimate D2E/DX2                !
 ! A169  A(28,27,29)           110.1255         estimate D2E/DX2                !
 ! A170  A(28,27,55)            91.243          estimate D2E/DX2                !
 ! A171  A(28,27,57)           105.1706         estimate D2E/DX2                !
 ! A172  A(29,27,55)           103.3306         estimate D2E/DX2                !
 ! A173  A(30,27,55)            99.2461         estimate D2E/DX2                !
 ! A174  A(30,27,57)            68.8543         estimate D2E/DX2                !
 ! A175  A(24,28,27)            88.6469         estimate D2E/DX2                !
 ! A176  A(24,28,30)            81.2044         estimate D2E/DX2                !
 ! A177  A(30,29,57)            82.5514         estimate D2E/DX2                !
 ! A178  A(27,30,31)           102.0104         estimate D2E/DX2                !
 ! A179  A(27,30,32)           103.986          estimate D2E/DX2                !
 ! A180  A(27,30,34)           145.1108         estimate D2E/DX2                !
 ! A181  A(28,30,29)           113.569          estimate D2E/DX2                !
 ! A182  A(28,30,31)           103.8648         estimate D2E/DX2                !
 ! A183  A(28,30,32)           107.8493         estimate D2E/DX2                !
 ! A184  A(28,30,34)            89.1131         estimate D2E/DX2                !
 ! A185  A(29,30,31)            93.0121         estimate D2E/DX2                !
 ! A186  A(29,30,32)            83.7201         estimate D2E/DX2                !
 ! A187  A(29,30,34)           157.3071         estimate D2E/DX2                !
 ! A188  A(31,30,32)           146.6488         estimate D2E/DX2                !
 ! A189  A(31,30,34)            81.5983         estimate D2E/DX2                !
 ! A190  A(32,30,34)            88.764          estimate D2E/DX2                !
 ! A191  A(30,31,57)            76.5346         estimate D2E/DX2                !
 ! A192  A(30,31,58)           114.6966         estimate D2E/DX2                !
 ! A193  A(24,32,30)            78.1315         estimate D2E/DX2                !
 ! A194  A(30,32,33)            84.8666         estimate D2E/DX2                !
 ! A195  A(17,33,25)            78.2489         estimate D2E/DX2                !
 ! A196  A(17,33,32)            66.2101         estimate D2E/DX2                !
 ! A197  A(17,33,34)           152.7952         estimate D2E/DX2                !
 ! A198  A(17,33,59)            97.1381         estimate D2E/DX2                !
 ! A199  A(24,33,34)           101.7064         estimate D2E/DX2                !
 ! A200  A(24,33,59)           150.3904         estimate D2E/DX2                !
 ! A201  A(25,33,32)           111.8986         estimate D2E/DX2                !
 ! A202  A(25,33,34)           100.4637         estimate D2E/DX2                !
 ! A203  A(25,33,59)           115.119          estimate D2E/DX2                !
 ! A204  A(32,33,34)            89.8975         estimate D2E/DX2                !
 ! A205  A(32,33,59)           124.9981         estimate D2E/DX2                !
 ! A206  A(34,33,59)           107.6285         estimate D2E/DX2                !
 ! A207  A(30,34,33)            86.4996         estimate D2E/DX2                !
 ! A208  A(17,36,25)            79.1464         estimate D2E/DX2                !
 ! A209  A(17,36,35)           103.8762         estimate D2E/DX2                !
 ! A210  A(17,36,37)           139.6491         estimate D2E/DX2                !
 ! A211  A(17,36,38)            81.2561         estimate D2E/DX2                !
 ! A212  A(17,36,39)           131.7162         estimate D2E/DX2                !
 ! A213  A(25,36,35)           101.297          estimate D2E/DX2                !
 ! A214  A(25,36,37)            86.9117         estimate D2E/DX2                !
 ! A215  A(25,36,38)           141.4477         estimate D2E/DX2                !
 ! A216  A(25,36,39)           137.0628         estimate D2E/DX2                !
 ! A217  A(35,36,37)           115.9819         estimate D2E/DX2                !
 ! A218  A(35,36,38)           115.5257         estimate D2E/DX2                !
 ! A219  A(35,36,39)            98.4594         estimate D2E/DX2                !
 ! A220  A(37,36,38)            86.9695         estimate D2E/DX2                !
 ! A221  A(13,37,36)            77.0851         estimate D2E/DX2                !
 ! A222  A(13,37,39)            80.2301         estimate D2E/DX2                !
 ! A223  A(13,38,36)            78.3526         estimate D2E/DX2                !
 ! A224  A(13,38,39)            81.265          estimate D2E/DX2                !
 ! A225  A(36,39,40)           158.4976         estimate D2E/DX2                !
 ! A226  A(36,39,41)            93.8797         estimate D2E/DX2                !
 ! A227  A(37,39,38)            92.1071         estimate D2E/DX2                !
 ! A228  A(37,39,40)           110.6072         estimate D2E/DX2                !
 ! A229  A(37,39,41)           113.8963         estimate D2E/DX2                !
 ! A230  A(38,39,40)           119.8039         estimate D2E/DX2                !
 ! A231  A(38,39,41)           113.2041         estimate D2E/DX2                !
 ! A232  A(40,39,41)           106.8678         estimate D2E/DX2                !
 ! A233  A(18,40,39)            94.8453         estimate D2E/DX2                !
 ! A234  A(18,42,43)            87.8326         estimate D2E/DX2                !
 ! A235  A(18,42,44)            97.1791         estimate D2E/DX2                !
 ! A236  A(18,42,61)           143.4888         estimate D2E/DX2                !
 ! A237  A(19,42,20)            82.6959         estimate D2E/DX2                !
 ! A238  A(19,42,43)           138.3339         estimate D2E/DX2                !
 ! A239  A(19,42,44)            91.6083         estimate D2E/DX2                !
 ! A240  A(19,42,61)           105.1038         estimate D2E/DX2                !
 ! A241  A(20,42,43)            78.54           estimate D2E/DX2                !
 ! A242  A(20,42,44)           137.5435         estimate D2E/DX2                !
 ! A243  A(20,42,61)           108.2572         estimate D2E/DX2                !
 ! A244  A(43,42,44)            78.3655         estimate D2E/DX2                !
 ! A245  A(43,42,61)           116.0075         estimate D2E/DX2                !
 ! A246  A(44,42,61)           113.816          estimate D2E/DX2                !
 ! A247  A(6,43,42)             81.3994         estimate D2E/DX2                !
 ! A248  A(6,43,45)             83.2162         estimate D2E/DX2                !
 ! A249  A(42,43,45)            89.4309         estimate D2E/DX2                !
 ! A250  A(6,44,42)             82.5317         estimate D2E/DX2                !
 ! A251  A(6,44,45)             82.8155         estimate D2E/DX2                !
 ! A252  A(42,44,45)            91.8878         estimate D2E/DX2                !
 ! A253  A(3,45,43)             84.9203         estimate D2E/DX2                !
 ! A254  A(3,45,44)            136.1635         estimate D2E/DX2                !
 ! A255  A(3,45,46)             88.5273         estimate D2E/DX2                !
 ! A256  A(3,45,47)            115.1096         estimate D2E/DX2                !
 ! A257  A(43,45,44)            76.8117         estimate D2E/DX2                !
 ! A258  A(43,45,46)           138.4619         estimate D2E/DX2                !
 ! A259  A(43,45,47)           106.217          estimate D2E/DX2                !
 ! A260  A(43,45,48)           136.7403         estimate D2E/DX2                !
 ! A261  A(44,45,46)            80.0648         estimate D2E/DX2                !
 ! A262  A(44,45,47)           108.2075         estimate D2E/DX2                !
 ! A263  A(44,45,48)           131.6805         estimate D2E/DX2                !
 ! A264  A(46,45,47)           113.6317         estimate D2E/DX2                !
 ! A265  A(47,45,48)            94.9913         estimate D2E/DX2                !
 ! A266  A(1,46,45)             79.5986         estimate D2E/DX2                !
 ! A267  A(1,46,48)             79.5506         estimate D2E/DX2                !
 ! A268  A(3,48,21)             94.9329         estimate D2E/DX2                !
 ! A269  A(3,48,23)             84.0574         estimate D2E/DX2                !
 ! A270  A(3,48,46)             87.083          estimate D2E/DX2                !
 ! A271  A(3,48,49)            139.1221         estimate D2E/DX2                !
 ! A272  A(3,48,50)            119.0106         estimate D2E/DX2                !
 ! A273  A(21,48,45)           124.656          estimate D2E/DX2                !
 ! A274  A(21,48,46)            92.756          estimate D2E/DX2                !
 ! A275  A(21,48,50)           133.4372         estimate D2E/DX2                !
 ! A276  A(23,48,45)           134.9224         estimate D2E/DX2                !
 ! A277  A(23,48,46)           138.0609         estimate D2E/DX2                !
 ! A278  A(23,48,49)            79.9603         estimate D2E/DX2                !
 ! A279  A(23,48,50)           101.9515         estimate D2E/DX2                !
 ! A280  A(45,48,49)           131.2006         estimate D2E/DX2                !
 ! A281  A(45,48,50)           101.8399         estimate D2E/DX2                !
 ! A282  A(46,48,49)            80.4552         estimate D2E/DX2                !
 ! A283  A(46,48,50)           118.0373         estimate D2E/DX2                !
 ! A284  A(49,48,50)           101.0811         estimate D2E/DX2                !
 ! A285  A(14,51,22)           131.7903         estimate D2E/DX2                !
 ! A286  A(14,51,52)            79.5487         estimate D2E/DX2                !
 ! A287  A(14,51,53)            98.005          estimate D2E/DX2                !
 ! A288  A(14,51,60)            94.9259         estimate D2E/DX2                !
 ! A289  A(22,51,52)            89.8665         estimate D2E/DX2                !
 ! A290  A(22,51,53)           123.479          estimate D2E/DX2                !
 ! A291  A(22,51,54)           139.818          estimate D2E/DX2                !
 ! A292  A(22,51,60)            98.468          estimate D2E/DX2                !
 ! A293  A(52,51,53)            72.5194         estimate D2E/DX2                !
 ! A294  A(53,51,60)           102.3493         estimate D2E/DX2                !
 ! A295  A(54,51,60)           121.7061         estimate D2E/DX2                !
 ! A296  A(12,52,51)            83.0935         estimate D2E/DX2                !
 ! A297  A(12,52,54)            80.7675         estimate D2E/DX2                !
 ! A298  A(14,54,52)            85.7554         estimate D2E/DX2                !
 ! A299  A(14,54,53)            95.8065         estimate D2E/DX2                !
 ! A300  A(14,54,55)           130.5966         estimate D2E/DX2                !
 ! A301  A(14,54,56)            97.1325         estimate D2E/DX2                !
 ! A302  A(14,54,57)           110.8027         estimate D2E/DX2                !
 ! A303  A(51,54,55)           144.3028         estimate D2E/DX2                !
 ! A304  A(51,54,56)           112.4771         estimate D2E/DX2                !
 ! A305  A(51,54,57)           158.6802         estimate D2E/DX2                !
 ! A306  A(52,54,53)            75.1367         estimate D2E/DX2                !
 ! A307  A(52,54,55)            86.6449         estimate D2E/DX2                !
 ! A308  A(52,54,56)           164.2957         estimate D2E/DX2                !
 ! A309  A(52,54,57)           140.0776         estimate D2E/DX2                !
 ! A310  A(53,54,55)           128.8116         estimate D2E/DX2                !
 ! A311  A(53,54,56)            89.1981         estimate D2E/DX2                !
 ! A312  A(53,54,57)           134.8398         estimate D2E/DX2                !
 ! A313  A(55,54,56)           102.7686         estimate D2E/DX2                !
 ! A314  A(27,55,54)            85.8632         estimate D2E/DX2                !
 ! A315  A(27,57,31)            96.1709         estimate D2E/DX2                !
 ! A316  A(27,57,54)            71.4707         estimate D2E/DX2                !
 ! A317  A(27,57,56)           119.5637         estimate D2E/DX2                !
 ! A318  A(27,57,58)           142.1823         estimate D2E/DX2                !
 ! A319  A(29,57,31)            95.119          estimate D2E/DX2                !
 ! A320  A(29,57,54)           100.2274         estimate D2E/DX2                !
 ! A321  A(29,57,55)           110.4258         estimate D2E/DX2                !
 ! A322  A(29,57,56)           104.763          estimate D2E/DX2                !
 ! A323  A(29,57,58)           103.1316         estimate D2E/DX2                !
 ! A324  A(31,57,54)           149.6849         estimate D2E/DX2                !
 ! A325  A(31,57,55)            94.9229         estimate D2E/DX2                !
 ! A326  A(31,57,56)           144.2558         estimate D2E/DX2                !
 ! A327  A(54,57,58)           146.2815         estimate D2E/DX2                !
 ! A328  A(55,57,56)           105.176          estimate D2E/DX2                !
 ! A329  A(55,57,58)           133.9621         estimate D2E/DX2                !
 ! A330  A(56,57,58)            95.3983         estimate D2E/DX2                !
 ! A331  L(10,24,32,17,-1)     192.9235         estimate D2E/DX2                !
 ! A332  L(52,51,60,14,-1)     174.4746         estimate D2E/DX2                !
 ! A333  L(10,24,32,17,-2)     170.9904         estimate D2E/DX2                !
 ! A334  L(52,51,60,14,-2)     186.3038         estimate D2E/DX2                !
 ! D1    D(3,1,2,12)          -178.8621         estimate D2E/DX2                !
 ! D2    D(3,1,2,21)            94.3901         estimate D2E/DX2                !
 ! D3    D(4,1,2,12)           -24.0585         estimate D2E/DX2                !
 ! D4    D(4,1,2,21)          -110.8063         estimate D2E/DX2                !
 ! D5    D(5,1,2,12)            44.1823         estimate D2E/DX2                !
 ! D6    D(5,1,2,21)           -42.5655         estimate D2E/DX2                !
 ! D7    D(8,1,2,12)           -97.0859         estimate D2E/DX2                !
 ! D8    D(8,1,2,21)           176.1663         estimate D2E/DX2                !
 ! D9    D(46,1,2,12)          109.7074         estimate D2E/DX2                !
 ! D10   D(46,1,2,21)           22.9596         estimate D2E/DX2                !
 ! D11   D(2,1,3,45)          -172.8538         estimate D2E/DX2                !
 ! D12   D(2,1,3,48)           -93.9782         estimate D2E/DX2                !
 ! D13   D(4,1,3,45)            32.9907         estimate D2E/DX2                !
 ! D14   D(4,1,3,48)           111.8663         estimate D2E/DX2                !
 ! D15   D(5,1,3,45)          -107.1092         estimate D2E/DX2                !
 ! D16   D(5,1,3,48)           -28.2336         estimate D2E/DX2                !
 ! D17   D(8,1,3,45)           101.8399         estimate D2E/DX2                !
 ! D18   D(8,1,3,48)          -179.2845         estimate D2E/DX2                !
 ! D19   D(46,1,3,45)          -38.8616         estimate D2E/DX2                !
 ! D20   D(46,1,3,48)           40.014          estimate D2E/DX2                !
 ! D21   D(2,1,4,6)           -115.1739         estimate D2E/DX2                !
 ! D22   D(2,1,4,9)            -32.7187         estimate D2E/DX2                !
 ! D23   D(3,1,4,6)             26.8695         estimate D2E/DX2                !
 ! D24   D(3,1,4,9)            109.3247         estimate D2E/DX2                !
 ! D25   D(5,1,4,6)            178.6366         estimate D2E/DX2                !
 ! D26   D(5,1,4,9)            -98.9082         estimate D2E/DX2                !
 ! D27   D(8,1,4,6)            -41.4731         estimate D2E/DX2                !
 ! D28   D(8,1,4,9)             40.9821         estimate D2E/DX2                !
 ! D29   D(46,1,4,6)            97.8768         estimate D2E/DX2                !
 ! D30   D(46,1,4,9)          -179.6679         estimate D2E/DX2                !
 ! D31   D(2,1,5,12)           -44.2056         estimate D2E/DX2                !
 ! D32   D(2,1,5,21)            42.7754         estimate D2E/DX2                !
 ! D33   D(3,1,5,12)          -111.4383         estimate D2E/DX2                !
 ! D34   D(3,1,5,21)           -24.4573         estimate D2E/DX2                !
 ! D35   D(4,1,5,12)            94.8142         estimate D2E/DX2                !
 ! D36   D(4,1,5,21)          -178.2048         estimate D2E/DX2                !
 ! D37   D(8,1,5,12)            23.3311         estimate D2E/DX2                !
 ! D38   D(8,1,5,21)           110.3121         estimate D2E/DX2                !
 ! D39   D(46,1,5,12)          179.7111         estimate D2E/DX2                !
 ! D40   D(46,1,5,21)          -93.3079         estimate D2E/DX2                !
 ! D41   D(2,1,8,6)            178.7156         estimate D2E/DX2                !
 ! D42   D(2,1,8,9)             96.504          estimate D2E/DX2                !
 ! D43   D(3,1,8,6)            -98.5125         estimate D2E/DX2                !
 ! D44   D(3,1,8,9)            179.2759         estimate D2E/DX2                !
 ! D45   D(4,1,8,6)             41.3357         estimate D2E/DX2                !
 ! D46   D(4,1,8,9)            -40.8759         estimate D2E/DX2                !
 ! D47   D(5,1,8,6)            113.2752         estimate D2E/DX2                !
 ! D48   D(5,1,8,9)             31.0636         estimate D2E/DX2                !
 ! D49   D(46,1,8,6)           -31.1805         estimate D2E/DX2                !
 ! D50   D(46,1,8,9)          -113.3921         estimate D2E/DX2                !
 ! D51   D(2,1,46,45)          110.5485         estimate D2E/DX2                !
 ! D52   D(2,1,46,48)           31.4191         estimate D2E/DX2                !
 ! D53   D(3,1,46,45)           38.9859         estimate D2E/DX2                !
 ! D54   D(3,1,46,48)          -40.1435         estimate D2E/DX2                !
 ! D55   D(4,1,46,45)         -100.0958         estimate D2E/DX2                !
 ! D56   D(4,1,46,48)         -179.2252         estimate D2E/DX2                !
 ! D57   D(5,1,46,45)          175.2834         estimate D2E/DX2                !
 ! D58   D(5,1,46,48)           96.154          estimate D2E/DX2                !
 ! D59   D(8,1,46,45)          -28.1296         estimate D2E/DX2                !
 ! D60   D(8,1,46,48)         -107.259          estimate D2E/DX2                !
 ! D61   D(1,2,12,5)           -44.5704         estimate D2E/DX2                !
 ! D62   D(1,2,12,11)           25.245          estimate D2E/DX2                !
 ! D63   D(1,2,12,14)          173.8297         estimate D2E/DX2                !
 ! D64   D(1,2,12,15)           94.5245         estimate D2E/DX2                !
 ! D65   D(1,2,12,52)         -109.7906         estimate D2E/DX2                !
 ! D66   D(21,2,12,5)           40.2594         estimate D2E/DX2                !
 ! D67   D(21,2,12,11)         110.0748         estimate D2E/DX2                !
 ! D68   D(21,2,12,14)        -101.3404         estimate D2E/DX2                !
 ! D69   D(21,2,12,15)         179.3544         estimate D2E/DX2                !
 ! D70   D(21,2,12,52)         -24.9607         estimate D2E/DX2                !
 ! D71   D(1,2,21,5)            42.8767         estimate D2E/DX2                !
 ! D72   D(1,2,21,22)          146.1939         estimate D2E/DX2                !
 ! D73   D(1,2,21,23)          -99.6244         estimate D2E/DX2                !
 ! D74   D(1,2,21,48)          -47.5781         estimate D2E/DX2                !
 ! D75   D(1,2,21,49)          -22.1424         estimate D2E/DX2                !
 ! D76   D(12,2,21,5)          -40.209          estimate D2E/DX2                !
 ! D77   D(12,2,21,22)          63.1082         estimate D2E/DX2                !
 ! D78   D(12,2,21,23)         177.2899         estimate D2E/DX2                !
 ! D79   D(12,2,21,48)        -130.6638         estimate D2E/DX2                !
 ! D80   D(12,2,21,49)        -105.2281         estimate D2E/DX2                !
 ! D81   D(1,3,45,43)          -97.3655         estimate D2E/DX2                !
 ! D82   D(1,3,45,44)          -32.4077         estimate D2E/DX2                !
 ! D83   D(1,3,45,46)           41.5726         estimate D2E/DX2                !
 ! D84   D(1,3,45,47)          157.0904         estimate D2E/DX2                !
 ! D85   D(1,3,48,21)           50.3114         estimate D2E/DX2                !
 ! D86   D(1,3,48,23)           96.7448         estimate D2E/DX2                !
 ! D87   D(1,3,48,46)          -42.2062         estimate D2E/DX2                !
 ! D88   D(1,3,48,49)           29.5797         estimate D2E/DX2                !
 ! D89   D(1,3,48,50)         -162.865          estimate D2E/DX2                !
 ! D90   D(1,4,6,7)            179.1648         estimate D2E/DX2                !
 ! D91   D(1,4,6,8)             41.347          estimate D2E/DX2                !
 ! D92   D(1,4,6,16)           111.2734         estimate D2E/DX2                !
 ! D93   D(1,4,6,43)           -36.7768         estimate D2E/DX2                !
 ! D94   D(1,4,6,44)           -94.4812         estimate D2E/DX2                !
 ! D95   D(9,4,6,7)             95.8317         estimate D2E/DX2                !
 ! D96   D(9,4,6,8)            -41.9861         estimate D2E/DX2                !
 ! D97   D(9,4,6,16)            27.9403         estimate D2E/DX2                !
 ! D98   D(9,4,6,43)          -120.1098         estimate D2E/DX2                !
 ! D99   D(9,4,6,44)          -177.8143         estimate D2E/DX2                !
 ! D100  D(1,4,9,8)            -40.2736         estimate D2E/DX2                !
 ! D101  D(1,4,9,10)          -178.5855         estimate D2E/DX2                !
 ! D102  D(1,4,9,11)            97.5575         estimate D2E/DX2                !
 ! D103  D(1,4,9,15)            32.6023         estimate D2E/DX2                !
 ! D104  D(1,4,9,26)          -108.7707         estimate D2E/DX2                !
 ! D105  D(6,4,9,8)             41.3782         estimate D2E/DX2                !
 ! D106  D(6,4,9,10)           -96.9337         estimate D2E/DX2                !
 ! D107  D(6,4,9,11)           179.2092         estimate D2E/DX2                !
 ! D108  D(6,4,9,15)           114.254          estimate D2E/DX2                !
 ! D109  D(6,4,9,26)           -27.119          estimate D2E/DX2                !
 ! D110  D(1,5,12,2)            44.1254         estimate D2E/DX2                !
 ! D111  D(1,5,12,11)          -93.4447         estimate D2E/DX2                !
 ! D112  D(1,5,12,14)          109.8657         estimate D2E/DX2                !
 ! D113  D(1,5,12,15)          -25.0148         estimate D2E/DX2                !
 ! D114  D(1,5,12,52)          177.5163         estimate D2E/DX2                !
 ! D115  D(21,5,12,2)          -40.4195         estimate D2E/DX2                !
 ! D116  D(21,5,12,11)        -177.9895         estimate D2E/DX2                !
 ! D117  D(21,5,12,14)          25.3209         estimate D2E/DX2                !
 ! D118  D(21,5,12,15)        -109.5596         estimate D2E/DX2                !
 ! D119  D(21,5,12,52)          92.9714         estimate D2E/DX2                !
 ! D120  D(1,5,21,2)           -42.4243         estimate D2E/DX2                !
 ! D121  D(1,5,21,22)         -166.5685         estimate D2E/DX2                !
 ! D122  D(1,5,21,23)           21.9985         estimate D2E/DX2                !
 ! D123  D(1,5,21,48)           46.8733         estimate D2E/DX2                !
 ! D124  D(1,5,21,49)           98.6119         estimate D2E/DX2                !
 ! D125  D(12,5,21,2)           40.1658         estimate D2E/DX2                !
 ! D126  D(12,5,21,22)         -83.9783         estimate D2E/DX2                !
 ! D127  D(12,5,21,23)         104.5886         estimate D2E/DX2                !
 ! D128  D(12,5,21,48)         129.4634         estimate D2E/DX2                !
 ! D129  D(12,5,21,49)        -178.798          estimate D2E/DX2                !
 ! D130  D(4,6,7,13)           -98.0513         estimate D2E/DX2                !
 ! D131  D(4,6,7,18)          -179.7886         estimate D2E/DX2                !
 ! D132  D(8,6,7,13)           -26.1313         estimate D2E/DX2                !
 ! D133  D(8,6,7,18)          -107.8687         estimate D2E/DX2                !
 ! D134  D(16,6,7,13)           40.5424         estimate D2E/DX2                !
 ! D135  D(16,6,7,18)          -41.195          estimate D2E/DX2                !
 ! D136  D(43,6,7,13)          113.4556         estimate D2E/DX2                !
 ! D137  D(43,6,7,18)           31.7183         estimate D2E/DX2                !
 ! D138  D(44,6,7,13)          179.9669         estimate D2E/DX2                !
 ! D139  D(44,6,7,18)           98.2295         estimate D2E/DX2                !
 ! D140  D(4,6,8,1)            -41.8035         estimate D2E/DX2                !
 ! D141  D(4,6,8,9)             41.948          estimate D2E/DX2                !
 ! D142  D(7,6,8,1)           -113.6072         estimate D2E/DX2                !
 ! D143  D(7,6,8,9)            -29.8557         estimate D2E/DX2                !
 ! D144  D(16,6,8,1)          -179.8612         estimate D2E/DX2                !
 ! D145  D(16,6,8,9)           -96.1097         estimate D2E/DX2                !
 ! D146  D(43,6,8,1)            96.2305         estimate D2E/DX2                !
 ! D147  D(43,6,8,9)           179.982          estimate D2E/DX2                !
 ! D148  D(44,6,8,1)            29.3649         estimate D2E/DX2                !
 ! D149  D(44,6,8,9)           113.1164         estimate D2E/DX2                !
 ! D150  D(4,6,16,13)           28.4691         estimate D2E/DX2                !
 ! D151  D(4,6,16,18)          110.328          estimate D2E/DX2                !
 ! D152  D(7,6,16,13)          -40.3513         estimate D2E/DX2                !
 ! D153  D(7,6,16,18)           41.5076         estimate D2E/DX2                !
 ! D154  D(8,6,16,13)           99.0187         estimate D2E/DX2                !
 ! D155  D(8,6,16,18)         -179.1224         estimate D2E/DX2                !
 ! D156  D(43,6,16,13)        -172.8436         estimate D2E/DX2                !
 ! D157  D(43,6,16,18)         -90.9846         estimate D2E/DX2                !
 ! D158  D(44,6,16,13)        -112.4306         estimate D2E/DX2                !
 ! D159  D(44,6,16,18)         -30.5717         estimate D2E/DX2                !
 ! D160  D(4,6,43,42)         -104.5187         estimate D2E/DX2                !
 ! D161  D(4,6,43,45)          -14.0675         estimate D2E/DX2                !
 ! D162  D(7,6,43,42)           26.0765         estimate D2E/DX2                !
 ! D163  D(7,6,43,45)          116.5277         estimate D2E/DX2                !
 ! D164  D(8,6,43,42)          179.0142         estimate D2E/DX2                !
 ! D165  D(8,6,43,45)          -90.5345         estimate D2E/DX2                !
 ! D166  D(16,6,43,42)          97.4797         estimate D2E/DX2                !
 ! D167  D(16,6,43,45)        -172.0691         estimate D2E/DX2                !
 ! D168  D(44,6,43,42)         -44.7653         estimate D2E/DX2                !
 ! D169  D(44,6,43,45)          45.686          estimate D2E/DX2                !
 ! D170  D(4,6,44,42)         -169.7829         estimate D2E/DX2                !
 ! D171  D(4,6,44,45)           97.3504         estimate D2E/DX2                !
 ! D172  D(7,6,44,42)          -86.5911         estimate D2E/DX2                !
 ! D173  D(7,6,44,45)         -179.4577         estimate D2E/DX2                !
 ! D174  D(8,6,44,42)          118.4657         estimate D2E/DX2                !
 ! D175  D(8,6,44,45)           25.599          estimate D2E/DX2                !
 ! D176  D(16,6,44,42)         -16.4353         estimate D2E/DX2                !
 ! D177  D(16,6,44,45)        -109.3019         estimate D2E/DX2                !
 ! D178  D(43,6,44,42)          46.8143         estimate D2E/DX2                !
 ! D179  D(43,6,44,45)         -46.0524         estimate D2E/DX2                !
 ! D180  D(6,7,13,10)           95.8544         estimate D2E/DX2                !
 ! D181  D(6,7,13,16)          -40.5429         estimate D2E/DX2                !
 ! D182  D(6,7,13,26)           25.7702         estimate D2E/DX2                !
 ! D183  D(6,7,13,37)          177.6167         estimate D2E/DX2                !
 ! D184  D(6,7,13,38)         -111.2164         estimate D2E/DX2                !
 ! D185  D(18,7,13,10)         177.6982         estimate D2E/DX2                !
 ! D186  D(18,7,13,16)          41.3008         estimate D2E/DX2                !
 ! D187  D(18,7,13,26)         107.6139         estimate D2E/DX2                !
 ! D188  D(18,7,13,37)        -100.5396         estimate D2E/DX2                !
 ! D189  D(18,7,13,38)         -29.3727         estimate D2E/DX2                !
 ! D190  D(6,7,18,16)           42.3442         estimate D2E/DX2                !
 ! D191  D(6,7,18,19)          -99.7233         estimate D2E/DX2                !
 ! D192  D(6,7,18,20)          -35.3543         estimate D2E/DX2                !
 ! D193  D(6,7,18,40)          174.046          estimate D2E/DX2                !
 ! D194  D(6,7,18,42)          -54.6316         estimate D2E/DX2                !
 ! D195  D(13,7,18,16)         -42.4539         estimate D2E/DX2                !
 ! D196  D(13,7,18,19)         175.4786         estimate D2E/DX2                !
 ! D197  D(13,7,18,20)        -120.1524         estimate D2E/DX2                !
 ! D198  D(13,7,18,40)          89.2479         estimate D2E/DX2                !
 ! D199  D(13,7,18,42)        -139.4297         estimate D2E/DX2                !
 ! D200  D(1,8,9,4)             40.72           estimate D2E/DX2                !
 ! D201  D(1,8,9,10)           115.219          estimate D2E/DX2                !
 ! D202  D(1,8,9,11)           -25.742          estimate D2E/DX2                !
 ! D203  D(1,8,9,15)           -95.9839         estimate D2E/DX2                !
 ! D204  D(1,8,9,26)           179.8662         estimate D2E/DX2                !
 ! D205  D(6,8,9,4)            -41.3187         estimate D2E/DX2                !
 ! D206  D(6,8,9,10)            33.1803         estimate D2E/DX2                !
 ! D207  D(6,8,9,11)          -107.7807         estimate D2E/DX2                !
 ! D208  D(6,8,9,15)          -178.0226         estimate D2E/DX2                !
 ! D209  D(6,8,9,26)            97.8275         estimate D2E/DX2                !
 ! D210  D(4,9,10,13)           94.923          estimate D2E/DX2                !
 ! D211  D(4,9,10,24)          178.5197         estimate D2E/DX2                !
 ! D212  D(8,9,10,13)           22.1759         estimate D2E/DX2                !
 ! D213  D(8,9,10,24)          105.7726         estimate D2E/DX2                !
 ! D214  D(11,9,10,13)         174.9879         estimate D2E/DX2                !
 ! D215  D(11,9,10,24)        -101.4153         estimate D2E/DX2                !
 ! D216  D(15,9,10,13)        -114.5362         estimate D2E/DX2                !
 ! D217  D(15,9,10,24)         -30.9395         estimate D2E/DX2                !
 ! D218  D(26,9,10,13)         -43.4036         estimate D2E/DX2                !
 ! D219  D(26,9,10,24)          40.1932         estimate D2E/DX2                !
 ! D220  D(4,9,11,12)          -97.2065         estimate D2E/DX2                !
 ! D221  D(4,9,11,27)         -178.2998         estimate D2E/DX2                !
 ! D222  D(8,9,11,12)          -30.1083         estimate D2E/DX2                !
 ! D223  D(8,9,11,27)         -111.2016         estimate D2E/DX2                !
 ! D224  D(10,9,11,12)         175.7805         estimate D2E/DX2                !
 ! D225  D(10,9,11,27)          94.6872         estimate D2E/DX2                !
 ! D226  D(15,9,11,12)          41.7614         estimate D2E/DX2                !
 ! D227  D(15,9,11,27)         -39.3319         estimate D2E/DX2                !
 ! D228  D(26,9,11,12)         110.218          estimate D2E/DX2                !
 ! D229  D(26,9,11,27)          29.1247         estimate D2E/DX2                !
 ! D230  D(4,9,15,12)           23.3166         estimate D2E/DX2                !
 ! D231  D(4,9,15,27)          104.419          estimate D2E/DX2                !
 ! D232  D(8,9,15,12)           95.0461         estimate D2E/DX2                !
 ! D233  D(8,9,15,27)          176.1485         estimate D2E/DX2                !
 ! D234  D(10,9,15,12)        -113.2784         estimate D2E/DX2                !
 ! D235  D(10,9,15,27)         -32.176          estimate D2E/DX2                !
 ! D236  D(11,9,15,12)         -41.468          estimate D2E/DX2                !
 ! D237  D(11,9,15,27)          39.6343         estimate D2E/DX2                !
 ! D238  D(26,9,15,12)         177.3881         estimate D2E/DX2                !
 ! D239  D(26,9,15,27)        -101.5095         estimate D2E/DX2                !
 ! D240  D(4,9,26,13)          -29.9148         estimate D2E/DX2                !
 ! D241  D(4,9,26,24)         -113.9218         estimate D2E/DX2                !
 ! D242  D(8,9,26,13)          -98.2378         estimate D2E/DX2                !
 ! D243  D(8,9,26,24)          177.7552         estimate D2E/DX2                !
 ! D244  D(10,9,26,13)          42.4649         estimate D2E/DX2                !
 ! D245  D(10,9,26,24)         -41.5421         estimate D2E/DX2                !
 ! D246  D(11,9,26,13)         109.4527         estimate D2E/DX2                !
 ! D247  D(11,9,26,24)          25.4457         estimate D2E/DX2                !
 ! D248  D(15,9,26,13)         176.7388         estimate D2E/DX2                !
 ! D249  D(15,9,26,24)          92.7318         estimate D2E/DX2                !
 ! D250  D(9,10,13,7)          -93.211          estimate D2E/DX2                !
 ! D251  D(9,10,13,16)         -21.3356         estimate D2E/DX2                !
 ! D252  D(9,10,13,26)          43.2649         estimate D2E/DX2                !
 ! D253  D(9,10,13,37)        -177.1729         estimate D2E/DX2                !
 ! D254  D(9,10,13,38)         117.6102         estimate D2E/DX2                !
 ! D255  D(24,10,13,7)        -177.499          estimate D2E/DX2                !
 ! D256  D(24,10,13,16)       -105.6236         estimate D2E/DX2                !
 ! D257  D(24,10,13,26)        -41.0231         estimate D2E/DX2                !
 ! D258  D(24,10,13,37)         98.5391         estimate D2E/DX2                !
 ! D259  D(24,10,13,38)         33.3222         estimate D2E/DX2                !
 ! D260  D(9,10,24,17)        -111.3807         estimate D2E/DX2                !
 ! D261  D(9,10,24,25)         178.8197         estimate D2E/DX2                !
 ! D262  D(9,10,24,26)         -41.5422         estimate D2E/DX2                !
 ! D263  D(9,10,24,28)          95.2105         estimate D2E/DX2                !
 ! D264  D(9,10,24,33)         170.8595         estimate D2E/DX2                !
 ! D265  D(13,10,24,17)        -27.2908         estimate D2E/DX2                !
 ! D266  D(13,10,24,25)        -97.0905         estimate D2E/DX2                !
 ! D267  D(13,10,24,26)         42.5477         estimate D2E/DX2                !
 ! D268  D(13,10,24,28)        179.3004         estimate D2E/DX2                !
 ! D269  D(13,10,24,33)       -105.0507         estimate D2E/DX2                !
 ! D270  D(9,11,12,2)           30.0193         estimate D2E/DX2                !
 ! D271  D(9,11,12,5)           97.7323         estimate D2E/DX2                !
 ! D272  D(9,11,12,14)        -104.0748         estimate D2E/DX2                !
 ! D273  D(9,11,12,15)         -41.0428         estimate D2E/DX2                !
 ! D274  D(9,11,12,52)         176.3405         estimate D2E/DX2                !
 ! D275  D(27,11,12,2)         115.4527         estimate D2E/DX2                !
 ! D276  D(27,11,12,5)        -176.8343         estimate D2E/DX2                !
 ! D277  D(27,11,12,14)        -18.6414         estimate D2E/DX2                !
 ! D278  D(27,11,12,15)         44.3906         estimate D2E/DX2                !
 ! D279  D(27,11,12,52)        -98.2261         estimate D2E/DX2                !
 ! D280  D(9,11,27,15)          39.1477         estimate D2E/DX2                !
 ! D281  D(9,11,27,28)         -91.4661         estimate D2E/DX2                !
 ! D282  D(9,11,27,29)          60.6219         estimate D2E/DX2                !
 ! D283  D(9,11,27,30)         -85.2687         estimate D2E/DX2                !
 ! D284  D(9,11,27,55)         176.9067         estimate D2E/DX2                !
 ! D285  D(9,11,27,57)         160.7526         estimate D2E/DX2                !
 ! D286  D(12,11,27,15)        -44.9737         estimate D2E/DX2                !
 ! D287  D(12,11,27,28)       -175.5876         estimate D2E/DX2                !
 ! D288  D(12,11,27,29)        -23.4996         estimate D2E/DX2                !
 ! D289  D(12,11,27,30)       -169.3902         estimate D2E/DX2                !
 ! D290  D(12,11,27,55)         92.7853         estimate D2E/DX2                !
 ! D291  D(12,11,27,57)         76.6311         estimate D2E/DX2                !
 ! D292  D(2,12,14,51)          90.5826         estimate D2E/DX2                !
 ! D293  D(2,12,14,54)         168.7404         estimate D2E/DX2                !
 ! D294  D(5,12,14,51)          26.2657         estimate D2E/DX2                !
 ! D295  D(5,12,14,54)         104.4234         estimate D2E/DX2                !
 ! D296  D(11,12,14,51)       -120.5926         estimate D2E/DX2                !
 ! D297  D(11,12,14,54)        -42.4348         estimate D2E/DX2                !
 ! D298  D(15,12,14,51)        176.0203         estimate D2E/DX2                !
 ! D299  D(15,12,14,54)       -105.822          estimate D2E/DX2                !
 ! D300  D(52,12,14,51)        -39.395          estimate D2E/DX2                !
 ! D301  D(52,12,14,54)         38.7628         estimate D2E/DX2                !
 ! D302  D(2,12,15,9)          -95.3522         estimate D2E/DX2                !
 ! D303  D(2,12,15,27)         177.9919         estimate D2E/DX2                !
 ! D304  D(5,12,15,9)          -28.275          estimate D2E/DX2                !
 ! D305  D(5,12,15,27)        -114.9309         estimate D2E/DX2                !
 ! D306  D(11,12,15,9)          41.8211         estimate D2E/DX2                !
 ! D307  D(11,12,15,27)        -44.8348         estimate D2E/DX2                !
 ! D308  D(14,12,15,9)        -179.0444         estimate D2E/DX2                !
 ! D309  D(14,12,15,27)         94.2996         estimate D2E/DX2                !
 ! D310  D(52,12,15,9)         115.3314         estimate D2E/DX2                !
 ! D311  D(52,12,15,27)         28.6754         estimate D2E/DX2                !
 ! D312  D(2,12,52,51)         -40.5253         estimate D2E/DX2                !
 ! D313  D(2,12,52,54)        -113.6341         estimate D2E/DX2                !
 ! D314  D(5,12,52,51)        -105.8348         estimate D2E/DX2                !
 ! D315  D(5,12,52,54)        -178.9437         estimate D2E/DX2                !
 ! D316  D(11,12,52,51)        169.843          estimate D2E/DX2                !
 ! D317  D(11,12,52,54)         96.7342         estimate D2E/DX2                !
 ! D318  D(14,12,52,51)         35.2305         estimate D2E/DX2                !
 ! D319  D(14,12,52,54)        -37.8784         estimate D2E/DX2                !
 ! D320  D(15,12,52,51)         99.1345         estimate D2E/DX2                !
 ! D321  D(15,12,52,54)         26.0256         estimate D2E/DX2                !
 ! D322  D(7,13,16,6)           40.9965         estimate D2E/DX2                !
 ! D323  D(7,13,16,18)         -41.7023         estimate D2E/DX2                !
 ! D324  D(10,13,16,6)         -32.2827         estimate D2E/DX2                !
 ! D325  D(10,13,16,18)       -114.9815         estimate D2E/DX2                !
 ! D326  D(26,13,16,6)         -96.8795         estimate D2E/DX2                !
 ! D327  D(26,13,16,18)       -179.5783         estimate D2E/DX2                !
 ! D328  D(37,13,16,6)         109.7892         estimate D2E/DX2                !
 ! D329  D(37,13,16,18)         27.0904         estimate D2E/DX2                !
 ! D330  D(38,13,16,6)         174.404          estimate D2E/DX2                !
 ! D331  D(38,13,16,18)         91.7052         estimate D2E/DX2                !
 ! D332  D(7,13,26,9)           28.9888         estimate D2E/DX2                !
 ! D333  D(7,13,26,24)         114.4923         estimate D2E/DX2                !
 ! D334  D(10,13,26,9)         -43.0319         estimate D2E/DX2                !
 ! D335  D(10,13,26,24)         42.4716         estimate D2E/DX2                !
 ! D336  D(16,13,26,9)          95.8155         estimate D2E/DX2                !
 ! D337  D(16,13,26,24)       -178.681          estimate D2E/DX2                !
 ! D338  D(37,13,26,9)        -109.0929         estimate D2E/DX2                !
 ! D339  D(37,13,26,24)        -23.5894         estimate D2E/DX2                !
 ! D340  D(38,13,26,9)         177.6569         estimate D2E/DX2                !
 ! D341  D(38,13,26,24)        -96.8396         estimate D2E/DX2                !
 ! D342  D(7,13,37,36)         175.5107         estimate D2E/DX2                !
 ! D343  D(7,13,37,39)          97.683          estimate D2E/DX2                !
 ! D344  D(10,13,37,36)        -99.0024         estimate D2E/DX2                !
 ! D345  D(10,13,37,39)       -176.8301         estimate D2E/DX2                !
 ! D346  D(16,13,37,36)        107.4756         estimate D2E/DX2                !
 ! D347  D(16,13,37,39)         29.6479         estimate D2E/DX2                !
 ! D348  D(26,13,37,36)        -33.4941         estimate D2E/DX2                !
 ! D349  D(26,13,37,39)       -111.3218         estimate D2E/DX2                !
 ! D350  D(38,13,37,36)         42.4769         estimate D2E/DX2                !
 ! D351  D(38,13,37,39)        -35.3508         estimate D2E/DX2                !
 ! D352  D(7,13,38,36)        -114.8386         estimate D2E/DX2                !
 ! D353  D(7,13,38,39)         -37.3806         estimate D2E/DX2                !
 ! D354  D(10,13,38,36)         23.1041         estimate D2E/DX2                !
 ! D355  D(10,13,38,39)        100.5621         estimate D2E/DX2                !
 ! D356  D(16,13,38,36)        174.6771         estimate D2E/DX2                !
 ! D357  D(16,13,38,39)       -107.8649         estimate D2E/DX2                !
 ! D358  D(26,13,38,36)         94.6484         estimate D2E/DX2                !
 ! D359  D(26,13,38,39)        172.1064         estimate D2E/DX2                !
 ! D360  D(37,13,38,36)        -42.4141         estimate D2E/DX2                !
 ! D361  D(37,13,38,39)         35.044          estimate D2E/DX2                !
 ! D362  D(12,14,51,22)        -44.7522         estimate D2E/DX2                !
 ! D363  D(12,14,51,52)         35.5734         estimate D2E/DX2                !
 ! D364  D(12,14,51,53)        106.0376         estimate D2E/DX2                !
 ! D365  D(12,14,51,60)       -150.7304         estimate D2E/DX2                !
 ! D366  D(12,14,54,52)        -38.6823         estimate D2E/DX2                !
 ! D367  D(12,14,54,53)       -113.2504         estimate D2E/DX2                !
 ! D368  D(12,14,54,55)         43.2183         estimate D2E/DX2                !
 ! D369  D(12,14,54,56)        156.8327         estimate D2E/DX2                !
 ! D370  D(12,14,54,57)        103.9216         estimate D2E/DX2                !
 ! D371  D(9,15,27,11)         -39.8376         estimate D2E/DX2                !
 ! D372  D(9,15,27,28)          36.9272         estimate D2E/DX2                !
 ! D373  D(9,15,27,29)         146.8856         estimate D2E/DX2                !
 ! D374  D(9,15,27,30)         102.3593         estimate D2E/DX2                !
 ! D375  D(9,15,27,55)        -111.6061         estimate D2E/DX2                !
 ! D376  D(9,15,27,57)        -176.953          estimate D2E/DX2                !
 ! D377  D(12,15,27,11)         44.6835         estimate D2E/DX2                !
 ! D378  D(12,15,27,28)        121.4483         estimate D2E/DX2                !
 ! D379  D(12,15,27,29)       -128.5934         estimate D2E/DX2                !
 ! D380  D(12,15,27,30)       -173.1196         estimate D2E/DX2                !
 ! D381  D(12,15,27,55)        -27.085          estimate D2E/DX2                !
 ! D382  D(12,15,27,57)        -92.4319         estimate D2E/DX2                !
 ! D383  D(6,16,18,7)          -42.7356         estimate D2E/DX2                !
 ! D384  D(6,16,18,19)          23.5395         estimate D2E/DX2                !
 ! D385  D(6,16,18,20)          97.511          estimate D2E/DX2                !
 ! D386  D(6,16,18,40)        -147.0309         estimate D2E/DX2                !
 ! D387  D(6,16,18,42)          45.6362         estimate D2E/DX2                !
 ! D388  D(13,16,18,7)          42.2487         estimate D2E/DX2                !
 ! D389  D(13,16,18,19)        108.5239         estimate D2E/DX2                !
 ! D390  D(13,16,18,20)       -177.5046         estimate D2E/DX2                !
 ! D391  D(13,16,18,40)        -62.0466         estimate D2E/DX2                !
 ! D392  D(13,16,18,42)        130.6206         estimate D2E/DX2                !
 ! D393  D(36,17,24,10)        -29.5391         estimate D2E/DX2                !
 ! D394  D(36,17,24,25)         45.0199         estimate D2E/DX2                !
 ! D395  D(36,17,24,26)        -99.0968         estimate D2E/DX2                !
 ! D396  D(36,17,24,28)        103.9542         estimate D2E/DX2                !
 ! D397  D(36,17,24,32)        159.4705         estimate D2E/DX2                !
 ! D398  D(36,17,33,25)        -26.9446         estimate D2E/DX2                !
 ! D399  D(36,17,33,32)       -147.4772         estimate D2E/DX2                !
 ! D400  D(36,17,33,34)       -117.0061         estimate D2E/DX2                !
 ! D401  D(36,17,33,59)         87.3183         estimate D2E/DX2                !
 ! D402  D(24,17,36,25)        -43.873          estimate D2E/DX2                !
 ! D403  D(24,17,36,35)       -142.9694         estimate D2E/DX2                !
 ! D404  D(24,17,36,37)         28.0437         estimate D2E/DX2                !
 ! D405  D(24,17,36,38)        102.757          estimate D2E/DX2                !
 ! D406  D(24,17,36,39)        101.9921         estimate D2E/DX2                !
 ! D407  D(33,17,36,25)         25.7803         estimate D2E/DX2                !
 ! D408  D(33,17,36,35)        -73.316          estimate D2E/DX2                !
 ! D409  D(33,17,36,37)         97.697          estimate D2E/DX2                !
 ! D410  D(33,17,36,38)        172.4104         estimate D2E/DX2                !
 ! D411  D(33,17,36,39)        171.6455         estimate D2E/DX2                !
 ! D412  D(7,18,40,39)         -67.2714         estimate D2E/DX2                !
 ! D413  D(16,18,40,39)         27.2522         estimate D2E/DX2                !
 ! D414  D(19,18,40,39)       -146.5294         estimate D2E/DX2                !
 ! D415  D(20,18,40,39)        132.7804         estimate D2E/DX2                !
 ! D416  D(42,18,40,39)       -169.2264         estimate D2E/DX2                !
 ! D417  D(7,18,42,43)          87.9588         estimate D2E/DX2                !
 ! D418  D(7,18,42,44)           9.9741         estimate D2E/DX2                !
 ! D419  D(7,18,42,61)        -138.6968         estimate D2E/DX2                !
 ! D420  D(16,18,42,43)          4.8832         estimate D2E/DX2                !
 ! D421  D(16,18,42,44)        -73.1014         estimate D2E/DX2                !
 ! D422  D(16,18,42,61)        138.2276         estimate D2E/DX2                !
 ! D423  D(40,18,42,43)       -162.8497         estimate D2E/DX2                !
 ! D424  D(40,18,42,44)        119.1656         estimate D2E/DX2                !
 ! D425  D(40,18,42,61)        -29.5053         estimate D2E/DX2                !
 ! D426  D(2,21,22,51)         -13.2963         estimate D2E/DX2                !
 ! D427  D(5,21,22,51)          74.6865         estimate D2E/DX2                !
 ! D428  D(23,21,22,51)       -111.5744         estimate D2E/DX2                !
 ! D429  D(48,21,22,51)       -170.2598         estimate D2E/DX2                !
 ! D430  D(49,21,22,51)        158.6577         estimate D2E/DX2                !
[...]
 01037,0.00006429,0.00001744,0.00006814,-0.00002518,-0.00003227,-0.0000
 4710,-0.00007634,-0.00001428,0.00004682,0.00017235,-0.00000588,0.00012
 980,0.00002654,-0.00011761,-0.00009180,0.01831715,-0.00013144,0.000004
 65,-0.00001247,-0.00000298,-0.00001370,-0.00004544,0.00000307,-0.00002
 329,-0.00000590,0.00007794,-0.00002299,-0.00003543,-0.00002537,0.00002
 763,0.00001945,-0.00000945,-0.00003559,0.00014469,0.00007876,-0.000038
 91,0.00002494,0.00004310,0.00000946,-0.00002058,-0.00090116,0.00018792
 ,0.00040928,0.00001226,0.00002676,-0.00001189,-0.00010465,0.00005714,-
 0.00012394,0.00008409,0.00001038,-0.00004122,-0.00033419,0.00021061,-0
 .00040102,-0.00005700,-0.00000670,-0.00000779,-0.00008869,-0.00002616,
 -0.00018919,0.00003965,-0.00006489,-0.00004343,0.00053037,0.00038917,-
 0.00012176,-0.00003810,-0.00007623,0.00012930,0.00000345,-0.00000149,-
 0.00005854,-0.00002542,0.00002281,0.00005092,0.00003600,0.00011385,-0.
 00017619,-0.00000462,-0.00004551,0.00002445,-0.00005473,0.00002607,0.0
 0008415,-0.00155785,-0.00265601,0.00569757,-0.00027768,-0.00168499,-0.
 00066326,0.00009766,-0.00017271,0.00010180,0.00122846,-0.00020232,0.00
 047950,-0.00047293,0.00042663,-0.00050777,-0.00031429,-0.00023896,0.00
 011507,0.00133768,0.00069116,0.00162666,-0.00015950,-0.00030903,-0.000
 54555,0.00315545,0.00170096,0.00473556,0.02134512,-0.15093862,0.117804
 93,0.00505205,-0.00550264,0.00051247,-0.00138265,0.00192058,-0.0027981
 5,-0.00223401,-0.00207104,0.00270753,0.00043553,0.00014592,0.00014114,
 0.00042379,-0.00003956,-0.00017243,0.00027129,-0.00024296,0.00002615,0
 .00002213,0.00006101,-0.00008016,-0.00015032,0.00019077,-0.00027831,0.
 00023669,0.00000876,0.00002387,-0.00002057,-0.00001256,0.00000063,-0.0
 0004259,0.00001650,-0.00000089,0.00008621,0.00005245,-0.00010092,0.000
 00975,0.00001722,0.00002321,-0.00009548,-0.00004289,0.00009482,0.00009
 082,0.00004632,-0.00011670,-0.00004968,-0.00007161,0.00001851,-0.00008
 401,-0.00007442,0.00014938,-0.00012010,-0.00004636,-0.00015483,-0.0000
 4135,0.00001453,0.00003904,0.00002814,0.00002065,-0.00001004,-0.000053
 30,-0.00001010,-0.00014843,0.00002778,0.00004038,0.00001964,0.00010004
 ,0.00002692,0.00001447,-0.00037635,-0.00021539,0.00003194,0.00024608,0
 .00026523,0.00000492,-0.02583852,0.15814822,0.00010348,-0.00001376,-0.
 00000693,0.00000615,0.00002988,0.00003362,-0.00000094,0.00001835,0.000
 00310,-0.00004211,0.00000884,0.00001655,0.00001431,-0.00002552,-0.0000
 1436,-0.00000910,0.00003720,-0.00009053,-0.00004729,0.00000052,-0.0000
 3100,-0.00002588,-0.00000406,0.00004689,0.00049748,0.00023876,-0.00017
 468,-0.00001272,-0.00014720,-0.00013912,0.00009465,-0.00005863,-0.0000
 5291,-0.00009640,0.00004003,-0.00010908,0.00055064,-0.00004846,0.00025
 508,0.00006922,0.00003558,0.00000198,0.00011689,-0.00001170,0.00007305
 ,-0.00002468,0.00003789,0.00002954,0.00323158,0.00359121,-0.00466051,0
 .00003600,0.00005533,-0.00003646,-0.00000402,0.00001013,0.00004485,0.0
 0003432,-0.00000811,-0.00006537,-0.00004611,-0.00008738,0.00013257,0.0
 0002122,0.00004279,-0.00002937,0.00003724,-0.00002434,-0.00006735,0.00
 202679,0.00301925,-0.00314236,0.00377982,0.00114181,0.00073987,-0.0001
 7982,-0.00038299,0.00014670,-0.00065781,-0.00014757,-0.00003897,0.0000
 3907,-0.00052275,-0.00007131,0.00016643,-0.00036031,-0.00000299,-0.001
 75447,0.00238318,-0.00061440,0.00018353,0.00034617,0.00029539,0.000903
 49,0.00057451,0.00137944,-0.02237752,0.11885614,-0.11854694,-0.0050535
 5,0.00021703,0.00381759,0.00116111,-0.00152940,0.00255666,0.00049064,0
 .00138233,-0.00294596,-0.00023112,-0.00015540,-0.00025645,-0.00030139,
 0.00033505,-0.00005409,-0.00015825,0.00003755,0.00001828,0.00002078,-0
 .00000732,0.00001732,0.00015501,-0.00013539,0.00015942,-0.00014085,-0.
 00004973,0.00000339,0.00000798,0.00001952,-0.00000092,0.00002064,-0.00
 001290,0.00000124,-0.00006659,-0.00004239,0.00007920,-0.00000735,-0.00
 001569,-0.00001802,0.00007134,0.00003192,-0.00007136,-0.00007673,-0.00
 003248,0.00008926,0.00003904,0.00005662,-0.00001011,0.00006344,0.00005
 652,-0.00011347,0.00011748,0.00001072,0.00015130,0.00005444,-0.0000050
 5,-0.00007331,-0.00000950,-0.00001066,0.00002382,-0.00012279,-0.000010
 85,0.00008173,0.00004506,-0.00009474,0.00003641,-0.00003038,-0.0000533
 7,-0.00006047,0.00032930,0.00023934,0.00031450,-0.00008171,-0.00023200
 ,-0.00003666,0.01704157,-0.12862961,0.12118173,-0.00027569,-0.00020619
 ,-0.00001945,-0.00017544,0.00047483,0.00003226,-0.00004126,0.00004745,
 -0.00001232,0.00005423,0.00000610,-0.00002245,-0.00005873,0.00026524,-
 0.00014374,-0.00001338,0.00001086,0.00003557,0.00002948,0.00000613,-0.
 00000281,0.00004285,0.00004808,0.00001616,-0.00016927,0.00003975,0.000
 09531,0.00007000,0.00000062,-0.00002379,0.00016914,0.00018132,0.000298
 60,0.00042915,-0.00057075,-0.00118646,-0.00002862,0.00000447,0.0000129
 9,-0.00301738,0.00208161,-0.00578346,0.00003795,-0.00015105,0.00003657
 ,0.00002064,0.00000359,-0.00001351,0.00003645,0.00002236,0.00000441,0.
 00000950,-0.00003440,-0.00007453,-0.00000123,-0.00000636,0.00000438,-0
 .00002144,0.00000911,0.00005607,0.00177261,-0.00375870,0.00071942,-0.0
 0901363,-0.00651372,0.00037717,0.00027994,0.00007249,0.00056737,-0.000
 12550,0.00005928,-0.00005134,-0.00000989,0.00003445,0.00000517,0.00002
 880,0.00002808,-0.00001998,-0.00019004,-0.00024159,0.00001247,0.000083
 67,-0.00000746,0.00002687,0.00007343,0.00004230,-0.00002236,0.00015230
 ,-0.00013967,0.00001307,0.00003036,0.00012950,-0.00018368,-0.00000200,
 -0.00001140,0.00003643,0.00003355,-0.00013188,0.00002466,-0.00008244,0
 .00006363,0.00000501,-0.00000339,0.00004298,-0.00006034,-0.00004316,-0
 .00008053,0.00007722,0.00001596,0.00000274,-0.00000315,0.00003209,-0.0
 0000231,-0.00000612,0.00005062,-0.00002240,0.00001152,-0.00002020,-0.0
 0001687,0.00003947,-0.00002165,0.00003638,-0.00004828,0.00004983,0.000
 04801,-0.00005840,-0.00000176,-0.00004193,0.00000370,-0.00000012,0.000
 00456,0.00002305,0.00009487,0.00002726,0.00000311,0.00008989,0.0000227
 5,-0.00005491,-0.00006565,-0.00002207,0.00005463,0.00011822,0.00060902
 ,-0.00054309,0.00023368,0.00014454,-0.00006394,-0.00009870,-0.00008469
 ,0.00017684,-0.06875774,-0.04325513,-0.08743237,-0.00217248,-0.0008456
 9,-0.00671479,0.00582464,-0.00071802,0.00404857,-0.00175223,0.00118409
 ,-0.00086755,0.00011092,0.00018703,0.00007135,-0.00006223,-0.00036354,
 0.00027242,-0.00017171,0.00037705,0.00021290,0.00009580,-0.00005191,-0
 .00016077,-0.00003000,0.00010028,-0.00008546,0.07642622,-0.00024363,0.
 00037185,-0.00052024,-0.00045808,-0.00043450,0.00038673,0.00005537,-0.
 00021778,0.00003128,0.00007426,-0.00009659,0.00004957,-0.00018319,0.00
 018418,-0.00011827,-0.00004021,0.00007425,-0.00002195,-0.00000341,-0.0
 0004151,0.00000390,0.00000120,-0.00004584,0.00004858,0.00005837,0.0002
 7595,-0.00023278,-0.00007260,-0.00004032,0.00004632,-0.00023859,-0.000
 08111,-0.00001637,0.00035340,-0.00052679,0.00057699,-0.00000559,0.0000
 7841,-0.00007674,0.00230691,-0.00018813,0.00660428,-0.00044492,0.00008
 790,-0.00037322,-0.00000731,-0.00003575,-0.00000025,-0.00005238,-0.000
 01065,-0.00003978,-0.00002175,0.00002441,0.00017649,-0.00001427,0.0000
 1803,-0.00013851,0.00000114,0.00002087,-0.00006679,0.00159092,-0.00033
 864,-0.00218152,-0.00929651,-0.00616297,-0.00004344,-0.00021713,0.0005
 0937,0.00121880,0.00011686,0.00006917,-0.00001878,0.00002134,-0.000025
 91,0.00000425,-0.00002889,-0.00006115,-0.00000583,0.00044503,0.0002918
 5,-0.00003933,-0.00013293,-0.00002469,-0.00002882,-0.00013139,-0.00005
 174,0.00002585,-0.00007779,0.00008515,0.00009493,-0.00002698,-0.000124
 12,-0.00002617,0.00000627,0.00002429,-0.00004765,-0.00007718,-0.000008
 31,0.00009458,0.00007275,-0.00008278,-0.00003230,-0.00001970,0.0000293
 8,-0.00005117,0.00006393,0.00001656,0.00005018,-0.00001793,0.00000806,
 -0.00000081,-0.00002836,-0.00001029,0.00000260,-0.00001453,-0.00009118
 ,0.00008936,0.00002506,0.00004936,-0.00014283,-0.00004890,0.00005666,-
 0.00007064,0.00032587,-0.00009412,0.00020150,0.00000546,0.00007430,-0.
 00002703,-0.00002564,0.00000407,-0.00007901,-0.00027244,0.00011304,-0.
 00016878,0.00016781,0.00008255,0.00003857,-0.00002451,-0.00005323,0.00
 009177,0.00057573,0.00025115,0.00022722,0.00016561,-0.00041097,-0.0002
 6383,-0.00009978,-0.00012354,0.00019911,-0.04443259,-0.04007596,-0.070
 20382,-0.00201186,-0.00150760,-0.00425227,0.00108636,-0.00066313,-0.00
 482906,-0.00010158,-0.00253725,-0.00037231,-0.00010967,0.00018967,0.00
 030080,0.00045161,0.00039516,-0.00019842,0.00016454,0.00025845,-0.0003
 2378,0.00005367,0.00014751,-0.00000355,0.00000008,0.00005617,-0.000036
 43,0.05088731,0.05033868,-0.00019416,0.00032012,-0.00027853,-0.0000785
 5,-0.00065284,0.00017800,-0.00001821,-0.00004101,-0.00008005,0.0000900
 4,0.00002778,0.00000484,-0.00009314,-0.00003915,0.00036889,0.00000584,
 -0.00002993,0.00006804,0.00004587,0.00000439,0.00000326,0.00003080,-0.
 00005687,0.00005412,-0.00017411,0.00025128,-0.00023940,0.00004724,-0.0
 0004650,0.00001392,-0.00010350,0.00022695,-0.00016401,0.00017898,-0.00
 095329,-0.00028683,-0.00005385,0.00007922,-0.00006305,-0.00483820,0.00
 416201,-0.00595126,0.00000114,-0.00017201,-0.00001063,0.00002784,-0.00
 002326,-0.00001575,0.00000653,0.00001672,-0.00002155,-0.00000040,-0.00
 003767,0.00001472,-0.00000716,-0.00000056,-0.00006730,-0.00002304,0.00
 002376,0.00003257,0.00024426,0.00198175,-0.00197989,0.00219042,-0.0014
 2714,0.00441119,-0.00062404,0.00035862,0.00056660,-0.00004045,0.000100
 86,-0.00006590,0.00000712,0.00002640,0.00000513,0.00000034,-0.00002979
 ,0.00000708,-0.00017924,-0.00018264,-0.00030646,0.00003311,-0.00000586
 ,0.00008999,-0.00002097,0.00004709,-0.00007446,0.00017199,-0.00003718,
 0.00003610,0.00002855,0.00004311,-0.00008449,-0.00001522,-0.00001826,0
 .00000844,-0.00002185,-0.00014722,0.00009132,-0.00003239,0.00003025,-0
 .00001169,-0.00001569,0.00006701,-0.00009945,-0.00001485,-0.00008018,0
 .00012488,0.00001313,0.00001021,-0.00000437,0.00002350,-0.00001117,-0.
 00000885,0.00005275,-0.00007474,0.00006421,-0.00001400,0.00000530,-0.0
 0002697,-0.00005089,0.00007256,-0.00009466,0.00019819,0.00002434,0.000
 02701,-0.00002104,0.00001061,-0.00000687,-0.00002601,0.00001619,-0.000
 01806,-0.00000301,0.00005918,-0.00016301,-0.00002913,0.00011578,0.0000
 3039,-0.00007223,-0.00005152,0.00009424,0.00043765,-0.00020374,0.00019
 582,-0.00028967,-0.00017799,0.00002664,-0.00015296,-0.00014197,0.00024
 048,-0.09303673,-0.07042643,-0.14302029,-0.00313537,-0.00043138,-0.007
 95134,0.00583096,-0.00606237,-0.01056617,-0.00206646,-0.00103693,-0.00
 087167,-0.00006357,0.00030301,0.00020575,0.00005888,-0.00056771,0.0007
 9908,-0.00049192,0.00022151,0.00003804,0.00020491,0.00001674,-0.000189
 39,-0.00003454,0.00014703,-0.00011682,0.09623435,0.07444152,0.16495260
 ,-0.00029929,0.00049106,-0.00063340,-0.00000377,-0.00000677,0.00003763
 ,0.00033758,-0.00030197,0.00033594,0.00021271,0.00017314,-0.00010598,-
 0.00002979,-0.00003722,0.00000981,-0.00084455,-0.00196794,0.00203861,0
 .00097575,0.00006606,0.00004460,0.00011160,0.00012404,-0.00006750,-0.0
 0019727,0.00017128,-0.00021416,0.00000496,-0.00002046,-0.00001996,0.00
 002760,-0.00002626,-0.00002253,-0.00012403,0.00001763,0.00003377,0.000
 27909,-0.00011764,0.00023670,0.00001885,0.00000250,0.00002743,0.000056
 76,0.00001084,-0.00000934,0.00056427,0.00027175,-0.00014838,0.00006960
 ,-0.00001132,0.00000302,-0.00379129,-0.00352876,0.00294777,0.00541196,
 0.00190917,0.00379290,0.00134328,-0.00266816,0.00039822,0.00001931,-0.
 00008966,0.00002382,-0.00017101,0.00002202,0.00006067,-0.00007111,-0.0
 0003885,0.00004045,0.00002360,-0.00009428,0.00002049,-0.00002805,-0.00
 001981,0.00000410,-0.00006298,0.00005842,-0.00004434,-0.00010341,0.000
 02076,-0.00000260,0.00002430,0.00001710,-0.00002249,0.00003975,0.00000
 751,0.00001985,-0.00004026,0.00000126,-0.00009920,0.00001490,0.0000235
 3,0.00004175,0.00000905,0.00000510,0.00001828,0.00001334,0.00015794,-0
 .00012924,-0.00001282,0.00000536,0.00004110,0.00005795,-0.00009919,0.0
 0009915,-0.00016084,0.00017796,-0.00002608,-0.00006696,-0.00013618,-0.
 00008646,0.00018461,0.00005057,-0.00013276,0.00004367,0.00034529,0.000
 46089,0.00017215,-0.00038214,0.00035936,0.00013487,-0.00017611,0.00017
 798,-0.16524619,-0.06193876,0.11031694,-0.00041293,-0.00110383,-0.0019
 4688,-0.00160044,0.00254096,-0.00034926,-0.00640772,0.00167286,-0.0010
 8420,0.00032193,-0.00034707,0.00023208,0.00031246,0.00163556,-0.003323
 17,0.00008361,-0.00010302,0.00034309,0.00000821,-0.00000711,-0.0000016
 3,0.00018341,0.00008225,-0.00018927,0.00002399,0.00013447,0.00007137,0
 .00001363,-0.00001384,0.00000149,-0.00004716,0.00004801,-0.00000416,0.
 00005800,-0.00000013,-0.00005344,0.00000240,0.00000533,-0.00000207,-0.
 00005426,0.00000692,-0.00002327,0.00012095,0.00001438,0.00000622,-0.00
 009548,-0.00005262,0.00002277,0.00003352,-0.00015470,0.00011442,-0.000
 06980,-0.00009462,-0.00012784,0.16862785,0.00000083,0.00010017,-0.0001
 3040,0.00000374,-0.00002582,0.00004398,-0.00008805,0.00019162,0.000227
 74,0.00007502,0.00006683,0.00005658,0.00002190,0.00000118,-0.00002942,
 -0.00165092,0.00030272,0.00008296,-0.00026848,-0.00065526,0.00018879,-
 0.00001263,-0.00017632,0.00000054,-0.00011274,0.00004307,0.00000179,0.
 00004471,0.00001300,-0.00001656,0.00001376,-0.00001744,0.00000281,-0.0
 0001838,-0.00001012,0.00000472,-0.00005707,0.00011301,-0.00020627,0.00
 001899,0.00000378,0.00000149,0.00001540,0.00000133,0.00000628,0.000131
 03,-0.00008293,0.00008281,-0.00000761,-0.00000691,-0.00000161,-0.00070
 161,0.00208983,0.00094372,0.00273149,0.00008448,0.00453328,-0.00184010
 ,0.00051186,-0.00011853,-0.00003364,-0.00011340,0.00003607,-0.00001897
 ,0.00000971,0.00000099,-0.00004822,-0.00003505,-0.00001048,-0.00008406
 ,-0.00001781,0.00000312,-0.00003415,0.00003327,-0.00000265,0.00000440,
 0.00001619,0.00000951,-0.00009165,0.00003661,-0.00002737,0.00002689,-0
 .00000646,0.00000124,0.00001877,0.00000176,-0.00000241,0.00004070,-0.0
 0003884,-0.00001166,0.00001231,0.00001652,0.00001031,-0.00000648,0.000
 00045,0.00002843,0.00009435,0.00001108,-0.00006327,-0.00004812,0.00003
 750,0.00000165,0.00001348,-0.00004618,0.00005330,-0.00004521,0.0000209
 8,-0.00006213,0.00005938,0.00002168,0.00002233,-0.00002582,-0.00010741
 ,0.00001059,0.00015057,0.00008438,-0.00000815,-0.00019845,-0.00016421,
 0.00046700,0.00003693,-0.00008010,0.00007208,-0.06238640,-0.03969888,0
 .04165933,-0.00087772,-0.00018869,0.00101861,-0.00044623,0.00379962,-0
 .00089002,0.00016515,-0.00095346,0.00151974,0.00011257,-0.00036967,-0.
 00031457,0.00192634,0.00053336,-0.00071229,-0.00000736,0.00003297,0.00
 005043,0.00007026,0.00001315,-0.00002938,0.00009441,0.00004696,-0.0001
 4860,0.00001304,0.00002117,0.00004458,0.00000698,-0.00000817,-0.000007
 16,-0.00000484,-0.00000050,0.00000003,-0.00001644,0.00001679,0.0000161
 9,-0.00000069,-0.00000746,-0.00000234,-0.00001538,-0.00000301,-0.00001
 310,0.00004307,0.00000841,0.00002172,-0.00003628,-0.00001829,-0.000004
 39,-0.00000316,-0.00004921,0.00004203,-0.00002701,-0.00001992,-0.00004
 400,0.06326739,0.03461609,0.00003617,-0.00012427,0.00028589,-0.0000030
 2,0.00000172,-0.00002624,-0.00019737,-0.00041191,-0.00039503,-0.000198
 74,-0.00012531,-0.00014698,-0.00002017,0.00002175,0.00000141,0.0023955
 1,0.00065990,0.00055912,-0.00037720,0.00019393,0.00012646,0.00010740,0
 .00007326,-0.00000107,0.00021120,-0.00002954,0.00003116,-0.00008862,-0
 .00006055,0.00000914,-0.00001650,0.00003022,0.00000395,0.00004523,0.00
 000110,-0.00002322,0.00021880,0.00009742,-0.00001146,-0.00002741,-0.00
 000261,-0.00000755,-0.00003700,0.00000626,-0.00000354,-0.00003504,-0.0
 0014681,0.00006144,-0.00002572,0.00000548,-0.00001640,0.00050005,-0.00
 077617,0.00052166,0.00476169,0.00129422,-0.00893266,-0.00056729,0.0022
 4252,0.00047666,0.00004630,0.00010106,-0.00014179,0.00005543,-0.000017
 81,-0.00001308,-0.00001589,-0.00000054,0.00001170,0.00012436,0.0000306
 6,0.00000820,0.00004736,-0.00003410,0.00000360,0.00000284,-0.00004130,
 0.00001562,0.00013536,-0.00006882,0.00003472,-0.00004369,0.00000030,0.
 00000468,-0.00003090,-0.00000388,-0.00000245,-0.00004988,0.00004704,0.
 00004330,-0.00001704,-0.00003176,-0.00002604,-0.00000175,0.00000424,-0
 .00003876,-0.00010808,-0.00005864,0.00010946,0.00006345,-0.00004312,-0
 .00001375,-0.00002532,0.00006438,-0.00009509,0.00004281,-0.00002553,0.
 00004909,0.00001697,-0.00001673,0.00004166,-0.00010456,0.00000554,0.00
 003550,-0.00016613,-0.00010754,0.00004494,-0.00003869,-0.00001212,-0.0
 0078359,-0.00008388,0.00011060,-0.00015251,0.10523747,0.04687708,-0.09
 100873,0.00213468,0.00104445,0.00217807,0.00250906,-0.00290347,-0.0005
 8954,0.00029749,0.00069668,-0.00270914,0.00002782,0.00041897,0.0003214
 7,-0.00306679,-0.00057529,0.00173508,0.00000679,0.00003627,-0.00006188
 ,-0.00002654,-0.00004294,0.00000956,-0.00018691,-0.00010868,0.00020458
 ,-0.00001891,-0.00005545,-0.00007544,-0.00001363,0.00001675,0.00001054
 ,0.00001689,-0.00001058,0.00000110,0.00000475,-0.00001995,-0.00000405,
 -0.00000116,0.00000764,0.00000184,0.00003240,0.00000210,0.00002093,-0.
 00008290,-0.00000900,-0.00002664,0.00006810,0.00003677,0.,-0.00000658,
 0.00009886,-0.00007822,0.00004999,0.00004731,0.00008579,-0.11351307,-0
 .04841000,0.09833650\\-0.00000088,-0.00000517,0.00000130,0.00000243,-0
 .00000938,-0.00000230,0.00001071,0.00000662,-0.00001063,-0.00000074,-0
 .00000210,-0.00000064,-0.00000212,0.00000437,0.00000153,-0.00000411,0.
 00000562,-0.00000579,0.00000094,-0.00000602,-0.00000585,0.00000076,0.0
 0000157,0.00000613,-0.00000842,0.00000326,0.00001123,0.00000319,0.0000
 0173,-0.00000150,-0.00000141,0.00000676,-0.00000367,0.00000302,-0.0000
 0829,-0.00001455,-0.00002416,-0.00000299,-0.00000734,0.00000636,0.0000
 0303,0.00000795,0.00000390,0.00001379,0.00000311,0.00000118,0.00000486
 ,-0.00000445,-0.00000344,0.00000815,0.00000063,0.00002782,-0.00000200,
 0.00001713,-0.00000535,-0.00000326,0.00000272,-0.00001080,-0.00000418,
 -0.00000150,0.00000484,0.00001034,-0.00000393,0.00000141,0.00000360,0.
 00001091,-0.00000372,-0.00000618,-0.00001149,0.00001082,-0.00003113,-0
 .00000095,-0.00000608,0.00000229,0.00001082,-0.00000130,-0.00000304,-0
 .00000906,-0.00000817,-0.00002047,0.00001572,0.00000542,0.00000357,-0.
 00000328,-0.00004109,-0.00003310,0.00002739,0.00001043,0.00000680,0.00
 000850,-0.00000894,0.00002024,-0.00002616,0.00000394,-0.00000086,0.000
 00248,-0.00000142,0.00000843,-0.00000318,-0.00000044,-0.00000614,-0.00
 000143,-0.00000880,-0.00000363,-0.00000072,0.00001009,0.00000046,0.000
 00051,0.00001101,0.00000480,-0.00000359,0.00000243,0.00000663,0.000002
 66,0.00000379,-0.00000706,0.00000347,-0.00001010,0.00000366,0.00000215
 ,-0.00000392,0.00000049,0.00000108,-0.00000083,-0.00000328,-0.00000958
 ,0.00000615,0.00000241,-0.00000025,0.00000605,-0.00000070,0.00000243,-
 0.00000706,-0.00000058,0.00000320,0.00000514,-0.00000066,-0.00000382,0
 .00000253,-0.00000431,0.00000152,-0.00001720,-0.00000089,0.00002350,0.
 00000246,0.00000008,-0.00000127,0.00000566,-0.00000937,-0.00000142,-0.
 00000416,-0.00000974,-0.00001060,0.00000598,0.00000725,0.00000915,0.00
 000424,-0.00000177,0.00000478,-0.00001762,0.00001010,-0.00000984,0.000
 00534,-0.00000240,-0.00000543,-0.00000328,0.00000562,0.00000021,0.0000
 1376,0.00009098,-0.00001049,0.00002403,-0.00006195,-0.00001018,-0.0000
 0029,0.00000112,0.00000206,0.00000134,0.00000064,-0.00000070,-0.000001
 33,0.00000138,0.00000134\\\@
 The archive entry for this job was punched.


 THEREFORE SHALL EVIL COME UPON THEE...
 THOU SHALT NOT KNOW FROM WHENCE IT RISETH...
 AND MISCHIEF SHALL FALL UPON THEE...
 THOU SHALT NOT BE ABLE TO PUT IT OFF...
 AND DESOLATION SHALL COME UPON THEE SUDDENLY...
 WHICH THOU SHALT NOT KNOW...

                                         ISAIAH 47.11
 Job cpu time:       5 days 14 hours 50 minutes 27.1 seconds.
 Elapsed time:       0 days  2 hours 48 minutes 60.0 seconds.
 File lengths (MBytes):  RWF=  12138 Int=      0 D2E=      0 Chk=    121 Scr=      2
 Normal termination of Gaussian 16 at Mon Feb 13 23:19:29 2023.
